{"miller": "001_0.17", "final_energy": -517.1493556, "sigma": 0.02529355345473004, "incar_parameters": {"SYSTEM": "unknown system", "LCOMPAT": false, "PREC": "normal", "ENMAX": 520.0, "ENAUG": 628.945, "EDIFF": 1e-05, "IALGO": 38, "IWAVPR": 11, "NBANDS": 444, "NBANDSLOW": -1, "NBANDSHIGH": -1, "NELECT": 740.0, "TURBO": 0, "IRESTART": 0, "NREBOOT": 0, "NMIN": 0, "EREF": 0.0, "ISMEAR": 0, "SIGMA": 0.05, "KSPACING": 0.5, "KGAMMA": true, "KBLOWUP": true, "LREAL": true, "ROPT": [-0.0005, -0.0005, -0.0005], "LMAXPAW": -100, "LMAXMIX": 4, "NLSPLINE": false, "ISTART": 0, "ICHARG": 2, "INIWAV": 1, "ISPIN": 1, "LNONCOLLINEAR": false, "MAGMOM": [0.6, 0.6, 0.6, 0.6, 0.6, 0.6, 0.6, 0.6, 0.6, 0.6, 0.6, 0.6, 0.6, 0.6, 0.6, 0.6, 0.6, 0.6, 0.6, 0.6, 0.6, 0.6, 0.6, 0.6, 0.6, 0.6, 0.6, 0.6, 0.6, 0.6, 0.6, 0.6, 0.6, 0.6, 0.6, 0.6, 0.6, 0.6, 0.6, 0.6, 0.6, 0.6, 0.6, 0.6, 0.6, 0.6, 0.6, 0.6, 0.6, 0.6, 0.6, 0.6, 0.6, 0.6, 0.6, 0.6, 0.6, 0.6, 0.6, 0.6, 0.6, 0.6, 0.6, 0.6, 0.6, 0.6, 0.6, 0.6, 0.6, 0.6, 0.6, 0.6, 0.6, 0.6, 0.6, 0.6, 0.6, 0.6, 0.6, 0.6, 0.6, 0.6, 0.6, 0.6, 0.6, 0.6, 0.6, 0.6, 0.6, 0.6, 0.6, 0.6, 0.6, 0.6, 0.6, 0.6, 0.6, 0.6, 0.6, 0.6, 0.6, 0.6, 0.6, 0.6, 0.6, 0.6, 0.6, 0.6, 0.6, 0.6, 0.6, 0.6, 0.6, 0.6, 0.6, 0.6, 0.6, 0.6, 0.6, 0.6, 0.6, 0.6, 0.6, 0.6], "NUPDOWN": -1.0, "LSORBIT": false, "SAXIS": [0.0, 0.0, 1.0], "LSPIRAL": false, "QSPIRAL": [0.0, 0.0, 0.0], "LZEROZ": false, "LASPH": false, "LMETAGGA": false, "NELM": 100, "NELMDL": -5, "NELMIN": 6, "ENINI": 520.0, "LDIAG": true, "LSUBROT": false, "WEIMIN": 0.001, "EBREAK": 1e-08, "DEPER": 0.3, "NRMM": 4, "TIME": 0.4, "AMIX": 0.4, "BMIX": 1.0, "AMIN": 0.1, "AMIX_MAG": 1.6, "BMIX_MAG": 1.0, "IMIX": 4, "MIXFIRST": false, "MAXMIX": -45, "WC": 100.0, "INIMIX": 1, "MIXPRE": 1, "MREMOVE": 5, "LDIPOL": false, "LMONO": false, "IDIPOL": 0, "EPSILON": 1.0, "DIPOL": [-100.0, -100.0, -100.0], "EFIELD": 0.0, "NGX": 36, "NGY": 64, "NGZ": 256, "NGXF": 72, "NGYF": 128, "NGZF": 512, "ADDGRID": false, "NSW": 150, "IBRION": 2, "MDALGO": 0, "ISIF": 3, "PSTRESS": 0.0, "EDIFFG": -0.01, "NFREE": 1, "POTIM": 0.5, "SMASS": -3.0, "SCALEE": 1.0, "TEBEG": 0.0001, "TEEND": 0.0001, "NBLOCK": 1, "KBLOCK": 150, "NPACO": 256, "APACO": 10.0, "ISYM": 0, "SYMPREC": 1e-05, "LORBIT": 11, "RWIGS": [-1.0, -1.0, -1.0], "NEDOS": 301, "EMIN": 10.0, "EMAX": -10.0, "EFERMI": 0.0, "NWRITE": 2, "LWAVE": false, "LDOWNSAMPLE": false, "LCHARG": false, "LPARD": false, "LVTOT": false, "LVHAR": false, "LELF": false, "LOPTICS": false, "STM": [0.0, 0.0, 0.0, 0.0, 0.0, 0.0, 0.0], "NPAR": 1, "NSIM": 4, "NBLK": -1, "LPLANE": true, "LSCALAPACK": true, "LSCAAWARE": false, "LSCALU": false, "LASYNC": false, "LORBITALREAL": false, "IDIOT": 3, "PHON_NSTRUCT": -1, "LMUSIC": false, "POMASS": [7.01, 88.906, 35.453], "DARWINR": [0.0, 0.0, 0.0], "DARWINV": [1.0, 1.0, 1.0], "LCORR": true, "GGA_COMPAT": true, "LBERRY": false, "ICORELEVEL": 0, "LDAU": false, "I_CONSTRAINED_M": 0, "GGA": "--", "VOSKOWN": 0, "LHFCALC": false, "PRECFOCK": "", "LSYMGRAD": false, "LHFONE": false, "LRHFCALC": false, "LTHOMAS": false, "LMODELHF": false, "LFOCKACE": false, "ENCUT4O": -1.0, "EXXOEP": 0, "FOURORBIT": 0, "AEXX": 0.0, "HFALPHA": 0.0, "MCALPHA": 0.0, "ALDAX": 1.0, "AGGAX": 1.0, "ALDAC": 1.0, "AGGAC": 1.0, "NKREDX": 1, "NKREDY": 1, "NKREDZ": 1, "SHIFTRED": false, "ODDONLY": false, "EVENONLY": false, "LMAXFOCK": 0, "NMAXFOCKAE": 0, "LFOCKAEDFT": false, "HFSCREEN": 0.0, "HFSCREENC": 0.0, "NBANDSGWLOW": 0, "LUSE_VDW": false, "Zab_VDW": -0.8491, "PARAM1": 0.1234, "PARAM2": 1.0, "PARAM3": 0.0, "MODEL_GW": 0, "MODEL_EPS0": 15.03210357, "MODEL_ALPHA": 1.0, "LEPSILON": false, "LRPA": false, "LNABLA": false, "LVEL": false, "CSHIFT": 0.1, "OMEGAMAX": -1.0, "DEG_THRESHOLD": 0.002, "RTIME": -0.1, "WPLASMAI": 0.0, "DFIELD": [0.0, 0.0, 0.0], "WPLASMA": [0.0, 0.0, 0.0, 0.0, 0.0, 0.0, 0.0, 0.0, 0.0], "NUCIND": false, "MAGPOS": [0.0, 0.0, 0.0], "LNICSALL": true, "ORBITALMAG": false, "LMAGBLOCH": false, "LCHIMAG": false, "LGAUGE": true, "MAGATOM": 0, "MAGDIPOL": [0.0, 0.0, 0.0], "AVECCONST": [0.0, 0.0, 0.0], "LFINITE_TEMPERATURE": false, "LADDER": false, "LRPAFORCE": false, "LFXC": false, "LHARTREE": true, "IBSE": 0, "KPOINT": [-1, 0, 0, 0], "LTCTC": false, "LTCTE": false, "LTETE": false, "LTRIPLET": false, "LFXCEPS": false, "LFXHEG": false, "NATURALO": 2, "LHOLEGF": false, "L2ORDER": false, "LDMP1": false, "LMP2LT": false, "LSMP2LT": false, "LGWLF": false, "ENCUTGW": -2.0, "ENCUTGWSOFT": -2.0, "ENCUTLF": -1.0, "LESF_SPLINES": false, "LMAXMP2": -1, "SCISSOR": 0.0, "NOMEGA": 0, "NOMEGAR": 0, "NBANDSGW": -1, "NBANDSO": -1, "NBANDSV": -1, "NELMGW": 1, "NELMHF": 1, "DIM": 3, "IESPILON": 4, "ANTIRES": 0, "OMEGAMIN": -30.0, "OMEGATL": -200.0, "OMEGAGRID": 0, "LSELFENERGY": false, "LSPECTRAL": false, "LSPECTRALGW": false, "LSINGLES": false, "LFERMIGW": false, "ODDONLYGW": false, "EVENONLYGW": false, "NKREDLFX": 1, "NKREDLFY": 1, "NKREDLFZ": 1, "MAXMEM": 2800, "TELESCOPE": 0, "NTAUPAR": -1, "NOMEGAPAR": -1, "DAMP_NEWTON": 0.80000001, "LAMBDA": 1.0, "OFIELD_KAPPA": 0.0, "OFIELD_K": [0.0, 0.0, 0.0], "OFIELD_Q6_NEAR": 0.0, "OFIELD_Q6_FAR": 0.0, "OFIELD_A": 0.0, "KPOINTS_OPT_MODE": 1, "LKPOINTS_OPT": false, "@module": "pymatgen.io.vasp.inputs", "@class": "Incar"}, "relaxed_structures": {"@module": "pymatgen.core.structure", "@class": "Structure", "charge": 0, "lattice": {"matrix": [[6.097585, 0.0, 0.0], [0.000256, 11.177296, 0.0], [0.0, 0.0, 45.58223114]], "a": 6.097585, "b": 11.177296002931657, "c": 45.58223114, "alpha": 90.0, "beta": 90.0, "gamma": 89.99868772200783, "volume": 3106.634738825556}, "sites": [{"species": [{"element": "Li", "occu": 1}], "abc": [0.90205212, 0.01076305, 0.0373609], "xyz": [5.5003422314709995, 0.1203017957128, 1.702993179398426], "label": "Li", "properties": {}}, {"species": [{"element": "Li", "occu": 1}], "abc": [0.95189258, 0.25887528, 0.1082529], "xyz": [5.80431218949098, 2.8935256316428797, 4.9344087093753055], "label": "Li", "properties": {}}, {"species": [{"element": "Li", "occu": 1}], "abc": [0.04009025, 0.73615329, 0.03640677], "xyz": [0.24464216228849, 8.22820322370384, 1.6595018052008177], "label": "Li", "properties": {}}, {"species": [{"element": "Li", "occu": 1}], "abc": [0.49279874, 0.08362821, 0.18194576], "xyz": [3.0049036138646597, 0.93473725712016, 8.293493687262966], "label": "Li", "properties": {}}, {"species": [{"element": "Li", "occu": 1}], "abc": [0.50000017, 0.7434712, 0.18030737], "xyz": [3.0489838652166497, 8.3099976698752, 8.218812215585501], "label": "Li", "properties": {}}, {"species": [{"element": "Li", "occu": 1}], "abc": [0.50761796, 0.77563493, 0.0489593], "xyz": [3.09544222116868, 8.669501200549279, 2.231674129052602], "label": "Li", "properties": {}}, {"species": [{"element": "Li", "occu": 1}], "abc": [0.48425346, 0.2719192, 0.1164532], "xyz": [2.9528462452093, 3.0393213864832003, 5.308196679392648], "label": "Li", "properties": {}}, {"species": [{"element": "Li", "occu": 1}], "abc": [0.52005603, 0.55754747, 0.09486384], "xyz": [3.1712285798398696, 6.231873106241121, 4.324105481707978], "label": "Li", "properties": {}}, {"species": [{"element": "Li", "occu": 1}], "abc": [0.99903093, 0.74988036, 0.17799976], "xyz": [6.091867982676209, 8.38163474830656, 8.113626203184527], "label": "Li", "properties": {}}, {"species": [{"element": "Li", "occu": 1}], "abc": [0.99798662, 0.587405, 0.24999848], "xyz": [6.0854586199927, 6.56559955688, 11.395488500008666], "label": "Li", "properties": {}}, {"species": [{"element": "Li", "occu": 1}], "abc": [0.00053709, 0.74969752, 0.32197283], "xyz": [0.00346687449277, 8.37959109150592, 14.676239957859925], "label": "Li", "properties": {}}, {"species": [{"element": "Li", "occu": 1}], "abc": [0.99805802, 0.25626794, 0.25002272], "xyz": [6.08580921647434, 2.8643826206902405, 11.3965934132915], "label": "Li", "properties": {}}, {"species": [{"element": "Li", "occu": 1}], "abc": [0.47973462, 0.55768697, 0.40510711], "xyz": [2.92536539075702, 6.23343233903312, 18.465685924477405], "label": "Li", "properties": {}}, {"species": [{"element": "Li", "occu": 1}], "abc": [0.51582811, 0.27194301, 0.38353798], "xyz": [3.1453753635249093, 3.03958751790096, 17.482516855328697], "label": "Li", "properties": {}}, {"species": [{"element": "Li", "occu": 1}], "abc": [0.49904644, 0.26595158, 0.25000426], "xyz": [3.0430461704518796, 2.9726195313276804, 11.395751965304655], "label": "Li", "properties": {}}, {"species": [{"element": "Li", "occu": 1}], "abc": [0.49945059, 0.74300512, 0.31959337], "xyz": [3.0456326351358696, 8.304788155755519, 14.56777886215154], "label": "Li", "properties": {}}, {"species": [{"element": "Li", "occu": 1}], "abc": [0.50061645, 0.0822132, 0.31793166], "xyz": [3.0525724028524497, 0.9189212715072, 14.492034412843893], "label": "Li", "properties": {}}, {"species": [{"element": "Li", "occu": 1}], "abc": [0.04805244, 0.25886046, 0.39177728], "xyz": [0.29307010563516, 2.8933599841161604, 17.8580825323605], "label": "Li", "properties": {}}, {"species": [{"element": "Li", "occu": 1}], "abc": [0.09799596, 0.01077687, 0.46265134], "xyz": [0.5975414546353199, 0.12045626594351999, 21.08868031711073], "label": "Li", "properties": {}}, {"species": [{"element": "Li", "occu": 1}], "abc": [0.95988864, 0.73624535, 0.46355724], "xyz": [5.853191051743999, 8.2292322055736, 21.129973260300453], "label": "Li", "properties": {}}, {"species": [{"element": "Li", "occu": 1}], "abc": [0.49256014, 0.77571301, 0.45101423], "xyz": [3.0036259037924595, 8.67037392382096, 20.55823487928912], "label": "Li", "properties": {}}, {"species": [{"element": "Li", "occu": 1}], "abc": [0.59847128, 0.59161044, 0.53775111], "xyz": [3.64938095213144, 6.61260500457024, 24.511895391811564], "label": "Li", "properties": {}}, {"species": [{"element": "Li", "occu": 1}], "abc": [0.55189574, 0.34032383, 0.60827472], "xyz": [3.3653183086883796, 3.80390018376368, 27.72651888365878], "label": "Li", "properties": {}}, {"species": [{"element": "Li", "occu": 1}], "abc": [0.46068135, 0.86518006, 0.53659953], "xyz": [2.80926517563511, 9.67037362391776, 24.459403806075365], "label": "Li", "properties": {}}, {"species": [{"element": "Li", "occu": 1}], "abc": [0.00272626, 0.51580638, 0.68170268], "xyz": [0.016755648515379997, 5.76532058794848, 31.073529128517453], "label": "Li", "properties": {}}, {"species": [{"element": "Li", "occu": 1}], "abc": [4.564e-05, 0.85498494, 0.68042534], "xyz": [0.00049716992404, 9.55641974992224, 31.015305121393084], "label": "Li", "properties": {}}, {"species": [{"element": "Li", "occu": 1}], "abc": [0.99491806, 0.82614874, 0.54906979], "xyz": [6.066808932962539, 9.23410900700704, 25.02782607977126], "label": "Li", "properties": {}}, {"species": [{"element": "Li", "occu": 1}], "abc": [0.01940512, 0.32803856, 0.61652331], "xyz": [0.11840834650656, 3.66658408453376, 28.102508019617876], "label": "Li", "properties": {}}, {"species": [{"element": "Li", "occu": 1}], "abc": [0.98124042, 0.04161158, 0.59527859], "xyz": [5.98320751895018, 0.46510494668768004, 27.134126282073293], "label": "Li", "properties": {}}, {"species": [{"element": "Li", "occu": 1}], "abc": [0.50083784, 0.85069846, 0.67866867], "xyz": [3.0541190794221595, 9.508508494164161, 30.93523218341638], "label": "Li", "properties": {}}, {"species": [{"element": "Li", "occu": 1}], "abc": [0.50008175, 0.01043567, 0.75017481], "xyz": [3.0492936491052696, 0.11664257254832, 34.19464158482558], "label": "Li", "properties": {}}, {"species": [{"element": "Li", "occu": 1}], "abc": [0.49989484, 0.85047162, 0.82128803], "xyz": [3.04836899869612, 9.50597303633952, 37.43614081597525], "label": "Li", "properties": {}}, {"species": [{"element": "Li", "occu": 1}], "abc": [0.50073278, 0.34372676, 0.75001202], "xyz": [3.0533486823868596, 3.8419357396409604, 34.1872212534183], "label": "Li", "properties": {}}, {"species": [{"element": "Li", "occu": 1}], "abc": [0.01744666, 0.04177254, 0.90422068], "xyz": [0.10639318608633999, 0.46690404425183996, 41.216396037327975], "label": "Li", "properties": {}}, {"species": [{"element": "Li", "occu": 1}], "abc": [0.98433478, 0.32994898, 0.88401883], "xyz": [6.002149456445179, 3.68793741435808, 40.29555064117237], "label": "Li", "properties": {}}, {"species": [{"element": "Li", "occu": 1}], "abc": [0.00020999, 0.3336056, 0.75000813], "xyz": [0.0013658349077499997, 3.7288085384576, 34.18704393853917], "label": "Li", "properties": {}}, {"species": [{"element": "Li", "occu": 1}], "abc": [0.00026225, 0.85505752, 0.81958737], "xyz": [0.00181798639137, 9.55723099806592, 37.3586209387647], "label": "Li", "properties": {}}, {"species": [{"element": "Li", "occu": 1}], "abc": [0.99827069, 0.51581524, 0.81830687], "xyz": [6.0871724339850894, 5.76541961879104, 37.30025289178993], "label": "Li", "properties": {}}, {"species": [{"element": "Li", "occu": 1}], "abc": [0.45080947, 0.33944278, 0.89172243], "xyz": [2.74893595948163, 3.79405242712288, 40.64669791698247], "label": "Li", "properties": {}}, {"species": [{"element": "Li", "occu": 1}], "abc": [0.4014459, 0.59171601, 0.96225787], "xyz": [2.44800197745006, 6.613784991708959, 43.861860646624066], "label": "Li", "properties": {}}, {"species": [{"element": "Li", "occu": 1}], "abc": [0.5393206, 0.86551525, 0.96338562], "xyz": [3.288774772655, 9.674120141764, 43.91326600779221], "label": "Li", "properties": {}}, {"species": [{"element": "Li", "occu": 1}], "abc": [0.00445101, 0.82683827, 0.9509031], "xyz": [0.027352082407969998, 9.24181608791792, 43.34428489594253], "label": "Li", "properties": {}}, {"species": [{"element": "Y", "occu": 1}], "abc": [0.00961762, 0.91362457, 0.10978566], "xyz": [0.05887814333762, 10.21185225176272, 5.004275329977451], "label": "Y", "properties": {}}, {"species": [{"element": "Y", "occu": 1}], "abc": [0.99350082, 0.41750908, 0.17773231], "xyz": [6.058062579844179, 4.6666225698476795, 8.101435235466132], "label": "Y", "properties": {}}, {"species": [{"element": "Y", "occu": 1}], "abc": [0.99868392, 0.92589583, 0.24999148], "xyz": [6.089797119665679, 10.34901175707568, 11.395169424390685], "label": "Y", "properties": {}}, {"species": [{"element": "Y", "occu": 1}], "abc": [0.00541418, 0.41728536, 0.32223438], "xyz": [0.03312024780746, 4.66412198518656, 14.688161990414592], "label": "Y", "properties": {}}, {"species": [{"element": "Y", "occu": 1}], "abc": [0.990093, 0.9137749, 0.39022559], "xyz": [6.037410151779399, 10.2135325346704, 17.787353040122873], "label": "Y", "properties": {}}, {"species": [{"element": "Y", "occu": 1}], "abc": [0.49088894, 0.68648394, 0.61002204], "xyz": [2.99341277709854, 7.67303419662624, 27.806165627774327], "label": "Y", "properties": {}}, {"species": [{"element": "Y", "occu": 1}], "abc": [0.50701612, 0.18233457, 0.67789454], "xyz": [3.0916205657201195, 2.0380074599227203, 30.899945610823977], "label": "Y", "properties": {}}, {"species": [{"element": "Y", "occu": 1}], "abc": [0.50038618, 0.6728724, 0.74999926], "xyz": [3.0513195207096997, 7.5208939850304, 34.18663962414895], "label": "Y", "properties": {}}, {"species": [{"element": "Y", "occu": 1}], "abc": [0.49460946, 0.18241002, 0.8222364], "xyz": [3.0159699211192197, 2.03885078690592, 37.47936963652149], "label": "Y", "properties": {}}, {"species": [{"element": "Y", "occu": 1}], "abc": [0.50924331, 0.68644629, 0.89000576], "xyz": [3.1053300986565895, 7.67261337143184, 40.568448268251366], "label": "Y", "properties": {}}, {"species": [{"element": "Cl", "occu": 1}], "abc": [0.23011795, 0.58929535, 0.20205116], "xyz": [1.4033146197603499, 6.5867285583736, 9.209942677225122], "label": "Cl", "properties": {}}, {"species": [{"element": "Cl", "occu": 1}], "abc": [0.22540297, 0.9255782, 0.05740396], "xyz": [1.37465071684665, 10.3454615125472, 2.616600573071314], "label": "Cl", "properties": {}}, {"species": [{"element": "Cl", "occu": 1}], "abc": [0.25686351, 0.75372877, 0.13484455], "xyz": [1.56644004018847, 8.42464956600592, 6.146515446069287], "label": "Cl", "properties": {}}, {"species": [{"element": "Cl", "occu": 1}], "abc": [0.20591763, 0.41363484, 0.12718038], "xyz": [1.25570614244259, 4.62331904259264, 5.797165477633033], "label": "Cl", "properties": {}}, {"species": [{"element": "Cl", "occu": 1}], "abc": [0.30485842, 0.60435853, 0.05407081], "xyz": [1.85905484469938, 6.755094179934879, 2.464668159347023], "label": "Cl", "properties": {}}, {"species": [{"element": "Cl", "occu": 1}], "abc": [0.25643981, 0.91518276, 0.20238684], "xyz": [1.5638978256454097, 10.22926860261696, 9.225243720574198], "label": "Cl", "properties": {}}, {"species": [{"element": "Cl", "occu": 1}], "abc": [0.25250759, 0.25486523, 0.20366194], "xyz": [1.53975173866903, 2.84870411581808, 9.283365623500812], "label": "Cl", "properties": {}}, {"species": [{"element": "Cl", "occu": 1}], "abc": [0.24823796, 0.09950155, 0.12725024], "xyz": [1.5136775337234, 1.1121582768087999, 5.800349852300473], "label": "Cl", "properties": {}}, {"species": [{"element": "Cl", "occu": 1}], "abc": [0.74361698, 0.58934389, 0.1572099], "xyz": [4.534418615029139, 6.58727110432144, 7.165977999296286], "label": "Cl", "properties": {}}, {"species": [{"element": "Cl", "occu": 1}], "abc": [0.69536093, 0.37949854, 0.08443695], "xyz": [4.24011952798029, 4.24176751314784, 3.8488245716566225], "label": "Cl", "properties": {}}, {"species": [{"element": "Cl", "occu": 1}], "abc": [0.78946245, 0.73636983, 0.08417368], "xyz": [4.8140029038597305, 8.23062355537968, 3.836824137664395], "label": "Cl", "properties": {}}, {"species": [{"element": "Cl", "occu": 1}], "abc": [0.75529495, 0.91276587, 0.15648935], "xyz": [4.60570882575847, 10.20225430768752, 7.133133722648359], "label": "Cl", "properties": {}}, {"species": [{"element": "Cl", "occu": 1}], "abc": [0.74313178, 0.24246052, 0.15572324], "xyz": [4.53137126464442, 2.7100530003539203, 7.098212719549694], "label": "Cl", "properties": {}}, {"species": [{"element": "Cl", "occu": 1}], "abc": [0.73993287, 0.85596568, 0.01360365], "xyz": [4.512022696333029, 9.56738177120128, 0.620084718647661], "label": "Cl", "properties": {}}, {"species": [{"element": "Cl", "occu": 1}], "abc": [0.76938601, 0.07712676, 0.08227252], "xyz": [4.691416338236409, 0.86206862604096, 3.7501650231102728], "label": "Cl", "properties": {}}, {"species": [{"element": "Cl", "occu": 1}], "abc": [0.23069789, 0.07718747, 0.41774243], "xyz": [1.4067197535879699, 0.8627471996811199, 19.04163200124527], "label": "Cl", "properties": {}}, {"species": [{"element": "Cl", "occu": 1}], "abc": [0.227829, 0.75341672, 0.27503629], "xyz": [1.38939956764532, 8.42116169078912, 12.53676774266807], "label": "Cl", "properties": {}}, {"species": [{"element": "Cl", "occu": 1}], "abc": [0.23215728, 0.4159787, 0.27254137], "xyz": [1.4157052387159998, 4.6495170595952, 12.423043722552261], "label": "Cl", "properties": {}}, {"species": [{"element": "Cl", "occu": 1}], "abc": [0.25642826, 0.2425493, 0.34429862], "xyz": [1.5636552043729, 2.7110453206928, 15.693899278023025], "label": "Cl", "properties": {}}, {"species": [{"element": "Cl", "occu": 1}], "abc": [0.24431044, 0.91289113, 0.34345429], "xyz": [1.48993737441668, 10.20365437578448, 15.65541283280459], "label": "Cl", "properties": {}}, {"species": [{"element": "Cl", "occu": 1}], "abc": [0.24846144, 0.09751055, 0.27221023], "xyz": [1.5150397123232, 1.0899042804728, 12.407949622532561], "label": "Cl", "properties": {}}, {"species": [{"element": "Cl", "occu": 1}], "abc": [0.30458946, 0.37967069, 0.4155554], "xyz": [1.8573573181507397, 4.24369168465424, 18.941942294275155], "label": "Cl", "properties": {}}, {"species": [{"element": "Cl", "occu": 1}], "abc": [0.21111813, 0.73670053, 0.41574038], "xyz": [1.2874993380517297, 8.23431988716688, 18.95037409539143], "label": "Cl", "properties": {}}, {"species": [{"element": "Cl", "occu": 1}], "abc": [0.25496098, 0.58951781, 0.34272888], "xyz": [1.55479716379266, 6.58921505964176, 15.622347026513323], "label": "Cl", "properties": {}}, {"species": [{"element": "Cl", "occu": 1}], "abc": [0.75176304, 0.09963522, 0.37287455], "xyz": [4.58396454287472, 1.11365234596512, 16.996453924323486], "label": "Cl", "properties": {}}, {"species": [{"element": "Cl", "occu": 1}], "abc": [0.74150349, 0.914946, 0.2976198], "xyz": [4.52161478424765, 10.226622266016001, 13.56617451544057], "label": "Cl", "properties": {}}, {"species": [{"element": "Cl", "occu": 1}], "abc": [0.74567396, 0.25496022, 0.29634368], "xyz": [4.5468756232029195, 2.8497658471651204, 13.508006118638194], "label": "Cl", "properties": {}}, {"species": [{"element": "Cl", "occu": 1}], "abc": [0.79391037, 0.41379733, 0.37284046], "xyz": [4.841041895572929, 4.62513524141968, 16.994900026063924], "label": "Cl", "properties": {}}, {"species": [{"element": "Cl", "occu": 1}], "abc": [0.74901667, 0.09758058, 0.22776764], "xyz": [4.56721779237043, 1.09068702651168, 10.38215721269231], "label": "Cl", "properties": {}}, {"species": [{"element": "Cl", "occu": 1}], "abc": [0.74301799, 0.75379742, 0.36514651], "xyz": [4.53080832269367, 8.42541688737632, 16.64419261878432], "label": "Cl", "properties": {}}, {"species": [{"element": "Cl", "occu": 1}], "abc": [0.76979998, 0.75339457, 0.22489645], "xyz": [4.69411368005822, 8.42091411368272, 10.251281966465452], "label": "Cl", "properties": {}}, {"species": [{"element": "Cl", "occu": 1}], "abc": [0.76594888, 0.41621202, 0.22739728], "xyz": [4.6705449517319195, 4.652124946297921, 10.365275377567299], "label": "Cl", "properties": {}}, {"species": [{"element": "Cl", "occu": 1}], "abc": [0.76845415, 0.58906555, 0.2979242], "xyz": [4.68586529900855, 6.584160015752801, 13.580049746599586], "label": "Cl", "properties": {}}, {"species": [{"element": "Cl", "occu": 1}], "abc": [0.26020912, 0.85570981, 0.48635671], "xyz": [1.5868662886865599, 9.56452183647376, 22.16922397170995], "label": "Cl", "properties": {}}, {"species": [{"element": "Cl", "occu": 1}], "abc": [0.69561298, 0.60456205, 0.44587149], "xyz": [4.2417140405381, 6.7573689832168, 20.323817315916198], "label": "Cl", "properties": {}}, {"species": [{"element": "Cl", "occu": 1}], "abc": [0.7746722, 0.9256431, 0.44263244], "xyz": [4.7238665512706, 10.346186919057601, 20.17617419014218], "label": "Cl", "properties": {}}, {"species": [{"element": "Cl", "occu": 1}], "abc": [0.26955279, 0.01071037, 0.70222745], "xyz": [1.6436237908668698, 0.11971297575952, 32.00909393875279], "label": "Cl", "properties": {}}, {"species": [{"element": "Cl", "occu": 1}], "abc": [0.27468494, 0.67513997, 0.5576601], "xyz": [1.67508760570222, 7.5462392861211205, 25.419391575755512], "label": "Cl", "properties": {}}, {"species": [{"element": "Cl", "occu": 1}], "abc": [0.24373753, 0.8463453, 0.63506327], "xyz": [1.4864269712618499, 9.4598519363088, 28.947600761664223], "label": "Cl", "properties": {}}, {"species": [{"element": "Cl", "occu": 1}], "abc": [0.29714416, 0.18625395, 0.62714], "xyz": [1.8119094538647997, 2.0818155303192, 28.5864404371396], "label": "Cl", "properties": {}}, {"species": [{"element": "Cl", "occu": 1}], "abc": [0.19716766, 0.9970618, 0.55441898], "xyz": [1.2025018139219, 11.144454868892801, 25.271654094763036], "label": "Cl", "properties": {}}, {"species": [{"element": "Cl", "occu": 1}], "abc": [0.24350326, 0.68427724, 0.70237816], "xyz": [1.48495700060054, 7.64836925754304, 32.015963636807896], "label": "Cl", "properties": {}}, {"species": [{"element": "Cl", "occu": 1}], "abc": [0.24769631, 0.34511052, 0.70363893], "xyz": [1.5104376527044698, 3.85740243475392, 32.07343234636228], "label": "Cl", "properties": {}}, {"species": [{"element": "Cl", "occu": 1}], "abc": [0.25305724, 0.50069537, 0.62752197], "xyz": [1.54316620878012, 5.59642035631952, 28.603851481968142], "label": "Cl", "properties": {}}, {"species": [{"element": "Cl", "occu": 1}], "abc": [0.75666405, 0.01017201, 0.65750981], "xyz": [4.6138259653538105, 0.11369556668496, 29.97076413623748], "label": "Cl", "properties": {}}, {"species": [{"element": "Cl", "occu": 1}], "abc": [0.8077715, 0.2200578, 0.58454221], "xyz": [4.9255117166243, 2.4596511677088, 26.644738127306415], "label": "Cl", "properties": {}}, {"species": [{"element": "Cl", "occu": 1}], "abc": [0.71250172, 0.86337769, 0.58448818], "xyz": [4.34476082503484, 9.65022800092624, 26.642275319357925], "label": "Cl", "properties": {}}, {"species": [{"element": "Cl", "occu": 1}], "abc": [0.74596286, 0.68691981, 0.65665243], "xyz": [4.548747797164459, 7.67790604463376, 29.931682842902667], "label": "Cl", "properties": {}}, {"species": [{"element": "Cl", "occu": 1}], "abc": [0.75891582, 0.35674268, 0.65571492], "xyz": [4.62764504642078, 3.98741853019328, 29.888949045386607], "label": "Cl", "properties": {}}, {"species": [{"element": "Cl", "occu": 1}], "abc": [0.76050756, 0.74635357, 0.513935], "xyz": [4.637450556756519, 8.34221477254672, 23.4263039609359], "label": "Cl", "properties": {}}, {"species": [{"element": "Cl", "occu": 1}], "abc": [0.73086117, 0.52297157, 0.58241502], "xyz": [4.456621987996369, 5.845408037474721, 26.54777606104772], "label": "Cl", "properties": {}}, {"species": [{"element": "Cl", "occu": 1}], "abc": [0.26989309, 0.52234677, 0.91759333], "xyz": [1.64582977796077, 5.8384244629339195, 41.82595126058229], "label": "Cl", "properties": {}}, {"species": [{"element": "Cl", "occu": 1}], "abc": [0.27077281, 0.8455877, 0.77495138], "xyz": [1.6512766951150497, 9.451384016859201, 35.32401292542197], "label": "Cl", "properties": {}}, {"species": [{"element": "Cl", "occu": 1}], "abc": [0.26777456, 0.18347511, 0.77257459], "xyz": [1.6328251100657598, 2.05075561310256, 35.21567353427073], "label": "Cl", "properties": {}}, {"species": [{"element": "Cl", "occu": 1}], "abc": [0.24319492, 0.35685587, 0.84438721], "xyz": [1.48299305137092, 3.9886836883275203, 38.48905297787972], "label": "Cl", "properties": {}}, {"species": [{"element": "Cl", "occu": 1}], "abc": [0.25478686, 0.68677272, 0.84331147], "xyz": [1.5537603495494199, 7.6762619761651205, 38.440018348553174], "label": "Cl", "properties": {}}, {"species": [{"element": "Cl", "occu": 1}], "abc": [0.25061592, 0.50153429, 0.77224658], "xyz": [1.52828026733144, 5.605797213479841, 35.2007221066345], "label": "Cl", "properties": {}}, {"species": [{"element": "Cl", "occu": 1}], "abc": [0.19500456, 0.21920871, 0.91546149], "xyz": [1.1891129974173598, 2.45016063744816, 41.728777236948794], "label": "Cl", "properties": {}}, {"species": [{"element": "Cl", "occu": 1}], "abc": [0.28711564, 0.86305621, 0.9154382], "xyz": [1.7509329621191598, 9.64663472380816, 41.727715626785546], "label": "Cl", "properties": {}}, {"species": [{"element": "Cl", "occu": 1}], "abc": [0.24460144, 0.01014321, 0.84254034], "xyz": [1.49148066818416, 0.11337366056016, 38.40486852265418], "label": "Cl", "properties": {}}, {"species": [{"element": "Cl", "occu": 1}], "abc": [0.74797656, 0.50075053, 0.8725302], "xyz": [4.560978844743279, 5.59703689596688, 39.77187325303043], "label": "Cl", "properties": {}}, {"species": [{"element": "Cl", "occu": 1}], "abc": [0.75734442, 0.68426092, 0.79762366], "xyz": [4.6181471460212205, 7.64818684407232, 36.35746603285277], "label": "Cl", "properties": {}}, {"species": [{"element": "Cl", "occu": 1}], "abc": [0.75375001, 0.34505182, 0.79644793], "xyz": [4.596143087991769, 3.85674632747872, 36.30387363623454], "label": "Cl", "properties": {}}, {"species": [{"element": "Cl", "occu": 1}], "abc": [0.70718985, 0.18642775, 0.87281567], "xyz": [4.31219794701625, 2.083758144364, 39.784885612553964], "label": "Cl", "properties": {}}, {"species": [{"element": "Cl", "occu": 1}], "abc": [0.75035254, 0.50159115, 0.72778404], "xyz": [4.575466799950299, 5.6064327545304, 33.174020331283], "label": "Cl", "properties": {}}, {"species": [{"element": "Cl", "occu": 1}], "abc": [0.75677304, 0.84625016, 0.86498957], "xyz": [4.614704577149359, 9.458788528367359, 39.428154513429206], "label": "Cl", "properties": {}}, {"species": [{"element": "Cl", "occu": 1}], "abc": [0.72973637, 0.84557662, 0.72507019], "xyz": [4.44984601128117, 9.45126017241952, 33.05031699330371], "label": "Cl", "properties": {}}, {"species": [{"element": "Cl", "occu": 1}], "abc": [0.7337683, 0.18348295, 0.7275524], "xyz": [4.4742615511907, 2.0508432431032, 33.163461663261735], "label": "Cl", "properties": {}}, {"species": [{"element": "Cl", "occu": 1}], "abc": [0.73149381, 0.01055295, 0.79785321], "xyz": [4.46034838500405, 0.1179534458232, 36.367929434010954], "label": "Cl", "properties": {}}, {"species": [{"element": "Cl", "occu": 1}], "abc": [0.2393101, 0.74670307, 0.98603305], "xyz": [1.45940483209442, 8.34612123749872, 44.94558639677917], "label": "Cl", "properties": {}}, {"species": [{"element": "Cl", "occu": 1}], "abc": [0.8023069, 0.99749786, 0.94536036], "xyz": [4.892389878288659, 11.14932884058656, 43.09163444011361], "label": "Cl", "properties": {}}, {"species": [{"element": "Cl", "occu": 1}], "abc": [0.72535886, 0.67525661, 0.94236625], "xyz": [4.42311017004526, 7.547543005926561, 42.95515622603502], "label": "Cl", "properties": {}}]}, "formula": "(Li3YCl6)10.0(LiCl)12.0", "bandgap": 4.592}