{"miller": "001_0.72", "final_energy": -517.01104564, "sigma": 0.010525947210539864, "incar_parameters": {"SYSTEM": "unknown system", "LCOMPAT": false, "PREC": "normal", "ENMAX": 520.0, "ENAUG": 628.945, "EDIFF": 1e-05, "IALGO": 38, "IWAVPR": 11, "NBANDS": 446, "NBANDSLOW": -1, "NBANDSHIGH": -1, "NELECT": 744.0, "TURBO": 0, "IRESTART": 0, "NREBOOT": 0, "NMIN": 0, "EREF": 0.0, "ISMEAR": 0, "SIGMA": 0.05, "KSPACING": 0.5, "KGAMMA": true, "KBLOWUP": true, "LREAL": true, "ROPT": [-0.0005, -0.0005, -0.0005], "LMAXPAW": -100, "LMAXMIX": 4, "NLSPLINE": false, "ISTART": 0, "ICHARG": 2, "INIWAV": 1, "ISPIN": 1, "LNONCOLLINEAR": false, "MAGMOM": [0.6, 0.6, 0.6, 0.6, 0.6, 0.6, 0.6, 0.6, 0.6, 0.6, 0.6, 0.6, 0.6, 0.6, 0.6, 0.6, 0.6, 0.6, 0.6, 0.6, 0.6, 0.6, 0.6, 0.6, 0.6, 0.6, 0.6, 0.6, 0.6, 0.6, 0.6, 0.6, 0.6, 0.6, 0.6, 0.6, 0.6, 0.6, 0.6, 0.6, 0.6, 0.6, 0.6, 0.6, 0.6, 0.6, 0.6, 0.6, 0.6, 0.6, 0.6, 0.6, 0.6, 0.6, 0.6, 0.6, 0.6, 0.6, 0.6, 0.6, 0.6, 0.6, 0.6, 0.6, 0.6, 0.6, 0.6, 0.6, 0.6, 0.6, 0.6, 0.6, 0.6, 0.6, 0.6, 0.6, 0.6, 0.6, 0.6, 0.6, 0.6, 0.6, 0.6, 0.6, 0.6, 0.6, 0.6, 0.6, 0.6, 0.6, 0.6, 0.6, 0.6, 0.6, 0.6, 0.6, 0.6, 0.6, 0.6, 0.6, 0.6, 0.6, 0.6, 0.6, 0.6, 0.6, 0.6, 0.6, 0.6, 0.6, 0.6, 0.6, 0.6, 0.6, 0.6, 0.6, 0.6, 0.6, 0.6, 0.6], "NUPDOWN": -1.0, "LSORBIT": false, "SAXIS": [0.0, 0.0, 1.0], "LSPIRAL": false, "QSPIRAL": [0.0, 0.0, 0.0], "LZEROZ": false, "LASPH": false, "LMETAGGA": false, "NELM": 100, "NELMDL": -5, "NELMIN": 6, "ENINI": 520.0, "LDIAG": true, "LSUBROT": false, "WEIMIN": 0.001, "EBREAK": 1e-08, "DEPER": 0.3, "NRMM": 4, "TIME": 0.4, "AMIX": 0.4, "BMIX": 1.0, "AMIN": 0.1, "AMIX_MAG": 1.6, "BMIX_MAG": 1.0, "IMIX": 4, "MIXFIRST": false, "MAXMIX": -45, "WC": 100.0, "INIMIX": 1, "MIXPRE": 1, "MREMOVE": 5, "LDIPOL": false, "LMONO": false, "IDIPOL": 0, "EPSILON": 1.0, "DIPOL": [-100.0, -100.0, -100.0], "EFIELD": 0.0, "NGX": 36, "NGY": 64, "NGZ": 240, "NGXF": 72, "NGYF": 128, "NGZF": 480, "ADDGRID": false, "NSW": 150, "IBRION": 2, "MDALGO": 0, "ISIF": 3, "PSTRESS": 0.0, "EDIFFG": -0.01, "NFREE": 1, "POTIM": 0.5, "SMASS": -3.0, "SCALEE": 1.0, "TEBEG": 0.0001, "TEEND": 0.0001, "NBLOCK": 1, "KBLOCK": 150, "NPACO": 256, "APACO": 10.0, "ISYM": 0, "SYMPREC": 1e-05, "LORBIT": 11, "RWIGS": [-1.0, -1.0, -1.0], "NEDOS": 301, "EMIN": 10.0, "EMAX": -10.0, "EFERMI": 0.0, "NWRITE": 2, "LWAVE": false, "LDOWNSAMPLE": false, "LCHARG": false, "LPARD": false, "LVTOT": false, "LVHAR": false, "LELF": false, "LOPTICS": false, "STM": [0.0, 0.0, 0.0, 0.0, 0.0, 0.0, 0.0], "NPAR": 1, "NSIM": 4, "NBLK": -1, "LPLANE": true, "LSCALAPACK": true, "LSCAAWARE": false, "LSCALU": false, "LASYNC": false, "LORBITALREAL": false, "IDIOT": 3, "PHON_NSTRUCT": -1, "LMUSIC": false, "POMASS": [7.01, 88.906, 35.453], "DARWINR": [0.0, 0.0, 0.0], "DARWINV": [1.0, 1.0, 1.0], "LCORR": true, "GGA_COMPAT": true, "LBERRY": false, "ICORELEVEL": 0, "LDAU": false, "I_CONSTRAINED_M": 0, "GGA": "--", "VOSKOWN": 0, "LHFCALC": false, "PRECFOCK": "", "LSYMGRAD": false, "LHFONE": false, "LRHFCALC": false, "LTHOMAS": false, "LMODELHF": false, "LFOCKACE": false, "ENCUT4O": -1.0, "EXXOEP": 0, "FOURORBIT": 0, "AEXX": 0.0, "HFALPHA": 0.0, "MCALPHA": 0.0, "ALDAX": 1.0, "AGGAX": 1.0, "ALDAC": 1.0, "AGGAC": 1.0, "NKREDX": 1, "NKREDY": 1, "NKREDZ": 1, "SHIFTRED": false, "ODDONLY": false, "EVENONLY": false, "LMAXFOCK": 0, "NMAXFOCKAE": 0, "LFOCKAEDFT": false, "HFSCREEN": 0.0, "HFSCREENC": 0.0, "NBANDSGWLOW": 0, "LUSE_VDW": false, "Zab_VDW": -0.8491, "PARAM1": 0.1234, "PARAM2": 1.0, "PARAM3": 0.0, "MODEL_GW": 0, "MODEL_EPS0": 14.21643052, "MODEL_ALPHA": 1.0, "LEPSILON": false, "LRPA": false, "LNABLA": false, "LVEL": false, "CSHIFT": 0.1, "OMEGAMAX": -1.0, "DEG_THRESHOLD": 0.002, "RTIME": -0.1, "WPLASMAI": 0.0, "DFIELD": [0.0, 0.0, 0.0], "WPLASMA": [0.0, 0.0, 0.0, 0.0, 0.0, 0.0, 0.0, 0.0, 0.0], "NUCIND": false, "MAGPOS": [0.0, 0.0, 0.0], "LNICSALL": true, "ORBITALMAG": false, "LMAGBLOCH": false, "LCHIMAG": false, "LGAUGE": true, "MAGATOM": 0, "MAGDIPOL": [0.0, 0.0, 0.0], "AVECCONST": [0.0, 0.0, 0.0], "LFINITE_TEMPERATURE": false, "LADDER": false, "LRPAFORCE": false, "LFXC": false, "LHARTREE": true, "IBSE": 0, "KPOINT": [-1, 0, 0, 0], "LTCTC": false, "LTCTE": false, "LTETE": false, "LTRIPLET": false, "LFXCEPS": false, "LFXHEG": false, "NATURALO": 2, "LHOLEGF": false, "L2ORDER": false, "LDMP1": false, "LMP2LT": false, "LSMP2LT": false, "LGWLF": false, "ENCUTGW": -2.0, "ENCUTGWSOFT": -2.0, "ENCUTLF": -1.0, "LESF_SPLINES": false, "LMAXMP2": -1, "SCISSOR": 0.0, "NOMEGA": 0, "NOMEGAR": 0, "NBANDSGW": -1, "NBANDSO": -1, "NBANDSV": -1, "NELMGW": 1, "NELMHF": 1, "DIM": 3, "IESPILON": 4, "ANTIRES": 0, "OMEGAMIN": -30.0, "OMEGATL": -200.0, "OMEGAGRID": 0, "LSELFENERGY": false, "LSPECTRAL": false, "LSPECTRALGW": false, "LSINGLES": false, "LFERMIGW": false, "ODDONLYGW": false, "EVENONLYGW": false, "NKREDLFX": 1, "NKREDLFY": 1, "NKREDLFZ": 1, "MAXMEM": 2800, "TELESCOPE": 0, "NTAUPAR": -1, "NOMEGAPAR": -1, "DAMP_NEWTON": 0.80000001, "LAMBDA": 1.0, "OFIELD_KAPPA": 0.0, "OFIELD_K": [0.0, 0.0, 0.0], "OFIELD_Q6_NEAR": 0.0, "OFIELD_Q6_FAR": 0.0, "OFIELD_A": 0.0, "KPOINTS_OPT_MODE": 1, "LKPOINTS_OPT": false, "@module": "pymatgen.io.vasp.inputs", "@class": "Incar"}, "relaxed_structures": {"@module": "pymatgen.core.structure", "@class": "Structure", "charge": 0, "lattice": {"matrix": [[6.097585, 0.0, 0.0], [0.000256, 11.177296, 0.0], [0.0, 0.0, 41.71823703]], "a": 6.097585, "b": 11.177296002931657, "c": 41.71823703, "alpha": 90.0, "beta": 90.0, "gamma": 89.99868772200783, "volume": 2843.286104225496}, "sites": [{"species": [{"element": "Li", "occu": 1}], "abc": [0.97755233, 0.344561, 0.13311639], "xyz": [5.960796631739049, 3.851260287056, 5.553381110597922], "label": "Li", "properties": {}}, {"species": [{"element": "Li", "occu": 1}], "abc": [0.0021563, 0.51679853, 0.21017691], "xyz": [0.013280522959179997, 5.77641014217488, 8.768210149612976], "label": "Li", "properties": {}}, {"species": [{"element": "Li", "occu": 1}], "abc": [0.98445797, 0.02401868, 0.13403055], "xyz": [6.00282229978453, 0.26846389588928, 5.591518254161266], "label": "Li", "properties": {}}, {"species": [{"element": "Li", "occu": 1}], "abc": [0.48250064, 0.87728228, 0.06641729], "xyz": [2.9423132492180795, 9.80564371911488, 2.7708122471102485], "label": "Li", "properties": {}}, {"species": [{"element": "Li", "occu": 1}], "abc": [0.4742207, 0.47760384, 0.07486136], "xyz": [2.8917232935925394, 5.33831949041664, 3.123083960868161], "label": "Li", "properties": {}}, {"species": [{"element": "Li", "occu": 1}], "abc": [0.48532683, 0.04025868, 0.13630484], "xyz": [2.95933190492763, 0.44998318292927997, 5.686397623456226], "label": "Li", "properties": {}}, {"species": [{"element": "Li", "occu": 1}], "abc": [0.50430945, 0.51532256, 0.20827098], "xyz": [3.0752016602536103, 5.7599127885977595, 8.688698110110389], "label": "Li", "properties": {}}, {"species": [{"element": "Li", "occu": 1}], "abc": [0.51997899, 0.84975469, 0.21114836], "xyz": [3.17083362693979, 9.49795969751824, 8.80873733097577], "label": "Li", "properties": {}}, {"species": [{"element": "Li", "occu": 1}], "abc": [0.98832303, 0.4923534, 0.05206039], "xyz": [6.02650972535295, 5.5031796884064, 2.1718676898942415], "label": "Li", "properties": {}}, {"species": [{"element": "Li", "occu": 1}], "abc": [0.02238265, 0.84451649, 0.36684036], "xyz": [0.13669630712169, 9.43941078561104, 15.30393309065053], "label": "Li", "properties": {}}, {"species": [{"element": "Li", "occu": 1}], "abc": [0.01131201, 0.99225255, 0.4480299], "xyz": [0.06922995914865, 11.0907004581048, 18.691017564727193], "label": "Li", "properties": {}}, {"species": [{"element": "Li", "occu": 1}], "abc": [0.01476263, 0.52375848, 0.36586324], "xyz": [0.09015047341943, 5.85420356347008, 15.263169366883776], "label": "Li", "properties": {}}, {"species": [{"element": "Li", "occu": 1}], "abc": [0.47983944, 0.34985284, 0.28881781], "xyz": [2.92595133407944, 3.91040874912064, 12.048969856065504], "label": "Li", "properties": {}}, {"species": [{"element": "Li", "occu": 1}], "abc": [0.4953309, 0.01551861, 0.29168791], "xyz": [3.02032623864066, 0.17345609747856, 12.168705368165305], "label": "Li", "properties": {}}, {"species": [{"element": "Li", "occu": 1}], "abc": [0.51426019, 0.54025742, 0.36366184], "xyz": [3.13588352654067, 6.03861709953632, 15.171330839885934], "label": "Li", "properties": {}}, {"species": [{"element": "Li", "occu": 1}], "abc": [0.52549472, 0.97753484, 0.4251761], "xyz": [3.2044989711702394, 10.92619625699264, 17.73759731929098], "label": "Li", "properties": {}}, {"species": [{"element": "Li", "occu": 1}], "abc": [0.51742753, 0.37658093, 0.43338299], "xyz": [3.1551547502331294, 4.20915652256528, 18.07997430159012], "label": "Li", "properties": {}}, {"species": [{"element": "Li", "occu": 1}], "abc": [0.99769919, 0.01680603, 0.28981166], "xyz": [6.08355991779983, 0.18784597189488, 12.09043152593777], "label": "Li", "properties": {}}, {"species": [{"element": "Li", "occu": 1}], "abc": [0.02417929, 0.88082357, 0.63284023], "xyz": [0.14766076684857, 9.84522576566672, 26.400978717259715], "label": "Li", "properties": {}}, {"species": [{"element": "Li", "occu": 1}], "abc": [0.99942588, 0.70580708, 0.71028573], "xyz": [6.09426494111228, 7.88901465205568, 29.631868443166578], "label": "Li", "properties": {}}, {"species": [{"element": "Li", "occu": 1}], "abc": [0.01555152, 0.2017279, 0.63363689], "xyz": [0.09487835742159999, 2.2547724497584, 26.434213967972035], "label": "Li", "properties": {}}, {"species": [{"element": "Li", "occu": 1}], "abc": [0.51612559, 0.34849979, 0.56608472], "xyz": [3.1472088716463897, 3.8952853087678396, 23.61605652802118], "label": "Li", "properties": {}}, {"species": [{"element": "Li", "occu": 1}], "abc": [0.52624432, 0.74713712, 0.57365079], "xyz": [3.2090107390699196, 8.35097274282752, 23.93169962966675], "label": "Li", "properties": {}}, {"species": [{"element": "Li", "occu": 1}], "abc": [0.51512649, 0.18492543, 0.63618166], "xyz": [3.1410748994367297, 2.06696626903728, 26.540377286018867], "label": "Li", "properties": {}}, {"species": [{"element": "Li", "occu": 1}], "abc": [0.49657097, 0.71077701, 0.70794407], "xyz": [3.02806565702201, 7.94456503076496, 29.53417851624291], "label": "Li", "properties": {}}, {"species": [{"element": "Li", "occu": 1}], "abc": [0.47679214, 0.3750035, 0.71213026], "xyz": [2.9073766018778993, 4.191525120536, 29.708818982915528], "label": "Li", "properties": {}}, {"species": [{"element": "Li", "occu": 1}], "abc": [0.01200295, 0.73188768, 0.55190085], "xyz": [0.07337637112183, 8.180525238113281, 23.024330477358475], "label": "Li", "properties": {}}, {"species": [{"element": "Li", "occu": 1}], "abc": [0.98150825, 0.38034188, 0.86743691], "xyz": [5.9849273500975295, 4.25119377395648, 36.18793861995078], "label": "Li", "properties": {}}, {"species": [{"element": "Li", "occu": 1}], "abc": [0.98795879, 0.23192019, 0.94810368], "xyz": [6.024222070090789, 2.5922406120062402, 39.55321405125527], "label": "Li", "properties": {}}, {"species": [{"element": "Li", "occu": 1}], "abc": [0.98479466, 0.70167134, 0.86641701], "xyz": [6.00504877475914, 7.84278826189664, 36.14539019000388], "label": "Li", "properties": {}}, {"species": [{"element": "Li", "occu": 1}], "abc": [0.52312574, 0.87493945, 0.7878819], "xyz": [3.1900276498371, 9.7794572147272, 32.869043855846755], "label": "Li", "properties": {}}, {"species": [{"element": "Li", "occu": 1}], "abc": [0.50324457, 0.21072685, 0.79180749], "xyz": [3.06863048743705, 2.3553563775976, 33.03281254994935], "label": "Li", "properties": {}}, {"species": [{"element": "Li", "occu": 1}], "abc": [0.48579042, 0.6848911, 0.86396434], "xyz": [2.9623237102572997, 7.6552305524656, 36.04306912158751], "label": "Li", "properties": {}}, {"species": [{"element": "Li", "occu": 1}], "abc": [0.47405081, 0.24713106, 0.9263822], "xyz": [2.89062837384521, 2.7622570084137603, 38.64703219997286], "label": "Li", "properties": {}}, {"species": [{"element": "Li", "occu": 1}], "abc": [0.48419727, 0.84883322, 0.93390683], "xyz": [2.9526513118972697, 9.48766015457312, 38.96094649787591], "label": "Li", "properties": {}}, {"species": [{"element": "Li", "occu": 1}], "abc": [0.00061113, 0.2061051, 0.78987855], "xyz": [0.0037791800266499995, 2.3036977098096, 32.952340573812705], "label": "Li", "properties": {}}, {"species": [{"element": "Y", "occu": 1}], "abc": [0.01705135, 0.69531742, 0.13384763], "xyz": [0.10415005724927, 7.77176861729632, 5.5838871542437385], "label": "Y", "properties": {}}, {"species": [{"element": "Y", "occu": 1}], "abc": [0.99444052, 0.18226841, 0.21415536], "xyz": [6.06373225885716, 2.03726797001936, 8.93418406972498], "label": "Y", "properties": {}}, {"species": [{"element": "Y", "occu": 1}], "abc": [0.93951504, 0.16789954, 0.05139368], "xyz": [5.72881579746064, 1.8766628568438402, 2.14405372408397], "label": "Y", "properties": {}}, {"species": [{"element": "Y", "occu": 1}], "abc": [0.98256898, 0.19522548, 0.36610967], "xyz": [5.9913478516361796, 2.18209297670208, 15.27344999203508], "label": "Y", "properties": {}}, {"species": [{"element": "Y", "occu": 1}], "abc": [0.0596194, 0.66770234, 0.44849726], "xyz": [0.36370529094804, 7.463106694072639, 18.710514999985538], "label": "Y", "properties": {}}, {"species": [{"element": "Y", "occu": 1}], "abc": [0.00508455, 0.68230247, 0.28578559], "xyz": [0.03117814524407, 7.62629666872112, 11.922470983378396], "label": "Y", "properties": {}}, {"species": [{"element": "Y", "occu": 1}], "abc": [0.98346647, 0.53009777, 0.63356743], "xyz": [5.996906100504069, 5.92505968422992, 26.431316219227934], "label": "Y", "properties": {}}, {"species": [{"element": "Y", "occu": 1}], "abc": [0.0059768, 0.04296743, 0.71400076], "xyz": [0.03645504569008, 0.48025968346928, 29.786852945280142], "label": "Y", "properties": {}}, {"species": [{"element": "Y", "occu": 1}], "abc": [0.05951657, 0.05698688, 0.55122195], "xyz": [0.36292193312473, 0.63695922587648, 22.996007966238807], "label": "Y", "properties": {}}, {"species": [{"element": "Y", "occu": 1}], "abc": [0.01683448, 0.03001461, 0.86644077], "xyz": [0.10265735647095998, 0.33548218029456, 36.14638141531571], "label": "Y", "properties": {}}, {"species": [{"element": "Y", "occu": 1}], "abc": [0.94018263, 0.55726165, 0.94885211], "xyz": [5.732986160930949, 6.228678411498401, 39.58443723139563], "label": "Y", "properties": {}}, {"species": [{"element": "Y", "occu": 1}], "abc": [0.99364534, 0.54283, 0.78610688], "xyz": [6.0589758849839, 6.06737158768, 32.79499315075376], "label": "Y", "properties": {}}, {"species": [{"element": "Cl", "occu": 1}], "abc": [0.19090006, 0.34103809, 0.08179741], "xyz": [1.16411664810614, 3.8118836792046404, 3.4124437388200923], "label": "Cl", "properties": {}}, {"species": [{"element": "Cl", "occu": 1}], "abc": [0.23642126, 0.51708659, 0.1602349], "xyz": [1.44173110282414, 5.77962987406064, 6.684717538678347], "label": "Cl", "properties": {}}, {"species": [{"element": "Cl", "occu": 1}], "abc": [0.21801146, 0.18338408, 0.15958694], "xyz": [1.32939035464858, 2.04973814384768, 6.657685789812388], "label": "Cl", "properties": {}}, {"species": [{"element": "Cl", "occu": 1}], "abc": [0.15097414, 0.18055644, 0.99823943], "xyz": [0.92062387390054, 2.01813277458624, 41.64478915343209], "label": "Cl", "properties": {}}, {"species": [{"element": "Cl", "occu": 1}], "abc": [0.24989088, 0.86835374, 0.15937605], "xyz": [1.52395318008224, 9.70584678468704, 6.648887830805131], "label": "Cl", "properties": {}}, {"species": [{"element": "Cl", "occu": 1}], "abc": [0.26164169, 0.67663921, 0.08043847], "xyz": [1.5955556639564097, 7.562996735376161, 3.355751157790544], "label": "Cl", "properties": {}}, {"species": [{"element": "Cl", "occu": 1}], "abc": [0.21787919, 0.02039272, 0.08400274], "xyz": [1.3285421012924699, 0.22793546768512, 3.5044462184894623], "label": "Cl", "properties": {}}, {"species": [{"element": "Cl", "occu": 1}], "abc": [0.69783033, 0.35994465, 0.03941155], "xyz": [4.25517189858345, 4.0232078966664, 1.6441803846196963], "label": "Cl", "properties": {}}, {"species": [{"element": "Cl", "occu": 1}], "abc": [0.75295162, 0.6800049, 0.18542731], "xyz": [4.5913605850921, 7.600616048750401, 7.735700470415289], "label": "Cl", "properties": {}}, {"species": [{"element": "Cl", "occu": 1}], "abc": [0.73886775, 0.0206014, 0.18543768], "xyz": [4.50531418334215, 0.2302679458144, 7.73613308853329], "label": "Cl", "properties": {}}, {"species": [{"element": "Cl", "occu": 1}], "abc": [0.74484859, 0.85871052, 0.11093992], "xyz": [4.54199741954827, 9.59806166035392, 4.628217878649237], "label": "Cl", "properties": {}}, {"species": [{"element": "Cl", "occu": 1}], "abc": [0.69503241, 0.9962955, 0.03127613], "xyz": [4.23827424937785, 11.135889706968, 1.3047850047210938], "label": "Cl", "properties": {}}, {"species": [{"element": "Cl", "occu": 1}], "abc": [0.77482518, 0.52681969, 0.10742535], "xyz": [4.72469726103094, 5.88841961375824, 4.48159621433071], "label": "Cl", "properties": {}}, {"species": [{"element": "Cl", "occu": 1}], "abc": [0.74072679, 0.176866, 0.11028595], "xyz": [4.516689841498149, 1.976883634336, 4.6009354031787275], "label": "Cl", "properties": {}}, {"species": [{"element": "Cl", "occu": 1}], "abc": [0.76624736, 0.35666991, 0.18627603], "xyz": [4.67234971612256, 3.9866051583633597, 7.771107572547391], "label": "Cl", "properties": {}}, {"species": [{"element": "Cl", "occu": 1}], "abc": [0.2332584, 0.85672434, 0.31366956], "xyz": [1.42253224239504, 9.57586153858464, 13.085741053175807], "label": "Cl", "properties": {}}, {"species": [{"element": "Cl", "occu": 1}], "abc": [0.22491478, 0.02698712, 0.3926258], "xyz": [1.37144389750902, 0.30164302842752, 16.379656188493374], "label": "Cl", "properties": {}}, {"species": [{"element": "Cl", "occu": 1}], "abc": [0.25813985, 0.6768416, 0.38960125], "xyz": [1.57420294871185, 7.5652589083136, 16.253477294684288], "label": "Cl", "properties": {}}, {"species": [{"element": "Cl", "occu": 1}], "abc": [0.24438317, 0.0174829, 0.24071719], "xyz": [1.49015162726685, 0.19541154823839998, 10.042296789615545], "label": "Cl", "properties": {}}, {"species": [{"element": "Cl", "occu": 1}], "abc": [0.25471627, 0.67859724, 0.2339333], "xyz": [1.55332782810139, 7.58488221626304, 9.7592848586101], "label": "Cl", "properties": {}}, {"species": [{"element": "Cl", "occu": 1}], "abc": [0.25447259, 0.35889799, 0.38889866], "xyz": [1.55176012558059, 4.01150906803504, 16.22416647852938], "label": "Cl", "properties": {}}, {"species": [{"element": "Cl", "occu": 1}], "abc": [0.24672489, 0.17996272, 0.31453232], "xyz": [1.50447205884697, 2.01149659040512, 13.121733879355808], "label": "Cl", "properties": {}}, {"species": [{"element": "Cl", "occu": 1}], "abc": [0.26085487, 0.52068155, 0.31449419], "xyz": [1.59071803696575, 5.819811806088801, 13.120143162977856], "label": "Cl", "properties": {}}, {"species": [{"element": "Cl", "occu": 1}], "abc": [0.25411593, 0.35690151, 0.23577041], "xyz": [1.54958484981561, 3.98919382011696, 9.835925849040283], "label": "Cl", "properties": {}}, {"species": [{"element": "Cl", "occu": 1}], "abc": [0.74551378, 0.85701071, 0.2641896], "xyz": [4.54605303696306, 9.57906238084016, 11.021524353660888], "label": "Cl", "properties": {}}, {"species": [{"element": "Cl", "occu": 1}], "abc": [0.73741195, 0.17692267, 0.41951177], "xyz": [4.49647733734427, 1.97751705170032, 17.501291457734844], "label": "Cl", "properties": {}}, {"species": [{"element": "Cl", "occu": 1}], "abc": [0.78118195, 0.52037282, 0.41584929], "xyz": [4.76345655603267, 5.816361039494719, 17.348499248977205], "label": "Cl", "properties": {}}, {"species": [{"element": "Cl", "occu": 1}], "abc": [0.7449436, 0.178584, 0.26602642], "xyz": [4.5424026387100005, 1.996086228864, 11.098153245802331], "label": "Cl", "properties": {}}, {"species": [{"element": "Cl", "occu": 1}], "abc": [0.74961046, 0.36820697, 0.34057723], "xyz": [4.57090775772342, 4.1155582929531205, 14.208281608160826], "label": "Cl", "properties": {}}, {"species": [{"element": "Cl", "occu": 1}], "abc": [0.75513998, 0.51746378, 0.2592252], "xyz": [4.604662685675979, 5.78384583833888, 10.814418337749155], "label": "Cl", "properties": {}}, {"species": [{"element": "Cl", "occu": 1}], "abc": [0.76332574, 0.01706932, 0.33973019], "xyz": [4.654447952083819, 0.19078884215872, 14.172944592666934], "label": "Cl", "properties": {}}, {"species": [{"element": "Cl", "occu": 1}], "abc": [0.78128086, 0.68343243, 0.34030527], "xyz": [4.764101411425179, 7.63892656610928, 14.196935916418147], "label": "Cl", "properties": {}}, {"species": [{"element": "Cl", "occu": 1}], "abc": [0.80849646, 0.84124148, 0.41813534], "xyz": [4.930091244867979, 9.40280502943808, 17.44386922473964], "label": "Cl", "properties": {}}, {"species": [{"element": "Cl", "occu": 1}], "abc": [0.3044944, 0.49622128, 0.46853234], "xyz": [1.85680751867168, 5.54641212805888, 19.54634321634055], "label": "Cl", "properties": {}}, {"species": [{"element": "Cl", "occu": 1}], "abc": [0.30132845, 0.85962079, 0.46057498], "xyz": [1.83759589971549, 9.60823601758384, 19.21437618572751], "label": "Cl", "properties": {}}, {"species": [{"element": "Cl", "occu": 1}], "abc": [0.84903206, 0.68054156, 0.50171518], "xyz": [5.17721937221446, 7.60661445642176, 20.930672800789115], "label": "Cl", "properties": {}}, {"species": [{"element": "Cl", "occu": 1}], "abc": [0.8083408, 0.88346779, 0.581467], "xyz": [4.9291529047222395, 9.87478099529584, 24.257778131123008], "label": "Cl", "properties": {}}, {"species": [{"element": "Cl", "occu": 1}], "abc": [0.76461885, 0.7080278, 0.66006514], "xyz": [4.66250968559405, 7.9138362968288, 27.536753965760134], "label": "Cl", "properties": {}}, {"species": [{"element": "Cl", "occu": 1}], "abc": [0.78246969, 0.0417451, 0.65946566], "xyz": [4.771186131444249, 0.4665973392496, 27.511744717025387], "label": "Cl", "properties": {}}, {"species": [{"element": "Cl", "occu": 1}], "abc": [0.84957342, 0.04593289, 0.49793527], "xyz": [5.18035790101054, 0.51340550766544, 20.772981619457045], "label": "Cl", "properties": {}}, {"species": [{"element": "Cl", "occu": 1}], "abc": [0.75094226, 0.35704863, 0.65902044], "xyz": [4.579025664891379, 3.99083822390448, 27.493170923534894], "label": "Cl", "properties": {}}, {"species": [{"element": "Cl", "occu": 1}], "abc": [0.73952663, 0.54835151, 0.57999755], "xyz": [4.50946686417511, 6.129087139316961, 24.196475267719276], "label": "Cl", "properties": {}}, {"species": [{"element": "Cl", "occu": 1}], "abc": [0.78137701, 0.2045723, 0.58383725], "xyz": [4.76456510602965, 2.2865651505008002, 24.356660782443363], "label": "Cl", "properties": {}}, {"species": [{"element": "Cl", "occu": 1}], "abc": [0.30111555, 0.86513318, 0.53878843], "xyz": [1.83629913504083, 9.669849632281279, 22.477303431761563], "label": "Cl", "properties": {}}, {"species": [{"element": "Cl", "occu": 1}], "abc": [0.24615762, 0.5453147, 0.68536081], "xyz": [1.5011066119108998, 6.095143815051201, 28.592044722652794], "label": "Cl", "properties": {}}, {"species": [{"element": "Cl", "occu": 1}], "abc": [0.26194534, 0.20439558, 0.68540184], "xyz": [1.5972863012723801, 2.28458989875168, 28.593756421918137], "label": "Cl", "properties": {}}, {"species": [{"element": "Cl", "occu": 1}], "abc": [0.25551582, 0.36623018, 0.61081656], "xyz": [1.5581231862207798, 4.0934631259932805, 25.482190031929214], "label": "Cl", "properties": {}}, {"species": [{"element": "Cl", "occu": 1}], "abc": [0.3050824, 0.22817888, 0.5311765], "xyz": [1.8603242797972797, 2.55042288270848, 22.159747131765794], "label": "Cl", "properties": {}}, {"species": [{"element": "Cl", "occu": 1}], "abc": [0.2266395, 0.6982427, 0.60694687], "xyz": [1.3821323657387, 7.8044653377392, 25.320753387276596], "label": "Cl", "properties": {}}, {"species": [{"element": "Cl", "occu": 1}], "abc": [0.25873356, 0.04770468, 0.61011834], "xyz": [1.5776620868506797, 0.53320932894528, 25.45306152447013], "label": "Cl", "properties": {}}, {"species": [{"element": "Cl", "occu": 1}], "abc": [0.23413994, 0.86832872, 0.68628479], "xyz": [1.4279104781972198, 9.705567128741121, 28.630591539303772], "label": "Cl", "properties": {}}, {"species": [{"element": "Cl", "occu": 1}], "abc": [0.76602826, 0.36820534, 0.81381666], "xyz": [4.671016688319139, 4.11554007396064, 33.95099632084292], "label": "Cl", "properties": {}}, {"species": [{"element": "Cl", "occu": 1}], "abc": [0.77450032, 0.19817656, 0.89320854], "xyz": [4.72263226692656, 2.21507807138176, 37.263085588940235], "label": "Cl", "properties": {}}, {"species": [{"element": "Cl", "occu": 1}], "abc": [0.74216333, 0.54762683, 0.88992123], "xyz": [4.52554418102653, 6.12098717645168, 37.12594481116915], "label": "Cl", "properties": {}}, {"species": [{"element": "Cl", "occu": 1}], "abc": [0.75521304, 0.20719925, 0.74069821], "xyz": [4.6050287475164, 2.315927348228, 30.900623492476715], "label": "Cl", "properties": {}}, {"species": [{"element": "Cl", "occu": 1}], "abc": [0.74507345, 0.54631045, 0.73406781], "xyz": [4.54328854809345, 6.1062736075432005, 30.624014893673003], "label": "Cl", "properties": {}}, {"species": [{"element": "Cl", "occu": 1}], "abc": [0.74533298, 0.86609498, 0.88924336], "xyz": [4.54495291916818, 9.68059995557408, 37.09766526983362], "label": "Cl", "properties": {}}, {"species": [{"element": "Cl", "occu": 1}], "abc": [0.75392911, 0.04528802, 0.81468614], "xyz": [4.59715842593247, 0.50619760479392, 33.98726949357576], "label": "Cl", "properties": {}}, {"species": [{"element": "Cl", "occu": 1}], "abc": [0.73824786, 0.70450884, 0.81468167], "xyz": [4.501709431681139, 7.87450383929664, 33.98708301305624], "label": "Cl", "properties": {}}, {"species": [{"element": "Cl", "occu": 1}], "abc": [0.74721736, 0.86767465, 0.7357042], "xyz": [4.556443490786, 9.6982563947464, 30.692282199566524], "label": "Cl", "properties": {}}, {"species": [{"element": "Cl", "occu": 1}], "abc": [0.25268603, 0.36762668, 0.76433247], "xyz": [1.54086865866763, 4.10907221985728, 31.886603153185362], "label": "Cl", "properties": {}}, {"species": [{"element": "Cl", "occu": 1}], "abc": [0.26175352, 0.04834429, 0.91992225], "xyz": [1.59607671338744, 0.54035843923984, 38.37753447467092], "label": "Cl", "properties": {}}, {"species": [{"element": "Cl", "occu": 1}], "abc": [0.21908028, 0.70465554, 0.91626117], "xyz": [1.3360410209420397, 7.87614354861984, 38.224800671445124], "label": "Cl", "properties": {}}, {"species": [{"element": "Cl", "occu": 1}], "abc": [0.25476609, 0.04621912, 0.76600849], "xyz": [1.5534697209873698, 0.51660478509952, 31.956523752812384], "label": "Cl", "properties": {}}, {"species": [{"element": "Cl", "occu": 1}], "abc": [0.24949403, 0.85704985, 0.84101762], "xyz": [1.52153045967915, 9.5794998602056, 35.08577241756647], "label": "Cl", "properties": {}}, {"species": [{"element": "Cl", "occu": 1}], "abc": [0.24445211, 0.70702759, 0.75935532], "xyz": [1.4907485182173899, 7.90265665359664, 31.678965229751494], "label": "Cl", "properties": {}}, {"species": [{"element": "Cl", "occu": 1}], "abc": [0.23582125, 0.20811613, 0.83998094], "xyz": [1.43799339441053, 2.3261755873844803, 35.042523955602206], "label": "Cl", "properties": {}}, {"species": [{"element": "Cl", "occu": 1}], "abc": [0.21829295, 0.5418237, 0.84057227], "xyz": [1.33119852439295, 6.0561238747152, 35.067193200705155], "label": "Cl", "properties": {}}, {"species": [{"element": "Cl", "occu": 1}], "abc": [0.19243191, 0.38362406, 0.91872599], "xyz": [1.17346813569671, 4.28787967134176, 38.32762861644141], "label": "Cl", "properties": {}}, {"species": [{"element": "Cl", "occu": 1}], "abc": [0.69491189, 0.72851915, 0.96889708], "xyz": [4.23747081768805, 8.1428741812184, 40.42067804111487], "label": "Cl", "properties": {}}, {"species": [{"element": "Cl", "occu": 1}], "abc": [0.69913446, 0.36514636, 0.96127444], "xyz": [4.26312527374726, 4.08134894904256, 40.10267493880051], "label": "Cl", "properties": {}}, {"species": [{"element": "Cl", "occu": 1}], "abc": [0.15036275, 0.54590364, 0.00209522], "xyz": [0.9169894002905898, 6.101726571757441, 0.0874088845899966], "label": "Cl", "properties": {}}]}, "formula": "(Li3YCl6)12.0", "bandgap": 4.5898}