{"miller": "001_0.00", "final_energy": -632.23230741, "sigma": 0.015705438326824278, "incar_parameters": {"SYSTEM": "unknown system", "LCOMPAT": false, "PREC": "normal", "ENMAX": 520.0, "ENAUG": 628.945, "EDIFF": 1e-05, "IALGO": 38, "IWAVPR": 11, "NBANDS": 544, "NBANDSLOW": -1, "NBANDSHIGH": -1, "NELECT": 908.0, "TURBO": 0, "IRESTART": 0, "NREBOOT": 0, "NMIN": 0, "EREF": 0.0, "ISMEAR": 0, "SIGMA": 0.05, "KSPACING": 0.5, "KGAMMA": true, "KBLOWUP": true, "LREAL": true, "ROPT": [-0.0005, -0.0005, -0.0005], "LMAXPAW": -100, "LMAXMIX": 4, "NLSPLINE": false, "ISTART": 0, "ICHARG": 2, "INIWAV": 1, "ISPIN": 1, "LNONCOLLINEAR": false, "MAGMOM": [0.6, 0.6, 0.6, 0.6, 0.6, 0.6, 0.6, 0.6, 0.6, 0.6, 0.6, 0.6, 0.6, 0.6, 0.6, 0.6, 0.6, 0.6, 0.6, 0.6, 0.6, 0.6, 0.6, 0.6, 0.6, 0.6, 0.6, 0.6, 0.6, 0.6, 0.6, 0.6, 0.6, 0.6, 0.6, 0.6, 0.6, 0.6, 0.6, 0.6, 0.6, 0.6, 0.6, 0.6, 0.6, 0.6, 0.6, 0.6, 0.6, 0.6, 0.6, 0.6, 0.6, 0.6, 0.6, 0.6, 0.6, 0.6, 0.6, 0.6, 0.6, 0.6, 0.6, 0.6, 0.6, 0.6, 0.6, 0.6, 0.6, 0.6, 0.6, 0.6, 0.6, 0.6, 0.6, 0.6, 0.6, 0.6, 0.6, 0.6, 0.6, 0.6, 0.6, 0.6, 0.6, 0.6, 0.6, 0.6, 0.6, 0.6, 0.6, 0.6, 0.6, 0.6, 0.6, 0.6, 0.6, 0.6, 0.6, 0.6, 0.6, 0.6, 0.6, 0.6, 0.6, 0.6, 0.6, 0.6, 0.6, 0.6, 0.6, 0.6, 0.6, 0.6, 0.6, 0.6, 0.6, 0.6, 0.6, 0.6, 0.6, 0.6, 0.6, 0.6, 0.6, 0.6, 0.6, 0.6, 0.6, 0.6, 0.6, 0.6, 0.6, 0.6, 0.6, 0.6, 0.6, 0.6, 0.6, 0.6, 0.6, 0.6, 0.6, 0.6, 0.6, 0.6, 0.6, 0.6], "NUPDOWN": -1.0, "LSORBIT": false, "SAXIS": [0.0, 0.0, 1.0], "LSPIRAL": false, "QSPIRAL": [0.0, 0.0, 0.0], "LZEROZ": false, "LASPH": false, "LMETAGGA": false, "NELM": 100, "NELMDL": -5, "NELMIN": 6, "ENINI": 520.0, "LDIAG": true, "LSUBROT": false, "WEIMIN": 0.001, "EBREAK": 0.0, "DEPER": 0.3, "NRMM": 4, "TIME": 0.4, "AMIX": 0.4, "BMIX": 1.0, "AMIN": 0.1, "AMIX_MAG": 1.6, "BMIX_MAG": 1.0, "IMIX": 4, "MIXFIRST": false, "MAXMIX": -45, "WC": 100.0, "INIMIX": 1, "MIXPRE": 1, "MREMOVE": 5, "LDIPOL": false, "LMONO": false, "IDIPOL": 0, "EPSILON": 1.0, "DIPOL": [-100.0, -100.0, -100.0], "EFIELD": 0.0, "NGX": 36, "NGY": 64, "NGZ": 288, "NGXF": 72, "NGYF": 128, "NGZF": 576, "ADDGRID": false, "NSW": 150, "IBRION": 2, "MDALGO": 0, "ISIF": 3, "PSTRESS": 0.0, "EDIFFG": -0.01, "NFREE": 1, "POTIM": 0.5, "SMASS": -3.0, "SCALEE": 1.0, "TEBEG": 0.0001, "TEEND": 0.0001, "NBLOCK": 1, "KBLOCK": 150, "NPACO": 256, "APACO": 10.0, "ISYM": 0, "SYMPREC": 1e-05, "LORBIT": 11, "RWIGS": [-1.0, -1.0, -1.0], "NEDOS": 301, "EMIN": 10.0, "EMAX": -10.0, "EFERMI": 0.0, "NWRITE": 2, "LWAVE": false, "LDOWNSAMPLE": false, "LCHARG": false, "LPARD": false, "LVTOT": false, "LVHAR": false, "LELF": false, "LOPTICS": false, "STM": [0.0, 0.0, 0.0, 0.0, 0.0, 0.0, 0.0], "NPAR": 1, "NSIM": 4, "NBLK": -1, "LPLANE": true, "LSCALAPACK": true, "LSCAAWARE": false, "LSCALU": false, "LASYNC": false, "LORBITALREAL": false, "IDIOT": 3, "PHON_NSTRUCT": -1, "LMUSIC": false, "POMASS": [7.01, 88.906, 35.453], "DARWINR": [0.0, 0.0, 0.0], "DARWINV": [1.0, 1.0, 1.0], "LCORR": true, "GGA_COMPAT": true, "LBERRY": false, "ICORELEVEL": 0, "LDAU": false, "I_CONSTRAINED_M": 0, "GGA": "--", "VOSKOWN": 0, "LHFCALC": false, "PRECFOCK": "", "LSYMGRAD": false, "LHFONE": false, "LRHFCALC": false, "LTHOMAS": false, "LMODELHF": false, "LFOCKACE": false, "ENCUT4O": -1.0, "EXXOEP": 0, "FOURORBIT": 0, "AEXX": 0.0, "HFALPHA": 0.0, "MCALPHA": 0.0, "ALDAX": 1.0, "AGGAX": 1.0, "ALDAC": 1.0, "AGGAC": 1.0, "NKREDX": 1, "NKREDY": 1, "NKREDZ": 1, "SHIFTRED": false, "ODDONLY": false, "EVENONLY": false, "LMAXFOCK": 0, "NMAXFOCKAE": 0, "LFOCKAEDFT": false, "HFSCREEN": 0.0, "HFSCREENC": 0.0, "NBANDSGWLOW": 0, "LUSE_VDW": false, "Zab_VDW": -0.8491, "PARAM1": 0.1234, "PARAM2": 1.0, "PARAM3": 0.0, "MODEL_GW": 0, "MODEL_EPS0": 14.22216109, "MODEL_ALPHA": 1.0, "LEPSILON": false, "LRPA": false, "LNABLA": false, "LVEL": false, "CSHIFT": 0.1, "OMEGAMAX": -1.0, "DEG_THRESHOLD": 0.002, "RTIME": -0.1, "WPLASMAI": 0.0, "DFIELD": [0.0, 0.0, 0.0], "WPLASMA": [0.0, 0.0, 0.0, 0.0, 0.0, 0.0, 0.0, 0.0, 0.0], "NUCIND": false, "MAGPOS": [0.0, 0.0, 0.0], "LNICSALL": true, "ORBITALMAG": false, "LMAGBLOCH": false, "LCHIMAG": false, "LGAUGE": true, "MAGATOM": 0, "MAGDIPOL": [0.0, 0.0, 0.0], "AVECCONST": [0.0, 0.0, 0.0], "LFINITE_TEMPERATURE": false, "LADDER": false, "LRPAFORCE": false, "LFXC": false, "LHARTREE": true, "IBSE": 0, "KPOINT": [-1, 0, 0, 0], "LTCTC": false, "LTCTE": false, "LTETE": false, "LTRIPLET": false, "LFXCEPS": false, "LFXHEG": false, "NATURALO": 2, "LHOLEGF": false, "L2ORDER": false, "LDMP1": false, "LMP2LT": false, "LSMP2LT": false, "LGWLF": false, "ENCUTGW": -2.0, "ENCUTGWSOFT": -2.0, "ENCUTLF": -1.0, "LESF_SPLINES": false, "LMAXMP2": -1, "SCISSOR": 0.0, "NOMEGA": 0, "NOMEGAR": 0, "NBANDSGW": -1, "NBANDSO": -1, "NBANDSV": -1, "NELMGW": 1, "NELMHF": 1, "DIM": 3, "IESPILON": 4, "ANTIRES": 0, "OMEGAMIN": -30.0, "OMEGATL": -200.0, "OMEGAGRID": 0, "LSELFENERGY": false, "LSPECTRAL": false, "LSPECTRALGW": false, "LSINGLES": false, "LFERMIGW": false, "ODDONLYGW": false, "EVENONLYGW": false, "NKREDLFX": 1, "NKREDLFY": 1, "NKREDLFZ": 1, "MAXMEM": 2800, "TELESCOPE": 0, "NTAUPAR": -1, "NOMEGAPAR": -1, "DAMP_NEWTON": 0.80000001, "LAMBDA": 1.0, "OFIELD_KAPPA": 0.0, "OFIELD_K": [0.0, 0.0, 0.0], "OFIELD_Q6_NEAR": 0.0, "OFIELD_Q6_FAR": 0.0, "OFIELD_A": 0.0, "KPOINTS_OPT_MODE": 1, "LKPOINTS_OPT": false, "@module": "pymatgen.io.vasp.inputs", "@class": "Incar"}, "relaxed_structures": {"@module": "pymatgen.core.structure", "@class": "Structure", "charge": 0, "lattice": {"matrix": [[6.097585, 0.0, 0.0], [0.000256, 11.177296, 0.0], [0.0, 0.0, 51.47323257]], "a": 6.097585, "b": 11.177296002931657, "c": 51.47323257, "alpha": 90.0, "beta": 90.0, "gamma": 89.99868772200783, "volume": 3508.1330690125815}, "sites": [{"species": [{"element": "Li", "occu": 1}], "abc": [0.87593069, 0.12717333, 0.06169807], "xyz": [5.341094392756129, 1.42145395271568, 3.17579910623014], "label": "Li", "properties": {}}, {"species": [{"element": "Li", "occu": 1}], "abc": [0.99869508, 0.32864314, 0.12350655], "xyz": [6.08971227202564, 3.67334165414944, 6.357281372068334], "label": "Li", "properties": {}}, {"species": [{"element": "Li", "occu": 1}], "abc": [0.9397853, 0.8365032, 0.06244422], "xyz": [5.7306348933197, 9.3498438713472, 3.2142058587122455], "label": "Li", "properties": {}}, {"species": [{"element": "Li", "occu": 1}], "abc": [0.4881105, 0.16398904, 0.18712856], "xyz": [2.9763372443367397, 1.83295404083584, 9.632111889369199], "label": "Li", "properties": {}}, {"species": [{"element": "Li", "occu": 1}], "abc": [0.4348833, 0.33134389, 0.04186845], "xyz": [2.6518227108663397, 3.7035287363214398, 2.1551044641954165], "label": "Li", "properties": {}}, {"species": [{"element": "Li", "occu": 1}], "abc": [0.4831375, 0.85150777, 0.06747403], "xyz": [2.9461899589266194, 9.51755439158992, 3.4731064386251576], "label": "Li", "properties": {}}, {"species": [{"element": "Li", "occu": 1}], "abc": [0.5008603, 0.32926426, 0.1231685], "xyz": [3.0541225440260598, 3.68028409624096, 6.339880845798045], "label": "Li", "properties": {}}, {"species": [{"element": "Li", "occu": 1}], "abc": [0.50159987, 0.65620455, 0.12324504], "xyz": [3.0587158316787497, 7.3345924918968, 6.3438206070189525], "label": "Li", "properties": {}}, {"species": [{"element": "Li", "occu": 1}], "abc": [0.99830535, 0.82829863, 0.18775554], "xyz": [6.08746377202903, 9.25813896390448, 9.664384576725938], "label": "Li", "properties": {}}, {"species": [{"element": "Li", "occu": 1}], "abc": [0.99996761, 0.66415936, 0.25000529], "xyz": [6.0975575240180095, 7.42350575789056, 12.868580435900295], "label": "Li", "properties": {}}, {"species": [{"element": "Li", "occu": 1}], "abc": [0.00111442, 0.82826818, 0.31246855], "xyz": [0.00700730732978, 9.25779861524128, 16.083766344960676], "label": "Li", "properties": {}}, {"species": [{"element": "Li", "occu": 1}], "abc": [0.9997267, 0.33361359, 0.24999922], "xyz": [6.0960039350985396, 3.72889784505264, 12.868267993378595], "label": "Li", "properties": {}}, {"species": [{"element": "Li", "occu": 1}], "abc": [0.49826606, 0.65619857, 0.37682172], "xyz": [3.03838764029902, 7.334525651666721, 19.396232030987424], "label": "Li", "properties": {}}, {"species": [{"element": "Li", "occu": 1}], "abc": [0.49987456, 0.82449126, 0.18974863], "xyz": [3.04823868870016, 9.21558286243296, 9.766975361828878], "label": "Li", "properties": {}}, {"species": [{"element": "Li", "occu": 1}], "abc": [0.49949612, 0.34350209, 0.24998582], "xyz": [3.0458079854052396, 3.83942453654864, 12.867578252062158], "label": "Li", "properties": {}}, {"species": [{"element": "Li", "occu": 1}], "abc": [0.49994568, 0.82450772, 0.31025031], "xyz": [3.0486723531591196, 9.21576684072512, 15.969586361544595], "label": "Li", "properties": {}}, {"species": [{"element": "Li", "occu": 1}], "abc": [0.51235926, 0.16472709, 0.31245231], "xyz": [3.12419630852214, 1.84120344414864, 16.082930419663736], "label": "Li", "properties": {}}, {"species": [{"element": "Li", "occu": 1}], "abc": [0.00140864, 0.32886174, 0.37647165], "xyz": [0.008673490739839999, 3.6757850110550403, 19.37821279646164], "label": "Li", "properties": {}}, {"species": [{"element": "Li", "occu": 1}], "abc": [0.12572609, 0.12744722, 0.43834899], "xyz": [0.76665814698097, 1.42451530231712, 22.563239509094604], "label": "Li", "properties": {}}, {"species": [{"element": "Li", "occu": 1}], "abc": [0.06258974, 0.8383345, 0.43800843], "xyz": [0.3818608734099, 9.370312853511999, 22.545709785010565], "label": "Li", "properties": {}}, {"species": [{"element": "Li", "occu": 1}], "abc": [0.4988635, 0.32871096, 0.3768139], "xyz": [3.0419467446532598, 3.67409969836416, 19.395829510308722], "label": "Li", "properties": {}}, {"species": [{"element": "Li", "occu": 1}], "abc": [0.51884657, 0.85234262, 0.43260978], "xyz": [3.1639292622441695, 9.52688575715552, 22.267823817996536], "label": "Li", "properties": {}}, {"species": [{"element": "Li", "occu": 1}], "abc": [0.56529341, 0.33178873, 0.45795959], "xyz": [3.4470095553297297, 3.70850084467408, 23.57266048373185], "label": "Li", "properties": {}}, {"species": [{"element": "Li", "occu": 1}], "abc": [0.6267645, 0.84793043, 0.56199454], "xyz": [3.8219668839225793, 9.47756940351728, 28.92767566049017], "label": "Li", "properties": {}}, {"species": [{"element": "Li", "occu": 1}], "abc": [0.50130012, 0.6447375, 0.62384205], "xyz": [3.0568851450101997, 7.2064218798, 32.11116692659557], "label": "Li", "properties": {}}, {"species": [{"element": "Li", "occu": 1}], "abc": [0.56456201, 0.13748594, 0.56230125], "xyz": [3.4425000401464896, 1.53672104721824, 28.943463015651712], "label": "Li", "properties": {}}, {"species": [{"element": "Li", "occu": 1}], "abc": [0.0122101, 0.81240124, 0.68727223], "xyz": [0.07466009732593999, 9.08044913024704, 35.37612333369253], "label": "Li", "properties": {}}, {"species": [{"element": "Li", "occu": 1}], "abc": [0.06807887, 0.64512276, 0.54137585], "xyz": [0.41528184795550993, 7.21072804485696, 27.866365034831436], "label": "Li", "properties": {}}, {"species": [{"element": "Li", "occu": 1}], "abc": [0.01975807, 0.12500141, 0.56705246], "xyz": [0.12050851162191, 1.39717775998736, 29.188023152970622], "label": "Li", "properties": {}}, {"species": [{"element": "Li", "occu": 1}], "abc": [0.99965276, 0.64383108, 0.62298081], "xyz": [6.09563249534108, 7.19629055515968, 32.06683611977699], "label": "Li", "properties": {}}, {"species": [{"element": "Li", "occu": 1}], "abc": [0.99958372, 0.31822708, 0.62266717], "xyz": [6.095128163448679, 3.55691826837568, 32.05069205511373], "label": "Li", "properties": {}}, {"species": [{"element": "Li", "occu": 1}], "abc": [0.50258806, 0.14697894, 0.68771482], "xyz": [3.06461104244374, 1.64282711814624, 35.398904871695684], "label": "Li", "properties": {}}, {"species": [{"element": "Li", "occu": 1}], "abc": [0.50051418, 0.31199173, 0.74999439], "xyz": [3.0520076261381797, 3.48722391576208, 38.60463566266528], "label": "Li", "properties": {}}, {"species": [{"element": "Li", "occu": 1}], "abc": [0.49739221, 0.14692736, 0.81227438], "xyz": [3.03292889221701, 1.64225059321856, 41.810388072392556], "label": "Li", "properties": {}}, {"species": [{"element": "Li", "occu": 1}], "abc": [0.50047769, 0.64125, 0.7499999], "xyz": [3.0518694153786496, 7.16744106, 38.604919280176745], "label": "Li", "properties": {}}, {"species": [{"element": "Li", "occu": 1}], "abc": [0.00042381, 0.31820675, 0.87731104], "xyz": [0.0026656784268499997, 3.556691033948, 45.158035198148575], "label": "Li", "properties": {}}, {"species": [{"element": "Li", "occu": 1}], "abc": [0.00064169, 0.15221208, 0.68959613], "xyz": [0.00395172561113, 1.70131947293568, 35.49574197886195], "label": "Li", "properties": {}}, {"species": [{"element": "Li", "occu": 1}], "abc": [0.00011871, 0.63291506, 0.7499961], "xyz": [0.0008858705707099998, 7.07427896847776, 38.60472368189298], "label": "Li", "properties": {}}, {"species": [{"element": "Li", "occu": 1}], "abc": [0.9992433, 0.15211073, 0.81017781], "xyz": [6.09300989777738, 1.70018665398608, 41.70247083718327], "label": "Li", "properties": {}}, {"species": [{"element": "Li", "occu": 1}], "abc": [0.98786655, 0.81231947, 0.8127069], "xyz": [6.023808211066069, 9.079535162753121, 41.832651274943736], "label": "Li", "properties": {}}, {"species": [{"element": "Li", "occu": 1}], "abc": [0.4988015, 0.6447573, 0.87615178], "xyz": [3.0416496022463, 7.2066431902608, 45.09836433855948], "label": "Li", "properties": {}}, {"species": [{"element": "Li", "occu": 1}], "abc": [0.37333546, 0.84790272, 0.93800542], "xyz": [2.2766617639604196, 9.47725968064512, 48.282171135580526], "label": "Li", "properties": {}}, {"species": [{"element": "Li", "occu": 1}], "abc": [0.4354381, 0.13741052, 0.93765565], "xyz": [2.65515600408162, 1.5358780555539202, 48.26416734302452], "label": "Li", "properties": {}}, {"species": [{"element": "Li", "occu": 1}], "abc": [0.00053813, 0.64389489, 0.87707566], "xyz": [0.0034461305078900004, 7.19700377841744, 45.14591942866625], "label": "Li", "properties": {}}, {"species": [{"element": "Li", "occu": 1}], "abc": [0.98027477, 0.125003, 0.93295059], "xyz": [5.9773407341984495, 1.397195531888, 48.021982695388715], "label": "Li", "properties": {}}, {"species": [{"element": "Li", "occu": 1}], "abc": [0.93187468, 0.6430773, 0.95909941], "xyz": [5.6823496984365995, 7.1878653329808, 49.36794698867978], "label": "Li", "properties": {}}, {"species": [{"element": "Y", "occu": 1}], "abc": [0.00294331, 0.50680626, 0.06035004], "xyz": [0.018076825308910003, 5.664723582672959, 3.106411644528803], "label": "Y", "properties": {}}, {"species": [{"element": "Y", "occu": 1}], "abc": [0.99625498, 0.99182724, 0.12644532], "xyz": [6.07500332999674, 11.08594664234304, 6.508549363748072], "label": "Y", "properties": {}}, {"species": [{"element": "Y", "occu": 1}], "abc": [0.99843739, 0.49327517, 0.18574242], "xyz": [6.088183131146669, 5.51348258454032, 9.560762782774619], "label": "Y", "properties": {}}, {"species": [{"element": "Y", "occu": 1}], "abc": [0.99950069, 0.00567607, 0.25000838], "xyz": [6.094541867907569, 0.06344311450672001, 12.868739488188936], "label": "Y", "properties": {}}, {"species": [{"element": "Y", "occu": 1}], "abc": [0.00133359, 0.49340153, 0.314262], "xyz": [0.00825798917183, 5.51489494766288, 16.17608101391334], "label": "Y", "properties": {}}, {"species": [{"element": "Y", "occu": 1}], "abc": [0.00391916, 0.99197411, 0.37360438], "xyz": [0.024151356600759996, 11.08758825180656, 19.230625140910657], "label": "Y", "properties": {}}, {"species": [{"element": "Y", "occu": 1}], "abc": [0.99700415, 0.50757729, 0.43957883], "xyz": [6.079447489763989, 5.67334161320784, 22.626543349438492], "label": "Y", "properties": {}}, {"species": [{"element": "Y", "occu": 1}], "abc": [0.49865755, 0.46834361, 0.56018434], "xyz": [3.04072669298091, 5.23481515867856, 28.83449881489195], "label": "Y", "properties": {}}, {"species": [{"element": "Y", "occu": 1}], "abc": [0.50476363, 0.98276067, 0.62645978], "xyz": [3.07809072556507, 10.98460690574832, 32.24590995169103], "label": "Y", "properties": {}}, {"species": [{"element": "Y", "occu": 1}], "abc": [0.50208382, 0.48171714, 0.68581576], "xyz": [3.0616220891625394, 5.3842950620534396, 35.301154114651304], "label": "Y", "properties": {}}, {"species": [{"element": "Y", "occu": 1}], "abc": [0.49986101, 0.9694932, 0.74995033], "xyz": [3.0481931869200496, 10.8363124663872, 38.60236775203825], "label": "Y", "properties": {}}, {"species": [{"element": "Y", "occu": 1}], "abc": [0.4980102, 0.48172668, 0.81415675], "xyz": [3.0367828473970797, 5.3844016934572805, 41.90727974118535], "label": "Y", "properties": {}}, {"species": [{"element": "Y", "occu": 1}], "abc": [0.49510756, 0.98272208, 0.87349574], "xyz": [3.0192120080950797, 10.98417557389568, 44.96164937392425], "label": "Y", "properties": {}}, {"species": [{"element": "Y", "occu": 1}], "abc": [0.50077887, 0.46805943, 0.93974717], "xyz": [3.05366154924303, 5.23163879470128, 48.37182463840932], "label": "Y", "properties": {}}, {"species": [{"element": "Cl", "occu": 1}], "abc": [0.25300269, 0.33136934, 0.08337914], "xyz": [1.5427902380546896, 3.70381319850464, 4.29179386470659], "label": "Cl", "properties": {}}, {"species": [{"element": "Cl", "occu": 1}], "abc": [0.18609382, 0.99527237, 0.07946136], "xyz": [1.1349776751514198, 11.12445388011152, 4.090133063608495], "label": "Cl", "properties": {}}, {"species": [{"element": "Cl", "occu": 1}], "abc": [0.2447568, 0.82774184, 0.14797259], "xyz": [1.49263729423904, 9.25191555726464, 7.616627539055256], "label": "Cl", "properties": {}}, {"species": [{"element": "Cl", "occu": 1}], "abc": [0.24822403, 0.4883065, 0.1434487], "xyz": [1.5136921284315499, 5.457946289224, 7.38376829696416], "label": "Cl", "properties": {}}, {"species": [{"element": "Cl", "occu": 1}], "abc": [0.24856917, 0.68142627, 0.08146784], "xyz": [1.5158460875795698, 7.61650312196592, 4.193413075295549], "label": "Cl", "properties": {}}, {"species": [{"element": "Cl", "occu": 1}], "abc": [0.27034308, 0.48815294, 0.02236843], "xyz": [1.64856487661444, 5.4562299036502395, 1.1513753996157652], "label": "Cl", "properties": {}}, {"species": [{"element": "Cl", "occu": 1}], "abc": [0.25016665, 0.16731092, 0.14416369], "xyz": [1.5254552441357698, 1.8700836768723201, 7.420571143519384], "label": "Cl", "properties": {}}, {"species": [{"element": "Cl", "occu": 1}], "abc": [0.74286268, 0.66721611, 0.16762032], "xyz": [4.5298391419519595, 7.457671957438561, 8.627959714817822], "label": "Cl", "properties": {}}, {"species": [{"element": "Cl", "occu": 1}], "abc": [0.75104181, 0.48794114, 0.10394212], "xyz": [4.57966618796069, 5.45386255235744, 5.350236916578848], "label": "Cl", "properties": {}}, {"species": [{"element": "Cl", "occu": 1}], "abc": [0.73143225, 0.82904067, 0.10497954], "xyz": [4.46018255052777, 9.26643296462832, 5.403636277511618], "label": "Cl", "properties": {}}, {"species": [{"element": "Cl", "occu": 1}], "abc": [0.74899017, 0.98930663, 0.16852529], "xyz": [4.567284488236729, 11.05777303827248, 8.674541446096695], "label": "Cl", "properties": {}}, {"species": [{"element": "Cl", "occu": 1}], "abc": [0.76758607, 0.6730436, 0.04115789], "xyz": [4.68059360580255, 7.522807538105599, 2.1185296440604775], "label": "Cl", "properties": {}}, {"species": [{"element": "Cl", "occu": 1}], "abc": [0.75027599, 0.3270162, 0.16419673], "xyz": [4.57495533863135, 3.6551568641951997, 8.451736470523496], "label": "Cl", "properties": {}}, {"species": [{"element": "Cl", "occu": 1}], "abc": [0.80528563, 0.3109009, 0.04063364], "xyz": [4.91037716883395, 3.4750313859663997, 2.0915448018856546], "label": "Cl", "properties": {}}, {"species": [{"element": "Cl", "occu": 1}], "abc": [0.69638287, 0.97488873, 0.04191266], "xyz": [4.24650331388383, 10.89661990227408, 2.157380095807336], "label": "Cl", "properties": {}}, {"species": [{"element": "Cl", "occu": 1}], "abc": [0.7559917, 0.16668522, 0.10575809], "xyz": [4.60976632146082, 1.86309004276512, 5.443710762728991], "label": "Cl", "properties": {}}, {"species": [{"element": "Cl", "occu": 1}], "abc": [0.22998128, 0.66736367, 0.20761909], "xyz": [1.40250124830832, 7.4593212792363195, 10.686825705541763], "label": "Cl", "properties": {}}, {"species": [{"element": "Cl", "occu": 1}], "abc": [0.22988998, 0.83065762, 0.27172899], "xyz": [1.40198634204902, 9.28450609339552, 13.986769498281205], "label": "Cl", "properties": {}}, {"species": [{"element": "Cl", "occu": 1}], "abc": [0.23059802, 0.49363363, 0.27039233], "xyz": [1.4062173979909798, 5.51748919806448, 13.91796728723419], "label": "Cl", "properties": {}}, {"species": [{"element": "Cl", "occu": 1}], "abc": [0.24963078, 0.32711554, 0.33572465], "xyz": [1.5222286412445398, 3.65626721677984, 17.280832988931852], "label": "Cl", "properties": {}}, {"species": [{"element": "Cl", "occu": 1}], "abc": [0.25063998, 0.98936899, 0.33150975], "xyz": [1.5285518609097397, 11.05847005445104, 17.063878460972557], "label": "Cl", "properties": {}}, {"species": [{"element": "Cl", "occu": 1}], "abc": [0.24877333, 0.17568275, 0.27000966], "xyz": [1.5169615001920498, 1.963658098844, 13.898270025326626], "label": "Cl", "properties": {}}, {"species": [{"element": "Cl", "occu": 1}], "abc": [0.25518004, 0.99158674, 0.20790633], "xyz": [1.55623583040884, 11.08325850265504, 10.701610876865168], "label": "Cl", "properties": {}}, {"species": [{"element": "Cl", "occu": 1}], "abc": [0.25452224, 0.33212412, 0.2092018], "xyz": [1.55205601656512, 3.7122495979795205, 10.768292905462626], "label": "Cl", "properties": {}}, {"species": [{"element": "Cl", "occu": 1}], "abc": [0.25689534, 0.66727215, 0.33240404], "xyz": [1.5666119934243, 7.4582983331063994, 17.109910458127583], "label": "Cl", "properties": {}}, {"species": [{"element": "Cl", "occu": 1}], "abc": [0.75000544, 0.16728056, 0.35582606], "xyz": [4.57326474468576, 1.86974433416576, 18.315517540846773], "label": "Cl", "properties": {}}, {"species": [{"element": "Cl", "occu": 1}], "abc": [0.74392472, 0.99181352, 0.2921059], "xyz": [4.53639811806232, 11.08579328984192, 15.035634925769163], "label": "Cl", "properties": {}}, {"species": [{"element": "Cl", "occu": 1}], "abc": [0.74483136, 0.33230356, 0.29074289], "xyz": [4.54175759797696, 3.71425525197376, 14.965476395043925], "label": "Cl", "properties": {}}, {"species": [{"element": "Cl", "occu": 1}], "abc": [0.75153578, 0.48819588, 0.35650378], "xyz": [4.58267827723658, 5.45670985674048, 18.350401980024113], "label": "Cl", "properties": {}}, {"species": [{"element": "Cl", "occu": 1}], "abc": [0.75048193, 0.17559814, 0.22997843], "xyz": [4.57617231226289, 1.9627123878294401, 11.837733213473467], "label": "Cl", "properties": {}}, {"species": [{"element": "Cl", "occu": 1}], "abc": [0.75502176, 0.82795628, 0.35209787], "xyz": [4.60402131525728, 9.25431241661888, 18.123615549911626], "label": "Cl", "properties": {}}, {"species": [{"element": "Cl", "occu": 1}], "abc": [0.76925341, 0.83037888, 0.22833455], "xyz": [4.69080063100813, 9.28139053390848, 11.753117395916293], "label": "Cl", "properties": {}}, {"species": [{"element": "Cl", "occu": 1}], "abc": [0.76882481, 0.49348351, 0.22957256], "xyz": [4.68810096086241, 5.515811262388961, 11.81684177257028], "label": "Cl", "properties": {}}, {"species": [{"element": "Cl", "occu": 1}], "abc": [0.76973784, 0.66758796, 0.29241253], "xyz": [4.693712809634159, 7.46182823495616, 15.051418163072102], "label": "Cl", "properties": {}}, {"species": [{"element": "Cl", "occu": 1}], "abc": [0.24443756, 0.16692912, 0.39425812], "xyz": [1.4905215331473198, 1.8658161852595199, 20.29373990337097], "label": "Cl", "properties": {}}, {"species": [{"element": "Cl", "occu": 1}], "abc": [0.1948725, 0.31172811, 0.4593832], "xyz": [1.1883314353086598, 3.48427735699056, 23.645938292350824], "label": "Cl", "properties": {}}, {"species": [{"element": "Cl", "occu": 1}], "abc": [0.30676973, 0.9759667, 0.45828595], "xyz": [1.87080435157725, 10.9086686920432, 23.589459287913392], "label": "Cl", "properties": {}}, {"species": [{"element": "Cl", "occu": 1}], "abc": [0.23199974, 0.67367792, 0.45895017], "xyz": [1.41481059617542, 7.529897520504321, 23.623648838451036], "label": "Cl", "properties": {}}, {"species": [{"element": "Cl", "occu": 1}], "abc": [0.24921089, 0.48811983, 0.39601338], "xyz": [1.51970954337713, 5.45585982337968, 20.38408880957179], "label": "Cl", "properties": {}}, {"species": [{"element": "Cl", "occu": 1}], "abc": [0.26884185, 0.82958977, 0.39518332], "xyz": [1.6394984069133698, 9.27257041786192, 20.341362938144734], "label": "Cl", "properties": {}}, {"species": [{"element": "Cl", "occu": 1}], "abc": [0.72894413, 0.488977, 0.47748838], "xyz": [4.44492397103805, 5.465440666192, 24.577870433212535], "label": "Cl", "properties": {}}, {"species": [{"element": "Cl", "occu": 1}], "abc": [0.75123199, 0.68204204, 0.4184771], "xyz": [4.5808755165063895, 7.623385765523841, 21.540369093519146], "label": "Cl", "properties": {}}, {"species": [{"element": "Cl", "occu": 1}], "abc": [0.74754274, 0.33163819, 0.41657274], "xyz": [4.558290297659539, 3.70681821453424, 21.44234552834214], "label": "Cl", "properties": {}}, {"species": [{"element": "Cl", "occu": 1}], "abc": [0.8152934, 0.99604215, 0.42071221], "xyz": [4.971575793229399, 11.133057939026399, 21.65541743036868], "label": "Cl", "properties": {}}, {"species": [{"element": "Cl", "occu": 1}], "abc": [0.24776184, 0.64314845, 0.5832041], "xyz": [1.5109135251596, 7.1886605975912, 30.019400275077537], "label": "Cl", "properties": {}}, {"species": [{"element": "Cl", "occu": 1}], "abc": [0.31642732, 0.97965777, 0.57935599], "xyz": [1.9296932724113198, 10.94992487398992, 29.821325614092597], "label": "Cl", "properties": {}}, {"species": [{"element": "Cl", "occu": 1}], "abc": [0.2565437, 0.14691599, 0.64796904], "xyz": [1.56433462745794, 1.64212350736304, 33.353061094079635], "label": "Cl", "properties": {}}, {"species": [{"element": "Cl", "occu": 1}], "abc": [0.25243439, 0.48601778, 0.64345967], "xyz": [1.5393645704998298, 5.43236458832288, 33.120949243325455], "label": "Cl", "properties": {}}, {"species": [{"element": "Cl", "occu": 1}], "abc": [0.2538283, 0.29370258, 0.58146112], "xyz": [1.54781482251598, 3.28280067262368, 29.929683460172683], "label": "Cl", "properties": {}}, {"species": [{"element": "Cl", "occu": 1}], "abc": [0.22977304, 0.48588279, 0.52232748], "xyz": [1.40118502810264, 5.43085576513584, 26.885883855742023], "label": "Cl", "properties": {}}, {"species": [{"element": "Cl", "occu": 1}], "abc": [0.2505068, 0.80737127, 0.64412745], "xyz": [1.5276931931231197, 9.02422766668592, 33.15532203857105], "label": "Cl", "properties": {}}, {"species": [{"element": "Cl", "occu": 1}], "abc": [0.75709977, 0.30780179, 0.66754756], "xyz": [4.61655899831369, 3.4403917161598403, 34.36083080741603], "label": "Cl", "properties": {}}, {"species": [{"element": "Cl", "occu": 1}], "abc": [0.74942032, 0.48659329, 0.60388506], "xyz": [4.56977866980944, 5.43879723394384, 31.0839161389284], "label": "Cl", "properties": {}}, {"species": [{"element": "Cl", "occu": 1}], "abc": [0.77062611, 0.1453128, 0.6048343], "xyz": [4.69899540902115, 1.6242041781888, 31.132776590213155], "label": "Cl", "properties": {}}, {"species": [{"element": "Cl", "occu": 1}], "abc": [0.75177962, 0.98555338, 0.6685533], "xyz": [4.58429243588298, 11.01582185206048, 34.41259949634098], "label": "Cl", "properties": {}}, {"species": [{"element": "Cl", "occu": 1}], "abc": [0.73444349, 0.30172431, 0.54107475], "xyz": [4.478408849395009, 3.3724619232657598, 27.85086644450461], "label": "Cl", "properties": {}}, {"species": [{"element": "Cl", "occu": 1}], "abc": [0.75020886, 0.64763574, 0.66424864], "xyz": [4.574628086352539, 7.23881636615904, 34.191024731026204], "label": "Cl", "properties": {}}, {"species": [{"element": "Cl", "occu": 1}], "abc": [0.69618832, 0.6642931, 0.54046623], "xyz": [4.2452375162408, 7.4250006094576, 27.819543953021114], "label": "Cl", "properties": {}}, {"species": [{"element": "Cl", "occu": 1}], "abc": [0.80774156, 0.99931839, 0.54179543], "xyz": [4.92552864564044, 11.16967744327344, 27.887962173753152], "label": "Cl", "properties": {}}, {"species": [{"element": "Cl", "occu": 1}], "abc": [0.7451885, 0.80791796, 0.60585785], "xyz": [4.54405704677026, 9.03033818263616, 31.185462017410178], "label": "Cl", "properties": {}}, {"species": [{"element": "Cl", "occu": 1}], "abc": [0.27018877, 0.30768161, 0.70761533], "xyz": [1.64757775761261, 3.43904842872656, 36.4232484511873], "label": "Cl", "properties": {}}, {"species": [{"element": "Cl", "occu": 1}], "abc": [0.26950687, 0.14470593, 0.77162209], "xyz": [1.6433780926270298, 1.6174210125652801, 39.71788329471947], "label": "Cl", "properties": {}}, {"species": [{"element": "Cl", "occu": 1}], "abc": [0.26901056, 0.48129981, 0.77029736], "xyz": [1.6404379682489598, 5.37963044111376, 39.649695159337014], "label": "Cl", "properties": {}}, {"species": [{"element": "Cl", "occu": 1}], "abc": [0.24974674, 0.64751997, 0.83572201], "xyz": [1.5230177407352197, 7.23752237060112, 43.01731338459787], "label": "Cl", "properties": {}}, {"species": [{"element": "Cl", "occu": 1}], "abc": [0.24811256, 0.98557485, 0.83138642], "xyz": [1.5131397313292, 11.0160618286056, 42.7941465521997], "label": "Cl", "properties": {}}, {"species": [{"element": "Cl", "occu": 1}], "abc": [0.25109152, 0.7992915, 0.7700316], "xyz": [1.5312565046031998, 8.933917685784001, 39.63601563304921], "label": "Cl", "properties": {}}, {"species": [{"element": "Cl", "occu": 1}], "abc": [0.24423882, 0.98373699, 0.70788419], "xyz": [1.4895188019191399, 10.995519523379041, 36.43708754449607], "label": "Cl", "properties": {}}, {"species": [{"element": "Cl", "occu": 1}], "abc": [0.24589505, 0.6428789, 0.7092435], "xyz": [1.49953054545265, 7.1856477574544, 36.50705562426079], "label": "Cl", "properties": {}}, {"species": [{"element": "Cl", "occu": 1}], "abc": [0.24264364, 0.30785677, 0.83231762], "xyz": [1.47961903094252, 3.44100624389392, 42.842078426368886], "label": "Cl", "properties": {}}, {"species": [{"element": "Cl", "occu": 1}], "abc": [0.74964877, 0.8072647, 0.85589165], "xyz": [4.571253754983649, 9.0230365022512, 44.05550995517104], "label": "Cl", "properties": {}}, {"species": [{"element": "Cl", "occu": 1}], "abc": [0.75536364, 0.98362334, 0.79203223], "xyz": [4.60614580838444, 10.994249223688639, 40.76845917772573], "label": "Cl", "properties": {}}, {"species": [{"element": "Cl", "occu": 1}], "abc": [0.75481693, 0.64274714, 0.79074683], "xyz": [4.60272493338189, 7.18417503693344, 40.702295484580254], "label": "Cl", "properties": {}}, {"species": [{"element": "Cl", "occu": 1}], "abc": [0.74738883, 0.48610895, 0.85655145], "xyz": [4.55739136286675, 5.4333836223992, 44.08947199402073], "label": "Cl", "properties": {}}, {"species": [{"element": "Cl", "occu": 1}], "abc": [0.74906671, 0.79925538, 0.72994632], "xyz": [4.56770254427263, 8.93351396185248, 37.57269669297565], "label": "Cl", "properties": {}}, {"species": [{"element": "Cl", "occu": 1}], "abc": [0.74332056, 0.1468527, 0.85198896], "xyz": [4.5324978911388, 1.6414160962992002, 43.85462588515243], "label": "Cl", "properties": {}}, {"species": [{"element": "Cl", "occu": 1}], "abc": [0.73071762, 0.14456633, 0.72829096], "xyz": [4.45564980792818, 1.61586066204368, 37.48748996270857], "label": "Cl", "properties": {}}, {"species": [{"element": "Cl", "occu": 1}], "abc": [0.73142316, 0.48118878, 0.72966032], "xyz": [4.460038073396279, 5.37838942593888, 37.55797534846062], "label": "Cl", "properties": {}}, {"species": [{"element": "Cl", "occu": 1}], "abc": [0.72997, 0.30764494, 0.79234664], "xyz": [4.451132879554639, 3.43863855728224, 40.784642876778065], "label": "Cl", "properties": {}}, {"species": [{"element": "Cl", "occu": 1}], "abc": [0.25488325, 0.8077375, 0.89410244], "xyz": [1.55437906275125, 9.0283211278, 46.022342835524476], "label": "Cl", "properties": {}}, {"species": [{"element": "Cl", "occu": 1}], "abc": [0.30312514, 0.66397339, 0.95946354], "xyz": [1.8485012839747401, 7.42142711615344, 49.3866899368555], "label": "Cl", "properties": {}}, {"species": [{"element": "Cl", "occu": 1}], "abc": [0.19265193, 0.99932452, 0.95820399], "xyz": [1.17496734566617, 11.16974596009792, 49.321856826771956], "label": "Cl", "properties": {}}, {"species": [{"element": "Cl", "occu": 1}], "abc": [0.26405053, 0.30148417, 0.95874121], "xyz": [1.61014773091757, 3.36977780740432, 49.34950927677321], "label": "Cl", "properties": {}}, {"species": [{"element": "Cl", "occu": 1}], "abc": [0.250103, 0.48651182, 0.896076], "xyz": [1.52514884828092, 5.43788661963872, 46.12392834839532], "label": "Cl", "properties": {}}, {"species": [{"element": "Cl", "occu": 1}], "abc": [0.22907128, 0.1451617, 0.89511651], "xyz": [1.3968187622539998, 1.6225152887632002, 46.074540296476734], "label": "Cl", "properties": {}}, {"species": [{"element": "Cl", "occu": 1}], "abc": [0.76772509, 0.4843539, 0.97785657], "xyz": [4.68139298750605, 5.4137669090544005, 50.333438647712484], "label": "Cl", "properties": {}}, {"species": [{"element": "Cl", "occu": 1}], "abc": [0.74569261, 0.29358003, 0.91849635], "xyz": [4.54699922983453, 3.2814308949988797, 47.27797623824612], "label": "Cl", "properties": {}}, {"species": [{"element": "Cl", "occu": 1}], "abc": [0.75228592, 0.64290917, 0.91698325], "xyz": [4.587291926250719, 7.1859860942043206, 47.20009209004446], "label": "Cl", "properties": {}}, {"species": [{"element": "Cl", "occu": 1}], "abc": [0.68353048, 0.9796489, 0.92060216], "xyz": [4.1681359920092005, 10.9498257313744, 47.38636908612435], "label": "Cl", "properties": {}}]}, "formula": "(Li3YCl6)14.0(LiCl)4.0", "bandgap": 4.5375}