{"miller": "001_0.28", "final_energy": -520.10716241, "sigma": 0.0035942799617905983, "incar_parameters": {"SYSTEM": "unknown system", "LCOMPAT": false, "PREC": "normal", "ENMAX": 520.0, "ENAUG": 628.945, "EDIFF": 1e-05, "IALGO": 38, "IWAVPR": 11, "NBANDS": 444, "NBANDSLOW": -1, "NBANDSHIGH": -1, "NELECT": 740.0, "TURBO": 0, "IRESTART": 0, "NREBOOT": 0, "NMIN": 0, "EREF": 0.0, "ISMEAR": 0, "SIGMA": 0.05, "KSPACING": 0.5, "KGAMMA": true, "KBLOWUP": true, "LREAL": true, "ROPT": [-0.0005, -0.0005, -0.0005], "LMAXPAW": -100, "LMAXMIX": 4, "NLSPLINE": false, "ISTART": 0, "ICHARG": 2, "INIWAV": 1, "ISPIN": 1, "LNONCOLLINEAR": false, "MAGMOM": [0.6, 0.6, 0.6, 0.6, 0.6, 0.6, 0.6, 0.6, 0.6, 0.6, 0.6, 0.6, 0.6, 0.6, 0.6, 0.6, 0.6, 0.6, 0.6, 0.6, 0.6, 0.6, 0.6, 0.6, 0.6, 0.6, 0.6, 0.6, 0.6, 0.6, 0.6, 0.6, 0.6, 0.6, 0.6, 0.6, 0.6, 0.6, 0.6, 0.6, 0.6, 0.6, 0.6, 0.6, 0.6, 0.6, 0.6, 0.6, 0.6, 0.6, 0.6, 0.6, 0.6, 0.6, 0.6, 0.6, 0.6, 0.6, 0.6, 0.6, 0.6, 0.6, 0.6, 0.6, 0.6, 0.6, 0.6, 0.6, 0.6, 0.6, 0.6, 0.6, 0.6, 0.6, 0.6, 0.6, 0.6, 0.6, 0.6, 0.6, 0.6, 0.6, 0.6, 0.6, 0.6, 0.6, 0.6, 0.6, 0.6, 0.6, 0.6, 0.6, 0.6, 0.6, 0.6, 0.6, 0.6, 0.6, 0.6, 0.6, 0.6, 0.6, 0.6, 0.6, 0.6, 0.6, 0.6, 0.6, 0.6, 0.6, 0.6, 0.6, 0.6, 0.6, 0.6, 0.6, 0.6, 0.6, 0.6, 0.6, 0.6, 0.6, 0.6, 0.6], "NUPDOWN": -1.0, "LSORBIT": false, "SAXIS": [0.0, 0.0, 1.0], "LSPIRAL": false, "QSPIRAL": [0.0, 0.0, 0.0], "LZEROZ": false, "LASPH": false, "LMETAGGA": false, "NELM": 100, "NELMDL": -5, "NELMIN": 6, "ENINI": 520.0, "LDIAG": true, "LSUBROT": false, "WEIMIN": 0.001, "EBREAK": 1e-08, "DEPER": 0.3, "NRMM": 4, "TIME": 0.4, "AMIX": 0.4, "BMIX": 1.0, "AMIN": 0.1, "AMIX_MAG": 1.6, "BMIX_MAG": 1.0, "IMIX": 4, "MIXFIRST": false, "MAXMIX": -45, "WC": 100.0, "INIMIX": 1, "MIXPRE": 1, "MREMOVE": 5, "LDIPOL": false, "LMONO": false, "IDIPOL": 0, "EPSILON": 1.0, "DIPOL": [-100.0, -100.0, -100.0], "EFIELD": 0.0, "NGX": 36, "NGY": 64, "NGZ": 216, "NGXF": 72, "NGYF": 128, "NGZF": 432, "ADDGRID": false, "NSW": 150, "IBRION": 2, "MDALGO": 0, "ISIF": 3, "PSTRESS": 0.0, "EDIFFG": -0.01, "NFREE": 1, "POTIM": 0.5, "SMASS": -3.0, "SCALEE": 1.0, "TEBEG": 0.0001, "TEEND": 0.0001, "NBLOCK": 1, "KBLOCK": 150, "NPACO": 256, "APACO": 10.0, "ISYM": 0, "SYMPREC": 1e-05, "LORBIT": 11, "RWIGS": [-1.0, -1.0, -1.0], "NEDOS": 301, "EMIN": 10.0, "EMAX": -10.0, "EFERMI": 0.0, "NWRITE": 2, "LWAVE": false, "LDOWNSAMPLE": false, "LCHARG": false, "LPARD": false, "LVTOT": false, "LVHAR": false, "LELF": false, "LOPTICS": false, "STM": [0.0, 0.0, 0.0, 0.0, 0.0, 0.0, 0.0], "NPAR": 1, "NSIM": 4, "NBLK": -1, "LPLANE": true, "LSCALAPACK": true, "LSCAAWARE": false, "LSCALU": false, "LASYNC": false, "LORBITALREAL": false, "IDIOT": 3, "PHON_NSTRUCT": -1, "LMUSIC": false, "POMASS": [7.01, 88.906, 35.453], "DARWINR": [0.0, 0.0, 0.0], "DARWINV": [1.0, 1.0, 1.0], "LCORR": true, "GGA_COMPAT": true, "LBERRY": false, "ICORELEVEL": 0, "LDAU": false, "I_CONSTRAINED_M": 0, "GGA": "--", "VOSKOWN": 0, "LHFCALC": false, "PRECFOCK": "", "LSYMGRAD": false, "LHFONE": false, "LRHFCALC": false, "LTHOMAS": false, "LMODELHF": false, "LFOCKACE": false, "ENCUT4O": -1.0, "EXXOEP": 0, "FOURORBIT": 0, "AEXX": 0.0, "HFALPHA": 0.0, "MCALPHA": 0.0, "ALDAX": 1.0, "AGGAX": 1.0, "ALDAC": 1.0, "AGGAC": 1.0, "NKREDX": 1, "NKREDY": 1, "NKREDZ": 1, "SHIFTRED": false, "ODDONLY": false, "EVENONLY": false, "LMAXFOCK": 0, "NMAXFOCKAE": 0, "LFOCKAEDFT": false, "HFSCREEN": 0.0, "HFSCREENC": 0.0, "NBANDSGWLOW": 0, "LUSE_VDW": false, "Zab_VDW": -0.8491, "PARAM1": 0.1234, "PARAM2": 1.0, "PARAM3": 0.0, "MODEL_GW": 0, "MODEL_EPS0": 12.6895385, "MODEL_ALPHA": 1.0, "LEPSILON": false, "LRPA": false, "LNABLA": false, "LVEL": false, "CSHIFT": 0.1, "OMEGAMAX": -1.0, "DEG_THRESHOLD": 0.002, "RTIME": -0.1, "WPLASMAI": 0.0, "DFIELD": [0.0, 0.0, 0.0], "WPLASMA": [0.0, 0.0, 0.0, 0.0, 0.0, 0.0, 0.0, 0.0, 0.0], "NUCIND": false, "MAGPOS": [0.0, 0.0, 0.0], "LNICSALL": true, "ORBITALMAG": false, "LMAGBLOCH": false, "LCHIMAG": false, "LGAUGE": true, "MAGATOM": 0, "MAGDIPOL": [0.0, 0.0, 0.0], "AVECCONST": [0.0, 0.0, 0.0], "LFINITE_TEMPERATURE": false, "LADDER": false, "LRPAFORCE": false, "LFXC": false, "LHARTREE": true, "IBSE": 0, "KPOINT": [-1, 0, 0, 0], "LTCTC": false, "LTCTE": false, "LTETE": false, "LTRIPLET": false, "LFXCEPS": false, "LFXHEG": false, "NATURALO": 2, "LHOLEGF": false, "L2ORDER": false, "LDMP1": false, "LMP2LT": false, "LSMP2LT": false, "LGWLF": false, "ENCUTGW": -2.0, "ENCUTGWSOFT": -2.0, "ENCUTLF": -1.0, "LESF_SPLINES": false, "LMAXMP2": -1, "SCISSOR": 0.0, "NOMEGA": 0, "NOMEGAR": 0, "NBANDSGW": -1, "NBANDSO": -1, "NBANDSV": -1, "NELMGW": 1, "NELMHF": 1, "DIM": 3, "IESPILON": 4, "ANTIRES": 0, "OMEGAMIN": -30.0, "OMEGATL": -200.0, "OMEGAGRID": 0, "LSELFENERGY": false, "LSPECTRAL": false, "LSPECTRALGW": false, "LSINGLES": false, "LFERMIGW": false, "ODDONLYGW": false, "EVENONLYGW": false, "NKREDLFX": 1, "NKREDLFY": 1, "NKREDLFZ": 1, "MAXMEM": 2800, "TELESCOPE": 0, "NTAUPAR": -1, "NOMEGAPAR": -1, "DAMP_NEWTON": 0.80000001, "LAMBDA": 1.0, "OFIELD_KAPPA": 0.0, "OFIELD_K": [0.0, 0.0, 0.0], "OFIELD_Q6_NEAR": 0.0, "OFIELD_Q6_FAR": 0.0, "OFIELD_A": 0.0, "KPOINTS_OPT_MODE": 1, "LKPOINTS_OPT": false, "@module": "pymatgen.io.vasp.inputs", "@class": "Incar"}, "relaxed_structures": {"@module": "pymatgen.core.structure", "@class": "Structure", "charge": 0, "lattice": {"matrix": [[6.097585, 0.0, 0.0], [0.000256, 11.177296, 0.0], [0.0, 0.0, 38.47881131]], "a": 6.097585, "b": 11.177296002931657, "c": 38.47881131, "alpha": 90.0, "beta": 90.0, "gamma": 89.99868772200783, "volume": 2622.504623725176}, "sites": [{"species": [{"element": "Li", "occu": 1}], "abc": [0.99413813, 0.04021077, 0.99876755], "xyz": [6.061852043373169, 0.44944767867792, 38.43138809900098], "label": "Li", "properties": {}}, {"species": [{"element": "Li", "occu": 1}], "abc": [0.00499007, 0.20572904, 0.07782253], "xyz": [0.03048004261519, 2.29949437587584, 2.994518447536814], "label": "Li", "properties": {}}, {"species": [{"element": "Li", "occu": 1}], "abc": [0.01062566, 0.53137902, 0.07483038], "xyz": [0.06492689806022, 5.93938059472992, 2.879384072275598], "label": "Li", "properties": {}}, {"species": [{"element": "Li", "occu": 1}], "abc": [0.49885256, 0.03114644, 0.16403568], "xyz": [3.04180386055624, 0.34813297922624004, 6.31189797882754], "label": "Li", "properties": {}}, {"species": [{"element": "Li", "occu": 1}], "abc": [0.50116489, 0.69088425, 0.16909706], "xyz": [3.05607238215865, 7.722217763988, 6.506653864815748], "label": "Li", "properties": {}}, {"species": [{"element": "Li", "occu": 1}], "abc": [0.51265103, 0.68467573, 0.9987989], "xyz": [3.12610850774943, 7.652823298226081, 38.43259440973556], "label": "Li", "properties": {}}, {"species": [{"element": "Li", "occu": 1}], "abc": [0.49963242, 0.21078347, 0.07552791], "xyz": [3.0466051102740197, 2.35598923609712, 2.9062241975286622], "label": "Li", "properties": {}}, {"species": [{"element": "Li", "occu": 1}], "abc": [0.5154007, 0.52133474, 0.07492213], "xyz": [3.14283303900294, 5.82711270406304, 2.88291450321329], "label": "Li", "properties": {}}, {"species": [{"element": "Li", "occu": 1}], "abc": [0.9996782, 0.69747464, 0.16668773], "xyz": [6.095801350654839, 7.79588050377344, 6.413945710362226], "label": "Li", "properties": {}}, {"species": [{"element": "Li", "occu": 1}], "abc": [0.00075511, 0.53105666, 0.24999929], "xyz": [0.00474029791431, 5.9357774815913595, 9.61967550754397], "label": "Li", "properties": {}}, {"species": [{"element": "Li", "occu": 1}], "abc": [0.00189342, 0.69711808, 0.33332213], "xyz": [0.011723751619179998, 7.79189512711168, 12.82583934571729], "label": "Li", "properties": {}}, {"species": [{"element": "Li", "occu": 1}], "abc": [9.169e-05, 0.19559654, 0.249993], "xyz": [0.0006091602828899999, 2.18624042415584, 9.619433475820829], "label": "Li", "properties": {}}, {"species": [{"element": "Li", "occu": 1}], "abc": [0.48454037, 0.52132717, 0.42508193], "xyz": [2.95465955176197, 5.82702809193232, 16.356647375760627], "label": "Li", "properties": {}}, {"species": [{"element": "Li", "occu": 1}], "abc": [0.50005438, 0.21105491, 0.42450598], "xyz": [3.04917811672926, 2.3590232013233603, 16.334485504386635], "label": "Li", "properties": {}}, {"species": [{"element": "Li", "occu": 1}], "abc": [0.50048754, 0.2035058, 0.24999284], "xyz": [3.0518174140756993, 2.2746445643168, 9.61942731921102], "label": "Li", "properties": {}}, {"species": [{"element": "Li", "occu": 1}], "abc": [0.49914778, 0.69095243, 0.33094615], "xyz": [3.04377289993338, 7.72297983202928, 12.734414459620956], "label": "Li", "properties": {}}, {"species": [{"element": "Li", "occu": 1}], "abc": [0.50111662, 0.03113988, 0.33595766], "xyz": [3.05560915717198, 0.34805965616448004, 12.927251407289134], "label": "Li", "properties": {}}, {"species": [{"element": "Li", "occu": 1}], "abc": [0.99496417, 0.20572952, 0.42218344], "xyz": [6.06693126528657, 2.29949974097792, 16.245116925966705], "label": "Li", "properties": {}}, {"species": [{"element": "Li", "occu": 1}], "abc": [0.00578583, 0.0401988, 0.50122571], "xyz": [0.03528988111334999, 0.4493138864448, 19.28656951881078], "label": "Li", "properties": {}}, {"species": [{"element": "Li", "occu": 1}], "abc": [0.98928433, 0.53140856, 0.42516932], "xyz": [6.03238133193441, 5.93971077205376, 16.360010039081008], "label": "Li", "properties": {}}, {"species": [{"element": "Li", "occu": 1}], "abc": [0.48629789, 0.68447128, 0.50128104], "xyz": [2.9654179442433297, 7.65053810005888, 19.28869855144056], "label": "Li", "properties": {}}, {"species": [{"element": "Li", "occu": 1}], "abc": [0.50522259, 0.03483693, 0.49861896], "xyz": [3.08064660469923, 0.38938267834128004, 19.186264877428435], "label": "Li", "properties": {}}, {"species": [{"element": "Li", "occu": 1}], "abc": [0.49503965, 0.86908413, 0.57775165], "xyz": [3.01876882978253, 9.71401056991248, 22.231196724391157], "label": "Li", "properties": {}}, {"species": [{"element": "Li", "occu": 1}], "abc": [0.49062311, 0.54212061, 0.57502043], "xyz": [2.99175489906551, 6.05944252567056, 22.126102625365064], "label": "Li", "properties": {}}, {"species": [{"element": "Li", "occu": 1}], "abc": [0.00213533, 0.04371108, 0.66323545], "xyz": [0.01303154621453, 0.48857167963968, 25.520511734652935], "label": "Li", "properties": {}}, {"species": [{"element": "Li", "occu": 1}], "abc": [0.99766611, 0.38551626, 0.66958518], "xyz": [6.083452599506909, 4.30902935083296, 25.764841797192386], "label": "Li", "properties": {}}, {"species": [{"element": "Li", "occu": 1}], "abc": [0.9869954, 0.39285549, 0.49882693], "xyz": [6.018388917114439, 4.391062096955039, 19.194267315816578], "label": "Li", "properties": {}}, {"species": [{"element": "Li", "occu": 1}], "abc": [0.99965896, 0.86325779, 0.57593275], "xyz": [6.09572647360584, 9.64888784313584, 22.1612076144994], "label": "Li", "properties": {}}, {"species": [{"element": "Li", "occu": 1}], "abc": [0.98574546, 0.55387274, 0.5750576], "xyz": [6.010808522135539, 6.19079956131104, 22.127532882781452], "label": "Li", "properties": {}}, {"species": [{"element": "Li", "occu": 1}], "abc": [0.49954601, 0.37532481, 0.66668275], "xyz": [3.0461203405372097, 4.1951164975137605, 25.6531597408819], "label": "Li", "properties": {}}, {"species": [{"element": "Li", "occu": 1}], "abc": [0.49948595, 0.54631952, 0.75000914], "xyz": [3.04579789422787, 6.1063749856179195, 28.85946017883537], "label": "Li", "properties": {}}, {"species": [{"element": "Li", "occu": 1}], "abc": [0.50041465, 0.3753666, 0.83332544], "xyz": [3.0514169574698498, 4.1955835967136, 32.065372365582725], "label": "Li", "properties": {}}, {"species": [{"element": "Li", "occu": 1}], "abc": [0.49992627, 0.88055258, 0.75001416], "xyz": [3.04856834651843, 9.842196830223681, 28.859653342468146], "label": "Li", "properties": {}}, {"species": [{"element": "Li", "occu": 1}], "abc": [0.01413741, 0.55389558, 0.92495314], "xyz": [0.08634585642333, 6.191054850751681, 35.591097344652006], "label": "Li", "properties": {}}, {"species": [{"element": "Li", "occu": 1}], "abc": [0.9997706, 0.8634137, 0.92411909], "xyz": [6.0964072479082, 9.6506304953552, 35.55900409207891], "label": "Li", "properties": {}}, {"species": [{"element": "Li", "occu": 1}], "abc": [0.99948142, 0.8743464, 0.74998292], "xyz": [6.094646747049099, 9.7728285193344, 28.858451264402824], "label": "Li", "properties": {}}, {"species": [{"element": "Li", "occu": 1}], "abc": [0.00233049, 0.38533417, 0.83038325], "xyz": [0.01430900641417, 4.30699407700432, 31.952160391734555], "label": "Li", "properties": {}}, {"species": [{"element": "Li", "occu": 1}], "abc": [0.99831129, 0.04389796, 0.83670723], "xyz": [6.08729918511241, 0.49066049271616, 32.19549962488277], "label": "Li", "properties": {}}, {"species": [{"element": "Li", "occu": 1}], "abc": [0.50473683, 0.86901046, 0.92222955], "xyz": [3.07789819023331, 9.71318713851616, 35.48629683895621], "label": "Li", "properties": {}}, {"species": [{"element": "Li", "occu": 1}], "abc": [0.49471036, 0.03491799, 0.00137001], "xyz": [3.01654740948604, 0.39028870995504006, 0.0527163562828131], "label": "Li", "properties": {}}, {"species": [{"element": "Li", "occu": 1}], "abc": [0.50930633, 0.54216088, 0.92500253], "xyz": [3.10567743139833, 6.059892635380479, 35.59299781314261], "label": "Li", "properties": {}}, {"species": [{"element": "Li", "occu": 1}], "abc": [0.01251592, 0.39267297, 0.00117007], "xyz": [0.07641741033352, 4.38902201688912, 0.0450229027494917], "label": "Li", "properties": {}}, {"species": [{"element": "Y", "occu": 1}], "abc": [0.00450876, 0.86653349, 0.08338182], "xyz": [0.027714379918039996, 9.68550131164304, 3.2084333184643836], "label": "Y", "properties": {}}, {"species": [{"element": "Y", "occu": 1}], "abc": [0.99729467, 0.35581148, 0.16536412], "xyz": [6.081180108110829, 3.9770102321580802, 6.363014770924197], "label": "Y", "properties": {}}, {"species": [{"element": "Y", "occu": 1}], "abc": [0.00019323, 0.87043631, 0.25000969], "xyz": [0.0014010680449099999, 9.72912428601776, 9.620075687181593], "label": "Y", "properties": {}}, {"species": [{"element": "Y", "occu": 1}], "abc": [0.00276129, 0.35582209, 0.33462974], "xyz": [0.016928290939689998, 3.97712882326864, 12.876154624174358], "label": "Y", "properties": {}}, {"species": [{"element": "Y", "occu": 1}], "abc": [0.99544004, 0.86654024, 0.41661133], "xyz": [6.07000209060484, 9.68557675839104, 16.03070875667814], "label": "Y", "properties": {}}, {"species": [{"element": "Y", "occu": 1}], "abc": [0.49631184, 0.20816387, 0.58327423], "xyz": [3.02635692085712, 2.32670919149552, 22.44369903815554], "label": "Y", "properties": {}}, {"species": [{"element": "Y", "occu": 1}], "abc": [0.50185229, 0.71893073, 0.66540136], "xyz": [3.0602710419865295, 8.03570157270608, 25.603853376857383], "label": "Y", "properties": {}}, {"species": [{"element": "Y", "occu": 1}], "abc": [0.49990167, 0.20515308, 0.74999884], "xyz": [3.04824544365543, 2.2930567004716798, 28.85906384707888], "label": "Y", "properties": {}}, {"species": [{"element": "Y", "occu": 1}], "abc": [0.49803022, 0.71889724, 0.83460905], "xyz": [3.03696563671214, 8.03532724506304, 32.114764152568355], "label": "Y", "properties": {}}, {"species": [{"element": "Y", "occu": 1}], "abc": [0.50362341, 0.20816412, 0.91672643], "xyz": [3.07093984047957, 2.32671198581952, 35.27454332285992], "label": "Y", "properties": {}}, {"species": [{"element": "Cl", "occu": 1}], "abc": [0.23095439, 0.53295719, 0.19319103], "xyz": [1.40840046118879, 5.95702026795824, 7.4337611901545495], "label": "Cl", "properties": {}}, {"species": [{"element": "Cl", "occu": 1}], "abc": [0.24046508, 0.195698, 0.02707048], "xyz": [1.4663063635198, 2.187374472608, 1.0416398919911287], "label": "Cl", "properties": {}}, {"species": [{"element": "Cl", "occu": 1}], "abc": [0.23988472, 0.87615633, 0.02647419], "xyz": [1.4629417664216797, 9.79305864268368, 1.0186953615950889], "label": "Cl", "properties": {}}, {"species": [{"element": "Cl", "occu": 1}], "abc": [0.23768647, 0.69309949, 0.11257844], "xyz": [1.44949088764439, 7.746978157179041, 4.3318845503341565], "label": "Cl", "properties": {}}, {"species": [{"element": "Cl", "occu": 1}], "abc": [0.24569195, 0.36455841, 0.10824625], "xyz": [1.49822087589371, 4.07477725785936, 4.165187028765088], "label": "Cl", "properties": {}}, {"species": [{"element": "Cl", "occu": 1}], "abc": [0.26493666, 0.53701909, 0.02920084], "xyz": [1.6156112808531398, 6.002421326580641, 1.1236136124535003], "label": "Cl", "properties": {}}, {"species": [{"element": "Cl", "occu": 1}], "abc": [0.25469801, 0.85585846, 0.19353436], "xyz": [1.55326186507161, 9.56618334152416, 7.446972120441611], "label": "Cl", "properties": {}}, {"species": [{"element": "Cl", "occu": 1}], "abc": [0.25618882, 0.19653606, 0.19590988], "xyz": [1.56218341923106, 2.19674171729376, 7.538379306284742], "label": "Cl", "properties": {}}, {"species": [{"element": "Cl", "occu": 1}], "abc": [0.24786529, 0.04023829, 0.10988665], "xyz": [1.51138997532689, 0.44975527786384006, 4.228307670838011], "label": "Cl", "properties": {}}, {"species": [{"element": "Cl", "occu": 1}], "abc": [0.75369944, 0.53319306, 0.13897171], "xyz": [4.595882897275759, 5.95965665676576, 5.34746620651804], "label": "Cl", "properties": {}}, {"species": [{"element": "Cl", "occu": 1}], "abc": [0.76648483, 0.36731476, 0.05595847], "xyz": [4.67380043471411, 4.10558579768896, 2.1532154083262958], "label": "Cl", "properties": {}}, {"species": [{"element": "Cl", "occu": 1}], "abc": [0.75564018, 0.69342576, 0.05709043], "xyz": [4.607757743959859, 7.75062497354496, 2.196771883576763], "label": "Cl", "properties": {}}, {"species": [{"element": "Cl", "occu": 1}], "abc": [0.7494839, 0.85728234, 0.14023828], "xyz": [4.570261250660539, 9.58209846975264, 5.396202314558947], "label": "Cl", "properties": {}}, {"species": [{"element": "Cl", "occu": 1}], "abc": [0.75222851, 0.04068116, 0.22297322], "xyz": [4.586787693525309, 0.45470536694336, 8.579744459563118], "label": "Cl", "properties": {}}, {"species": [{"element": "Cl", "occu": 1}], "abc": [0.74739195, 0.19626201, 0.13484836], "xyz": [4.55733618651531, 2.19367857932496, 5.1888045999029515], "label": "Cl", "properties": {}}, {"species": [{"element": "Cl", "occu": 1}], "abc": [0.76895034, 0.69599828, 0.22078204], "xyz": [4.688918234488579, 7.779378791050879, 8.495430457796873], "label": "Cl", "properties": {}}, {"species": [{"element": "Cl", "occu": 1}], "abc": [0.76744114, 0.35935371, 0.22330427], "xyz": [4.67962957819666, 4.01660278536816, 8.592482870047293], "label": "Cl", "properties": {}}, {"species": [{"element": "Cl", "occu": 1}], "abc": [0.75615163, 0.03926443, 0.05489893], "xyz": [4.610708888507629, 0.43887015638128, 2.112445568590898], "label": "Cl", "properties": {}}, {"species": [{"element": "Cl", "occu": 1}], "abc": [0.24389382, 0.03931419, 0.44510762], "xyz": [1.48717336285734, 0.43942633863024, 17.12721212262318], "label": "Cl", "properties": {}}, {"species": [{"element": "Cl", "occu": 1}], "abc": [0.23198715, 0.69594957, 0.27916137], "xyz": [1.4147395291226699, 7.77883434496272, 10.741797681271095], "label": "Cl", "properties": {}}, {"species": [{"element": "Cl", "occu": 1}], "abc": [0.23276252, 0.35935513, 0.27669464], "xyz": [1.41938124542748, 4.01661865712848, 10.646880843048377], "label": "Cl", "properties": {}}, {"species": [{"element": "Cl", "occu": 1}], "abc": [0.25270772, 0.19625838, 0.36516063], "xyz": [1.54095704500148, 2.19363800574048, 14.050946979610725], "label": "Cl", "properties": {}}, {"species": [{"element": "Cl", "occu": 1}], "abc": [0.25088116, 0.85730085, 0.35976758], "xyz": [1.5299886670162, 9.5823053615016, 13.843428826275328], "label": "Cl", "properties": {}}, {"species": [{"element": "Cl", "occu": 1}], "abc": [0.24791314, 0.04080905, 0.27703054], "xyz": [1.5116818908837, 0.4561348313288, 10.659805875767406], "label": "Cl", "properties": {}}, {"species": [{"element": "Cl", "occu": 1}], "abc": [0.23337325, 0.36738128, 0.44403602], "xyz": [1.42310727820893, 4.10632931141888, 17.085978228423386], "label": "Cl", "properties": {}}, {"species": [{"element": "Cl", "occu": 1}], "abc": [0.24433674, 0.69344296, 0.44290303], "xyz": [1.4900415621706598, 7.750817223036161, 17.042382119997267], "label": "Cl", "properties": {}}, {"species": [{"element": "Cl", "occu": 1}], "abc": [0.24653605, 0.53320162, 0.36103587], "xyz": [1.5034110200539699, 5.9597523344195205, 13.892231117871688], "label": "Cl", "properties": {}}, {"species": [{"element": "Cl", "occu": 1}], "abc": [0.75230847, 0.04025105, 0.39008934], "xyz": [4.5872751463137496, 0.44989790016079995, 15.010174107902435], "label": "Cl", "properties": {}}, {"species": [{"element": "Cl", "occu": 1}], "abc": [0.74586799, 0.85586089, 0.30647046], "xyz": [4.54821256819199, 9.56621050235344, 11.792619002428902], "label": "Cl", "properties": {}}, {"species": [{"element": "Cl", "occu": 1}], "abc": [0.74392962, 0.19652325, 0.30409799], "xyz": [4.536224401919699, 2.196598536132, 11.701329176960266], "label": "Cl", "properties": {}}, {"species": [{"element": "Cl", "occu": 1}], "abc": [0.75433475, 0.36457155, 0.39174632], "xyz": [4.59971358689555, 4.0749241275288, 15.073932728666877], "label": "Cl", "properties": {}}, {"species": [{"element": "Cl", "occu": 1}], "abc": [0.73489849, 0.53714237, 0.47080271], "xyz": [4.481243517593369, 6.00379926363152, 18.11592864232665], "label": "Cl", "properties": {}}, {"species": [{"element": "Cl", "occu": 1}], "abc": [0.76239434, 0.69309238, 0.38741041], "xyz": [4.648941723318179, 7.74689868660448, 14.907092065919736], "label": "Cl", "properties": {}}, {"species": [{"element": "Cl", "occu": 1}], "abc": [0.75950365, 0.19574101, 0.4729267], "xyz": [4.63118817338381, 2.1878552081089597, 18.197657252760976], "label": "Cl", "properties": {}}, {"species": [{"element": "Cl", "occu": 1}], "abc": [0.76026443, 0.87622901, 0.47351843], "xyz": [4.636001299028109, 9.79387100855696, 18.22042631977744], "label": "Cl", "properties": {}}, {"species": [{"element": "Cl", "occu": 1}], "abc": [0.76937824, 0.53298442, 0.30679036], "xyz": [4.69148565956192, 5.9573246257283206, 11.80492837416697], "label": "Cl", "properties": {}}, {"species": [{"element": "Cl", "occu": 1}], "abc": [0.26821295, 0.54198444, 0.69328369], "xyz": [1.6355900087423898, 6.05792051327424, 26.67673229181053], "label": "Cl", "properties": {}}, {"species": [{"element": "Cl", "occu": 1}], "abc": [0.25914015, 0.87883109, 0.52705035], "xyz": [1.58035407229679, 9.82295522693264, 20.280270968519456], "label": "Cl", "properties": {}}, {"species": [{"element": "Cl", "occu": 1}], "abc": [0.26090216, 0.19832645, 0.52646104], "xyz": [1.5909238688547997, 2.2167534362792, 20.25759502022636], "label": "Cl", "properties": {}}, {"species": [{"element": "Cl", "occu": 1}], "abc": [0.2626592, 0.38131869, 0.61250642], "xyz": [1.6016844156166399, 4.26211186846224, 23.56851896134361], "label": "Cl", "properties": {}}, {"species": [{"element": "Cl", "occu": 1}], "abc": [0.25297645, 0.7103087, 0.60832712], "xyz": [1.54272724590045, 7.9393305912752, 23.407704465235724], "label": "Cl", "properties": {}}, {"species": [{"element": "Cl", "occu": 1}], "abc": [0.23573039, 0.53810227, 0.5292683], "xyz": [1.43752384428927, 6.01452835006192, 20.365615048064473], "label": "Cl", "properties": {}}, {"species": [{"element": "Cl", "occu": 1}], "abc": [0.24418809, 0.21934478, 0.69367402], "xyz": [1.4890137870263298, 2.45168153211488, 26.691751726229164], "label": "Cl", "properties": {}}, {"species": [{"element": "Cl", "occu": 1}], "abc": [0.24342071, 0.87870103, 0.69585566], "xyz": [1.48450341744903, 9.82150150781488, 26.775698640135513], "label": "Cl", "properties": {}}, {"species": [{"element": "Cl", "occu": 1}], "abc": [0.25218625, 0.0344651, 0.60982683], "xyz": [1.5377359182718497, 0.3852266243696, 23.46541152334545], "label": "Cl", "properties": {}}, {"species": [{"element": "Cl", "occu": 1}], "abc": [0.74502187, 0.54118768, 0.63901056], "xyz": [4.542972723230029, 6.04901489091328, 24.588366763337433], "label": "Cl", "properties": {}}, {"species": [{"element": "Cl", "occu": 1}], "abc": [0.7332286, 0.7072805, 0.55610866], "xyz": [4.471104776739, 7.905483503528, 21.398400195996945], "label": "Cl", "properties": {}}, {"species": [{"element": "Cl", "occu": 1}], "abc": [0.74554663, 0.38111302, 0.55707776], "xyz": [4.5461315128216695, 4.25981303399392, 21.435690012037462], "label": "Cl", "properties": {}}, {"species": [{"element": "Cl", "occu": 1}], "abc": [0.75069424, 0.21721633, 0.64022986], "xyz": [4.577477544790879, 2.42789121644368, 24.635283977967717], "label": "Cl", "properties": {}}, {"species": [{"element": "Cl", "occu": 1}], "abc": [0.74752046, 0.03478486, 0.72300751], "xyz": [4.5580784490132595, 0.38880067653856, 27.820469553002933], "label": "Cl", "properties": {}}, {"species": [{"element": "Cl", "occu": 1}], "abc": [0.75167626, 0.87849978, 0.63477705], "xyz": [4.58363478377578, 9.81925207699488, 24.42546633086843], "label": "Cl", "properties": {}}, {"species": [{"element": "Cl", "occu": 1}], "abc": [0.73058079, 0.37956062, 0.72067807], "xyz": [4.45487563391087, 4.2424613996835205, 27.730835470784967], "label": "Cl", "properties": {}}, {"species": [{"element": "Cl", "occu": 1}], "abc": [0.73244777, 0.71623691, 0.72322031], "xyz": [4.46634589228441, 8.00559194919536, 27.828657844049705], "label": "Cl", "properties": {}}, {"species": [{"element": "Cl", "occu": 1}], "abc": [0.744404, 0.03534277, 0.55483405], "xyz": [4.539075712089119, 0.39503660174992006, 21.3493547183131], "label": "Cl", "properties": {}}, {"species": [{"element": "Cl", "occu": 1}], "abc": [0.25541849, 0.03539593, 0.94516804], "xyz": [1.55744501470473, 0.39563078680528, 36.36894266740253], "label": "Cl", "properties": {}}, {"species": [{"element": "Cl", "occu": 1}], "abc": [0.26927628, 0.3796072, 0.77930623], "xyz": [1.642032185227, 4.2429820381312, 29.98677737687746], "label": "Cl", "properties": {}}, {"species": [{"element": "Cl", "occu": 1}], "abc": [0.26733012, 0.71620481, 0.77679416], "xyz": [1.63025147819156, 8.00523315799376, 29.890115909349948], "label": "Cl", "properties": {}}, {"species": [{"element": "Cl", "occu": 1}], "abc": [0.24815251, 0.87851506, 0.86520171], "xyz": [1.5133559225437099, 9.81942286607776, 33.29193334417934], "label": "Cl", "properties": {}}, {"species": [{"element": "Cl", "occu": 1}], "abc": [0.24919067, 0.21725951, 0.85975666], "xyz": [1.5195169099665098, 2.42837385208496, 33.08241429265582], "label": "Cl", "properties": {}}, {"species": [{"element": "Cl", "occu": 1}], "abc": [0.25231691, 0.03479236, 0.77701345], "xyz": [1.53853271250651, 0.38888450625856, 29.898553927882116], "label": "Cl", "properties": {}}, {"species": [{"element": "Cl", "occu": 1}], "abc": [0.26659949, 0.70741377, 0.94385036], "xyz": [1.6257941491567698, 7.906973101765921, 36.31823990731557], "label": "Cl", "properties": {}}, {"species": [{"element": "Cl", "occu": 1}], "abc": [0.25433754, 0.38111619, 0.94292101], "xyz": [1.5509423345855398, 4.25984846602224, 36.28247962402462], "label": "Cl", "properties": {}}, {"species": [{"element": "Cl", "occu": 1}], "abc": [0.2549449, 0.54117508, 0.86101205], "xyz": [1.5546867388869796, 6.0488740569836805, 33.130720207586286], "label": "Cl", "properties": {}}, {"species": [{"element": "Cl", "occu": 1}], "abc": [0.74782697, 0.03450847, 0.89017151], "xyz": [4.55994734903577, 0.38571138369712, 34.25274156682778], "label": "Cl", "properties": {}}, {"species": [{"element": "Cl", "occu": 1}], "abc": [0.75572865, 0.21933663, 0.80631224], "xyz": [4.6081758304875295, 2.45159043715248, 31.025936539903434], "label": "Cl", "properties": {}}, {"species": [{"element": "Cl", "occu": 1}], "abc": [0.75636988, 0.87867993, 0.80415083], "xyz": [4.61225457680188, 9.82126566686928, 30.942768052349884], "label": "Cl", "properties": {}}, {"species": [{"element": "Cl", "occu": 1}], "abc": [0.74695669, 0.71031309, 0.89167839], "xyz": [4.55481374874469, 7.93937965960464, 34.31072451801459], "label": "Cl", "properties": {}}, {"species": [{"element": "Cl", "occu": 1}], "abc": [0.764011, 0.5381523, 0.97073382], "xyz": [4.6587597804238, 6.015087550180801, 37.3526834920155], "label": "Cl", "properties": {}}, {"species": [{"element": "Cl", "occu": 1}], "abc": [0.73727124, 0.3812388, 0.88747721], "xyz": [4.4956716510882, 4.2612189142848, 34.14906810551524], "label": "Cl", "properties": {}}, {"species": [{"element": "Cl", "occu": 1}], "abc": [0.74071423, 0.87894582, 0.97295725], "xyz": [4.51679298826447, 9.82423759810272, 37.43823843544649], "label": "Cl", "properties": {}}, {"species": [{"element": "Cl", "occu": 1}], "abc": [0.73903419, 0.19836864, 0.97353672], "xyz": [4.50637457380299, 2.2172250063974404, 37.460535752236304], "label": "Cl", "properties": {}}, {"species": [{"element": "Cl", "occu": 1}], "abc": [0.73163812, 0.54196654, 0.80671207], "xyz": [4.461364369374439, 6.05772043967584, 31.04132152302951], "label": "Cl", "properties": {}}]}, "formula": "(Li3YCl6)10.0(LiCl)12.0", "bandgap": 4.4748}