{"miller": "001_0.78", "final_energy": -432.13658872, "sigma": 0.015060401286246113, "incar_parameters": {"SYSTEM": "unknown system", "LCOMPAT": false, "PREC": "normal", "ENMAX": 520.0, "ENAUG": 628.945, "EDIFF": 1e-05, "IALGO": 38, "IWAVPR": 11, "NBANDS": 369, "NBANDSLOW": -1, "NBANDSHIGH": -1, "NELECT": 616.0, "TURBO": 0, "IRESTART": 0, "NREBOOT": 0, "NMIN": 0, "EREF": 0.0, "ISMEAR": 0, "SIGMA": 0.05, "KSPACING": 0.5, "KGAMMA": true, "KBLOWUP": true, "LREAL": true, "ROPT": [-0.0005, -0.0005, -0.0005], "LMAXPAW": -100, "LMAXMIX": 4, "NLSPLINE": false, "ISTART": 0, "ICHARG": 2, "INIWAV": 1, "ISPIN": 1, "LNONCOLLINEAR": false, "MAGMOM": [0.6, 0.6, 0.6, 0.6, 0.6, 0.6, 0.6, 0.6, 0.6, 0.6, 0.6, 0.6, 0.6, 0.6, 0.6, 0.6, 0.6, 0.6, 0.6, 0.6, 0.6, 0.6, 0.6, 0.6, 0.6, 0.6, 0.6, 0.6, 0.6, 0.6, 0.6, 0.6, 0.6, 0.6, 0.6, 0.6, 0.6, 0.6, 0.6, 0.6, 0.6, 0.6, 0.6, 0.6, 0.6, 0.6, 0.6, 0.6, 0.6, 0.6, 0.6, 0.6, 0.6, 0.6, 0.6, 0.6, 0.6, 0.6, 0.6, 0.6, 0.6, 0.6, 0.6, 0.6, 0.6, 0.6, 0.6, 0.6, 0.6, 0.6, 0.6, 0.6, 0.6, 0.6, 0.6, 0.6, 0.6, 0.6, 0.6, 0.6, 0.6, 0.6, 0.6, 0.6, 0.6, 0.6, 0.6, 0.6, 0.6, 0.6, 0.6, 0.6, 0.6, 0.6, 0.6, 0.6, 0.6, 0.6, 0.6, 0.6, 0.6, 0.6, 0.6, 0.6], "NUPDOWN": -1.0, "LSORBIT": false, "SAXIS": [0.0, 0.0, 1.0], "LSPIRAL": false, "QSPIRAL": [0.0, 0.0, 0.0], "LZEROZ": false, "LASPH": false, "LMETAGGA": false, "NELM": 100, "NELMDL": -5, "NELMIN": 6, "ENINI": 520.0, "LDIAG": true, "LSUBROT": false, "WEIMIN": 0.001, "EBREAK": 1e-08, "DEPER": 0.3, "NRMM": 4, "TIME": 0.4, "AMIX": 0.4, "BMIX": 1.0, "AMIN": 0.1, "AMIX_MAG": 1.6, "BMIX_MAG": 1.0, "IMIX": 4, "MIXFIRST": false, "MAXMIX": -45, "WC": 100.0, "INIMIX": 1, "MIXPRE": 1, "MREMOVE": 5, "LDIPOL": false, "LMONO": false, "IDIPOL": 0, "EPSILON": 1.0, "DIPOL": [-100.0, -100.0, -100.0], "EFIELD": 0.0, "NGX": 36, "NGY": 64, "NGZ": 224, "NGXF": 72, "NGYF": 128, "NGZF": 448, "ADDGRID": false, "NSW": 150, "IBRION": 2, "MDALGO": 0, "ISIF": 3, "PSTRESS": 0.0, "EDIFFG": -0.01, "NFREE": 1, "POTIM": 0.5, "SMASS": -3.0, "SCALEE": 1.0, "TEBEG": 0.0001, "TEEND": 0.0001, "NBLOCK": 1, "KBLOCK": 150, "NPACO": 256, "APACO": 10.0, "ISYM": 0, "SYMPREC": 1e-05, "LORBIT": 11, "RWIGS": [-1.0, -1.0, -1.0], "NEDOS": 301, "EMIN": 10.0, "EMAX": -10.0, "EFERMI": 0.0, "NWRITE": 2, "LWAVE": false, "LDOWNSAMPLE": false, "LCHARG": false, "LPARD": false, "LVTOT": false, "LVHAR": false, "LELF": false, "LOPTICS": false, "STM": [0.0, 0.0, 0.0, 0.0, 0.0, 0.0, 0.0], "NPAR": 1, "NSIM": 4, "NBLK": -1, "LPLANE": true, "LSCALAPACK": true, "LSCAAWARE": false, "LSCALU": false, "LASYNC": false, "LORBITALREAL": false, "IDIOT": 3, "PHON_NSTRUCT": -1, "LMUSIC": false, "POMASS": [7.01, 88.906, 35.453], "DARWINR": [0.0, 0.0, 0.0], "DARWINV": [1.0, 1.0, 1.0], "LCORR": true, "GGA_COMPAT": true, "LBERRY": false, "ICORELEVEL": 0, "LDAU": false, "I_CONSTRAINED_M": 0, "GGA": "--", "VOSKOWN": 0, "LHFCALC": false, "PRECFOCK": "", "LSYMGRAD": false, "LHFONE": false, "LRHFCALC": false, "LTHOMAS": false, "LMODELHF": false, "LFOCKACE": false, "ENCUT4O": -1.0, "EXXOEP": 0, "FOURORBIT": 0, "AEXX": 0.0, "HFALPHA": 0.0, "MCALPHA": 0.0, "ALDAX": 1.0, "AGGAX": 1.0, "ALDAC": 1.0, "AGGAC": 1.0, "NKREDX": 1, "NKREDY": 1, "NKREDZ": 1, "SHIFTRED": false, "ODDONLY": false, "EVENONLY": false, "LMAXFOCK": 0, "NMAXFOCKAE": 0, "LFOCKAEDFT": false, "HFSCREEN": 0.0, "HFSCREENC": 0.0, "NBANDSGWLOW": 0, "LUSE_VDW": false, "Zab_VDW": -0.8491, "PARAM1": 0.1234, "PARAM2": 1.0, "PARAM3": 0.0, "MODEL_GW": 0, "MODEL_EPS0": 15.58836064, "MODEL_ALPHA": 1.0, "LEPSILON": false, "LRPA": false, "LNABLA": false, "LVEL": false, "CSHIFT": 0.1, "OMEGAMAX": -1.0, "DEG_THRESHOLD": 0.002, "RTIME": -0.1, "WPLASMAI": 0.0, "DFIELD": [0.0, 0.0, 0.0], "WPLASMA": [0.0, 0.0, 0.0, 0.0, 0.0, 0.0, 0.0, 0.0, 0.0], "NUCIND": false, "MAGPOS": [0.0, 0.0, 0.0], "LNICSALL": true, "ORBITALMAG": false, "LMAGBLOCH": false, "LCHIMAG": false, "LGAUGE": true, "MAGATOM": 0, "MAGDIPOL": [0.0, 0.0, 0.0], "AVECCONST": [0.0, 0.0, 0.0], "LFINITE_TEMPERATURE": false, "LADDER": false, "LRPAFORCE": false, "LFXC": false, "LHARTREE": true, "IBSE": 0, "KPOINT": [-1, 0, 0, 0], "LTCTC": false, "LTCTE": false, "LTETE": false, "LTRIPLET": false, "LFXCEPS": false, "LFXHEG": false, "NATURALO": 2, "LHOLEGF": false, "L2ORDER": false, "LDMP1": false, "LMP2LT": false, "LSMP2LT": false, "LGWLF": false, "ENCUTGW": -2.0, "ENCUTGWSOFT": -2.0, "ENCUTLF": -1.0, "LESF_SPLINES": false, "LMAXMP2": -1, "SCISSOR": 0.0, "NOMEGA": 0, "NOMEGAR": 0, "NBANDSGW": -1, "NBANDSO": -1, "NBANDSV": -1, "NELMGW": 1, "NELMHF": 1, "DIM": 3, "IESPILON": 4, "ANTIRES": 0, "OMEGAMIN": -30.0, "OMEGATL": -200.0, "OMEGAGRID": 0, "LSELFENERGY": false, "LSPECTRAL": false, "LSPECTRALGW": false, "LSINGLES": false, "LFERMIGW": false, "ODDONLYGW": false, "EVENONLYGW": false, "NKREDLFX": 1, "NKREDLFY": 1, "NKREDLFZ": 1, "MAXMEM": 2800, "TELESCOPE": 0, "NTAUPAR": -1, "NOMEGAPAR": -1, "DAMP_NEWTON": 0.80000001, "LAMBDA": 1.0, "OFIELD_KAPPA": 0.0, "OFIELD_K": [0.0, 0.0, 0.0], "OFIELD_Q6_NEAR": 0.0, "OFIELD_Q6_FAR": 0.0, "OFIELD_A": 0.0, "KPOINTS_OPT_MODE": 1, "LKPOINTS_OPT": false, "@module": "pymatgen.io.vasp.inputs", "@class": "Incar"}, "relaxed_structures": {"@module": "pymatgen.core.structure", "@class": "Structure", "charge": 0, "lattice": {"matrix": [[6.097585, 0.0, 0.0], [0.000256, 11.177296, 0.0], [0.0, 0.0, 39.644954]], "a": 6.097585, "b": 11.177296002931657, "c": 39.644954, "alpha": 90.0, "beta": 90.0, "gamma": 89.99868772200783, "volume": 2701.982510186121}, "sites": [{"species": [{"element": "Li", "occu": 1}], "abc": [0.9849009, 0.28910459, 0.11257237], "xyz": [6.00559096510154, 3.23140757738864, 4.46292643032098], "label": "Li", "properties": {}}, {"species": [{"element": "Li", "occu": 1}], "abc": [0.99712234, 0.48483641, 0.20797146], "xyz": [6.080162341669859, 5.41916006614736, 8.24501896501284], "label": "Li", "properties": {}}, {"species": [{"element": "Li", "occu": 1}], "abc": [0.93711733, 0.98546346, 0.12551597], "xyz": [5.71440485329381, 11.01481678960416, 4.97607485691538], "label": "Li", "properties": {}}, {"species": [{"element": "Li", "occu": 1}], "abc": [0.58784727, 0.61207919, 0.06592182], "xyz": [3.58460538811559, 6.84139028207024, 2.61346752149628], "label": "Li", "properties": {}}, {"species": [{"element": "Li", "occu": 1}], "abc": [0.56843033, 0.31033819, 0.06541133], "xyz": [3.4661317003296896, 3.46874180973424, 2.59322916892882], "label": "Li", "properties": {}}, {"species": [{"element": "Li", "occu": 1}], "abc": [0.47202887, 0.02615217, 0.13455794], "xyz": [2.87824285223447, 0.29231054513231997, 5.33454334163476], "label": "Li", "properties": {}}, {"species": [{"element": "Li", "occu": 1}], "abc": [0.49937831, 0.48485315, 0.20340359], "xyz": [3.04512581478775, 5.4193471740824, 8.06392596898486], "label": "Li", "properties": {}}, {"species": [{"element": "Li", "occu": 1}], "abc": [0.53631731, 0.81318657, 0.21416561], "xyz": [3.27044856045827, 9.089226996114721, 8.49058575683194], "label": "Li", "properties": {}}, {"species": [{"element": "Li", "occu": 1}], "abc": [0.07655098, 0.46394815, 0.03219681], "xyz": [0.4668948781097, 5.1856858012024, 1.27644105139674], "label": "Li", "properties": {}}, {"species": [{"element": "Li", "occu": 1}], "abc": [0.01538653, 0.78897753, 0.38744952], "xyz": [0.09402265277773, 8.81863539015888, 15.360418397722079], "label": "Li", "properties": {}}, {"species": [{"element": "Li", "occu": 1}], "abc": [0.92375833, 0.96393545, 0.46779353], "xyz": [5.632941704108249, 10.7741918495432, 18.54565297834762], "label": "Li", "properties": {}}, {"species": [{"element": "Li", "occu": 1}], "abc": [0.06291924, 0.48545717, 0.37448514], "xyz": [0.38377969107091997, 5.42609848441232, 14.84644614898356], "label": "Li", "properties": {}}, {"species": [{"element": "Li", "occu": 1}], "abc": [0.46378747, 0.31318175, 0.28583916], "xyz": [2.8280636947879496, 3.5005251215479998, 11.33208034959864], "label": "Li", "properties": {}}, {"species": [{"element": "Li", "occu": 1}], "abc": [0.50061625, 0.98484609, 0.2966113], "xyz": [3.0528022573552893, 11.00791626237264, 11.7591413443802], "label": "Li", "properties": {}}, {"species": [{"element": "Li", "occu": 1}], "abc": [0.52801148, 0.52616261, 0.36544037], "xyz": [3.21972957790396, 5.88107523610256, 14.48786665839298], "label": "Li", "properties": {}}, {"species": [{"element": "Li", "occu": 1}], "abc": [0.43166774, 0.81035484, 0.43460473], "xyz": [2.63233818724694, 9.05757591171264, 17.229884529032418], "label": "Li", "properties": {}}, {"species": [{"element": "Li", "occu": 1}], "abc": [0.41235792, 0.11209118, 0.43405497], "xyz": [2.5144161629652797, 1.25287629784928, 17.208089319121378], "label": "Li", "properties": {}}, {"species": [{"element": "Li", "occu": 1}], "abc": [0.00289376, 0.98482746, 0.29204546], "xyz": [0.01789706339936, 11.00770802934816, 11.578128827608838], "label": "Li", "properties": {}}, {"species": [{"element": "Li", "occu": 1}], "abc": [0.51738565, 0.18452665, 0.61268085], "xyz": [3.15485021747765, 2.0625089869383997, 24.289704114930903], "label": "Li", "properties": {}}, {"species": [{"element": "Li", "occu": 1}], "abc": [0.50321442, 0.99100649, 0.7085935], "xyz": [3.0686463968371402, 11.07677287665104, 28.092156712199], "label": "Li", "properties": {}}, {"species": [{"element": "Li", "occu": 1}], "abc": [0.56275275, 0.49127823, 0.6251574], "xyz": [3.4315584943356296, 5.49116219506608, 24.784336365759597], "label": "Li", "properties": {}}, {"species": [{"element": "Li", "occu": 1}], "abc": [0.9120838, 0.86300428, 0.5660921], "xyz": [5.56172942671868, 9.64605428682688, 22.4426952642634], "label": "Li", "properties": {}}, {"species": [{"element": "Li", "occu": 1}], "abc": [0.93524194, 0.16506769, 0.56529283], "xyz": [5.70275948204354, 1.8450104311662399, 22.411008241879816], "label": "Li", "properties": {}}, {"species": [{"element": "Li", "occu": 1}], "abc": [0.02757389, 0.44658874, 0.63473057], "xyz": [0.16824846477309, 4.99165453724704, 25.16386425004378], "label": "Li", "properties": {}}, {"species": [{"element": "Li", "occu": 1}], "abc": [0.00055688, 0.99071217, 0.70426189], "xyz": [0.0036492454503200002, 11.07348317489232, 27.920430233003056], "label": "Li", "properties": {}}, {"species": [{"element": "Li", "occu": 1}], "abc": [0.96703438, 0.66306139, 0.71414882], "xyz": [5.896744073688139, 7.41123342220144, 28.312397118054278], "label": "Li", "properties": {}}, {"species": [{"element": "Li", "occu": 1}], "abc": [0.42436623, 0.01025813, 0.53235317], "xyz": [2.58761178463583, 0.11465815541648001, 21.10511693640418], "label": "Li", "properties": {}}, {"species": [{"element": "Li", "occu": 1}], "abc": [0.48188162, 0.68399096, 0.88722255], "xyz": [2.93848923957346, 7.6451694212441605, 35.173897182512704], "label": "Li", "properties": {}}, {"species": [{"element": "Li", "occu": 1}], "abc": [0.5756289, 0.510174, 0.96765222], "xyz": [3.5100767507504997, 5.702365809504, 38.36252774989788], "label": "Li", "properties": {}}, {"species": [{"element": "Li", "occu": 1}], "abc": [0.43744925, 0.99085524, 0.87485827], "xyz": [2.66763764400269, 11.075082310631041, 34.68371587066958], "label": "Li", "properties": {}}, {"species": [{"element": "Li", "occu": 1}], "abc": [0.03321885, 0.16297589, 0.78585571], "xyz": [0.20259648330509, 1.8216297633934402, 31.155213473587338], "label": "Li", "properties": {}}, {"species": [{"element": "Li", "occu": 1}], "abc": [0.99918698, 0.49032651, 0.79577316], "xyz": [6.092753065029859, 5.48052453891696, 31.54839032263464], "label": "Li", "properties": {}}, {"species": [{"element": "Li", "occu": 1}], "abc": [0.97221422, 0.94650856, 0.86538226], "xyz": [5.9284011508500605, 10.57940634165376, 34.308039890116035], "label": "Li", "properties": {}}, {"species": [{"element": "Li", "occu": 1}], "abc": [0.06466036, 0.66503373, 0.93469272], "xyz": [0.39444228986548, 7.43327885019408, 37.05584988853488], "label": "Li", "properties": {}}, {"species": [{"element": "Li", "occu": 1}], "abc": [0.08809919, 0.3628779, 0.93395833], "xyz": [0.5372851961985499, 4.0559937001584, 37.026735030766815], "label": "Li", "properties": {}}, {"species": [{"element": "Li", "occu": 1}], "abc": [0.49719476, 0.49160905, 0.79119213], "xyz": [3.0318131625714, 5.4948598681288, 31.36677559901202], "label": "Li", "properties": {}}, {"species": [{"element": "Y", "occu": 1}], "abc": [0.99822397, 0.65255598, 0.12640075], "xyz": [6.086922560443329, 7.293811345030081, 5.0111519193155], "label": "Y", "properties": {}}, {"species": [{"element": "Y", "occu": 1}], "abc": [0.98259356, 0.15026307, 0.21082162], "xyz": [5.99148621989852, 1.67953481125872, 8.35801342710548], "label": "Y", "properties": {}}, {"species": [{"element": "Y", "occu": 1}], "abc": [0.00202645, 0.15255985, 0.37362169], "xyz": [0.01239550644485, 1.7052066011656, 14.81221471345226], "label": "Y", "properties": {}}, {"species": [{"element": "Y", "occu": 1}], "abc": [0.0174563, 0.6502109, 0.2891749], "xyz": [0.10660772702589999, 7.2675996917264, 11.4643256084546], "label": "Y", "properties": {}}, {"species": [{"element": "Y", "occu": 1}], "abc": [0.50131384, 0.82254572, 0.62682621], "xyz": [3.0570143227807196, 9.193836985973121, 24.85049626144434], "label": "Y", "properties": {}}, {"species": [{"element": "Y", "occu": 1}], "abc": [0.51776159, 0.32514834, 0.7105696], "xyz": [3.1571785427351897, 3.63427924008864, 28.1704991057984], "label": "Y", "properties": {}}, {"species": [{"element": "Y", "occu": 1}], "abc": [0.49837443, 0.32223745, 0.87318326], "xyz": [3.0389629415387494, 3.6017433609352, 34.61731017627004], "label": "Y", "properties": {}}, {"species": [{"element": "Y", "occu": 1}], "abc": [0.48199981, 0.82512023, 0.78944177], "xyz": [2.93924604223773, 9.22261304629808, 31.29738265732858], "label": "Y", "properties": {}}, {"species": [{"element": "Cl", "occu": 1}], "abc": [0.19109292, 0.29656182, 0.06289956], "xyz": [1.16528124242412, 3.31475924443872, 2.4936501628202397], "label": "Cl", "properties": {}}, {"species": [{"element": "Cl", "occu": 1}], "abc": [0.23481826, 0.488952, 0.15684956], "xyz": [1.4319494716141, 5.465161233792, 6.21829359112024], "label": "Cl", "properties": {}}, {"species": [{"element": "Cl", "occu": 1}], "abc": [0.18317344, 0.15338388, 0.15047979], "xyz": [1.11695488641568, 1.71441702838848, 5.96576435247966], "label": "Cl", "properties": {}}, {"species": [{"element": "Cl", "occu": 1}], "abc": [0.25908877, 0.64534539, 0.23387376], "xyz": [1.5799810060402901, 7.213216446265441, 9.27191445700704], "label": "Cl", "properties": {}}, {"species": [{"element": "Cl", "occu": 1}], "abc": [0.22331691, 0.84686548, 0.14223628], "xyz": [1.36191063822523, 9.46566614214208, 5.63895077773112], "label": "Cl", "properties": {}}, {"species": [{"element": "Cl", "occu": 1}], "abc": [0.20210921, 0.63174839, 0.06760235], "xyz": [1.23253981484569, 7.06123875255344, 2.6800920560419], "label": "Cl", "properties": {}}, {"species": [{"element": "Cl", "occu": 1}], "abc": [0.24601689, 0.32277317, 0.23402306], "xyz": [1.5001915281421698, 3.60773126194832, 9.27783344863924], "label": "Cl", "properties": {}}, {"species": [{"element": "Cl", "occu": 1}], "abc": [0.75109766, 0.65293809, 0.18335621], "xyz": [4.580048977302139, 7.298082301604641, 7.26914851106434], "label": "Cl", "properties": {}}, {"species": [{"element": "Cl", "occu": 1}], "abc": [0.72441256, 0.98391526, 0.18024191], "xyz": [4.417419041974159, 10.99751209993696, 7.14568223082214], "label": "Cl", "properties": {}}, {"species": [{"element": "Cl", "occu": 1}], "abc": [0.68073503, 0.46554757, 0.02441267], "xyz": [4.15095888808047, 5.2035629919707205, 0.96783917916718], "label": "Cl", "properties": {}}, {"species": [{"element": "Cl", "occu": 1}], "abc": [0.72755321, 0.79634033, 0.09505337], "xyz": [4.43652140312233, 8.900931585147681, 3.76838648119498], "label": "Cl", "properties": {}}, {"species": [{"element": "Cl", "occu": 1}], "abc": [0.74135257, 0.47123217, 0.10758993], "xyz": [4.52058094597897, 5.26710144881232, 4.26539782571322], "label": "Cl", "properties": {}}, {"species": [{"element": "Cl", "occu": 1}], "abc": [0.70674357, 0.13483716, 0.09803547], "xyz": [4.30946350959141, 1.5071148491193602, 3.88661169851838], "label": "Cl", "properties": {}}, {"species": [{"element": "Cl", "occu": 1}], "abc": [0.75173092, 0.32550311, 0.18563859], "xyz": [4.58382651062436, 3.63824460939056, 7.3596333611748594], "label": "Cl", "properties": {}}, {"species": [{"element": "Cl", "occu": 1}], "abc": [0.24838163, 0.82544825, 0.31436724], "xyz": [1.5147394161155499, 9.226279422932, 12.46307476890696], "label": "Cl", "properties": {}}, {"species": [{"element": "Cl", "occu": 1}], "abc": [0.25893928, 0.97114601, 0.39242272], "xyz": [1.5791528830173598, 10.85478641298896, 15.55758068295488], "label": "Cl", "properties": {}}, {"species": [{"element": "Cl", "occu": 1}], "abc": [0.29341408, 0.63472304, 0.40199621], "xyz": [1.78927978209504, 7.094487296099841, 15.93712125362434], "label": "Cl", "properties": {}}, {"species": [{"element": "Cl", "occu": 1}], "abc": [0.23894149, 0.98599623, 0.23717954], "xyz": [1.45721846033653, 11.02077171759408, 9.40297195304116], "label": "Cl", "properties": {}}, {"species": [{"element": "Cl", "occu": 1}], "abc": [0.31934022, 0.96564603, 0.47562097], "xyz": [1.94745134075238, 10.793311508534881, 18.85597147708538], "label": "Cl", "properties": {}}, {"species": [{"element": "Cl", "occu": 1}], "abc": [0.27253606, 0.2963981, 0.40496209], "xyz": [1.6618876693287001, 3.3129292975376, 16.05470342979386], "label": "Cl", "properties": {}}, {"species": [{"element": "Cl", "occu": 1}], "abc": [0.24900459, 0.15292754, 0.31665243], "xyz": [1.5183658023653899, 1.70931638113184, 12.55367102133822], "label": "Cl", "properties": {}}, {"species": [{"element": "Cl", "occu": 1}], "abc": [0.27575243, 0.48390531, 0.31977144], "xyz": [1.6815477606409097, 5.40875288584176, 12.67732402931376], "label": "Cl", "properties": {}}, {"species": [{"element": "Cl", "occu": 1}], "abc": [0.75407766, 0.82277263, 0.2659918], "xyz": [4.598263258244379, 9.19637322620848, 10.5452326753772], "label": "Cl", "properties": {}}, {"species": [{"element": "Cl", "occu": 1}], "abc": [0.79799547, 0.13175271, 0.4324057], "xyz": [4.86587893663371, 1.47263903847216, 17.1427040858378], "label": "Cl", "properties": {}}, {"species": [{"element": "Cl", "occu": 1}], "abc": [0.74101048, 0.14530451, 0.26612093], "xyz": [4.51841158564536, 1.62411151840496, 10.550352028287218], "label": "Cl", "properties": {}}, {"species": [{"element": "Cl", "occu": 1}], "abc": [0.77682951, 0.34681714, 0.35775888], "xyz": [4.736872752921189, 3.8764778316534403, 14.18333434069152], "label": "Cl", "properties": {}}, {"species": [{"element": "Cl", "occu": 1}], "abc": [0.7611295, 0.48598616, 0.26280507], "xyz": [4.641176234714459, 5.43201116222336, 10.418894911116778], "label": "Cl", "properties": {}}, {"species": [{"element": "Cl", "occu": 1}], "abc": [0.76566076, 0.98892923, 0.34315307], "xyz": [4.66893473114748, 11.05355472676208, 13.604287675108779], "label": "Cl", "properties": {}}, {"species": [{"element": "Cl", "occu": 1}], "abc": [0.81693718, 0.65337106, 0.34952259], "xyz": [4.981511157701659, 7.3029217354537606, 13.85680700251086], "label": "Cl", "properties": {}}, {"species": [{"element": "Cl", "occu": 1}], "abc": [0.80909154, 0.7965776, 0.43708562], "xyz": [4.9337083617965, 8.9035836221696, 17.32823929896148], "label": "Cl", "properties": {}}, {"species": [{"element": "Cl", "occu": 1}], "abc": [0.3114921, 0.1784203, 0.56293721], "xyz": [1.8993952321752998, 1.9942565055088, 22.317619795338338], "label": "Cl", "properties": {}}, {"species": [{"element": "Cl", "occu": 1}], "abc": [0.26598372, 0.98655664, 0.65729551], "xyz": [1.6221108998160398, 11.02703558604544, 26.058450258356537], "label": "Cl", "properties": {}}, {"species": [{"element": "Cl", "occu": 1}], "abc": [0.31776584, 0.32109924, 0.6503924], "xyz": [1.93768642090184, 3.58902125085504, 25.7847767799496], "label": "Cl", "properties": {}}, {"species": [{"element": "Cl", "occu": 1}], "abc": [0.2411689, 0.82988684, 0.73407541], "xyz": [1.4707603181375397, 9.27589085718464, 29.102385861981137], "label": "Cl", "properties": {}}, {"species": [{"element": "Cl", "occu": 1}], "abc": [0.27577945, 0.62803847, 0.64249968], "xyz": [1.6817494154765698, 7.01977187857712, 25.471870258614718], "label": "Cl", "properties": {}}, {"species": [{"element": "Cl", "occu": 1}], "abc": [0.29706198, 0.84353665, 0.56801396], "xyz": [1.8115766187006999, 9.4284588238984, 22.51888731555784], "label": "Cl", "properties": {}}, {"species": [{"element": "Cl", "occu": 1}], "abc": [0.2544591, 0.15310056, 0.73419071], "xyz": [1.5516251850168599, 1.71125027688576, 29.10695692517734], "label": "Cl", "properties": {}}, {"species": [{"element": "Cl", "occu": 1}], "abc": [0.74944614, 0.82269062, 0.68362574], "xyz": [4.57002215037062, 9.19545657616352, 27.10231101551596], "label": "Cl", "properties": {}}, {"species": [{"element": "Cl", "occu": 1}], "abc": [0.77608307, 0.49158739, 0.68022878], "xyz": [4.73235833275779, 5.494617767897441, 26.967638692576116], "label": "Cl", "properties": {}}, {"species": [{"element": "Cl", "occu": 1}], "abc": [0.81972977, 0.00934642, 0.5245632], "xyz": [4.99837434228897, 0.10446770288032, 20.7962839340928], "label": "Cl", "properties": {}}, {"species": [{"element": "Cl", "occu": 1}], "abc": [0.7698033, 0.67809917, 0.59511534], "xyz": [4.69411464841802, 7.5793151404443195, 23.59332027899436], "label": "Cl", "properties": {}}, {"species": [{"element": "Cl", "occu": 1}], "abc": [0.75928707, 0.00308183, 0.60779211], "xyz": [4.62981823767443, 0.03444652613168, 24.09589024251294], "label": "Cl", "properties": {}}, {"species": [{"element": "Cl", "occu": 1}], "abc": [0.79329446, 0.33959195, 0.59795856], "xyz": [4.8372673354183, 3.7957197443672, 23.70603960510624], "label": "Cl", "properties": {}}, {"species": [{"element": "Cl", "occu": 1}], "abc": [0.74954675, 0.14987086, 0.68571553], "xyz": [4.57046338653891, 1.6751509639945599, 27.185160643935617], "label": "Cl", "properties": {}}, {"species": [{"element": "Cl", "occu": 1}], "abc": [0.25047579, 0.6497253, 0.81428226], "xyz": [1.5274637496439498, 7.262171996788799, 32.28218274071604], "label": "Cl", "properties": {}}, {"species": [{"element": "Cl", "occu": 1}], "abc": [0.24017187, 0.50271461, 0.89218908], "xyz": [1.46459708687411, 5.618989999494559, 35.37079503590232], "label": "Cl", "properties": {}}, {"species": [{"element": "Cl", "occu": 1}], "abc": [0.20655355, 0.83934936, 0.90204586], "xyz": [1.25969270161291, 9.38165624413056, 35.76156662559044], "label": "Cl", "properties": {}}, {"species": [{"element": "Cl", "occu": 1}], "abc": [0.26119352, 0.48971978, 0.73700759], "xyz": [1.5927750579128799, 5.47374293811488, 29.21863200320086], "label": "Cl", "properties": {}}, {"species": [{"element": "Cl", "occu": 1}], "abc": [0.18007964, 0.50930305, 0.97543473], "xyz": [1.0981812932502, 5.6926309435528, 38.67106500085242], "label": "Cl", "properties": {}}, {"species": [{"element": "Cl", "occu": 1}], "abc": [0.23017055, 0.17776214, 0.90494089], "xyz": [1.4035300002295898, 1.9869000563734402, 35.87633995676906], "label": "Cl", "properties": {}}, {"species": [{"element": "Cl", "occu": 1}], "abc": [0.25082361, 0.32234975, 0.81632176], "xyz": [1.52950080351785, 3.6029985712759998, 32.36303862439904], "label": "Cl", "properties": {}}, {"species": [{"element": "Cl", "occu": 1}], "abc": [0.22350897, 0.9912805, 0.81980084], "xyz": [1.3631187106454499, 11.079835567528, 32.500966590961355], "label": "Cl", "properties": {}}, {"species": [{"element": "Cl", "occu": 1}], "abc": [0.74538882, 0.65310981, 0.76579628], "xyz": [4.545238884111059, 7.300001666873761, 30.35995829397112], "label": "Cl", "properties": {}}, {"species": [{"element": "Cl", "occu": 1}], "abc": [0.70275051, 0.3432738, 0.93200886], "xyz": [4.28516884661115, 3.8368728716448004, 36.94944838229244], "label": "Cl", "properties": {}}, {"species": [{"element": "Cl", "occu": 1}], "abc": [0.75863393, 0.32988699, 0.76589588], "xyz": [4.62591932312849, 3.68724453377904, 30.36390693138952], "label": "Cl", "properties": {}}, {"species": [{"element": "Cl", "occu": 1}], "abc": [0.72420108, 0.12776227, 0.85756863], "xyz": [4.41591034953292, 1.4280367094219202, 33.99826888819302], "label": "Cl", "properties": {}}, {"species": [{"element": "Cl", "occu": 1}], "abc": [0.73828259, 0.98963831, 0.7629441], "xyz": [4.501994193952509, 11.06148032380976, 30.2468837490714], "label": "Cl", "properties": {}}, {"species": [{"element": "Cl", "occu": 1}], "abc": [0.7336641, 0.48623519, 0.84268853], "xyz": [4.47370368740714, 5.43479464424624, 33.40834800817762], "label": "Cl", "properties": {}}, {"species": [{"element": "Cl", "occu": 1}], "abc": [0.68215022, 0.82097802, 0.84961545], "xyz": [4.15967911959182, 9.17631433903392, 33.6829654329393], "label": "Cl", "properties": {}}, {"species": [{"element": "Cl", "occu": 1}], "abc": [0.6881794, 0.67806568, 0.93696895], "xyz": [4.19640597156308, 7.57894081280128, 37.1460909221783], "label": "Cl", "properties": {}}]}, "formula": "(Li3YCl6)8.0(LiCl)12.0", "bandgap": 4.719}