{"miller": "100_0.12", "final_energy": -312.40205718, "gamma": 0.07532188799041618, "work_function": 2.64411354857618, "ionization_potentail": -2.92501354857618, "electron_affinity": -0.93431354857618, "is_stochiometric": true, "incar_parameters": {"SYSTEM": "unknown system", "LCOMPAT": false, "PREC": "normal", "ENMAX": 520.0, "ENAUG": 628.945, "EDIFF": 1e-05, "IALGO": 38, "IWAVPR": 11, "NBANDS": 166, "NBANDSLOW": -1, "NBANDSHIGH": -1, "NELECT": 264.0, "TURBO": 0, "IRESTART": 0, "NREBOOT": 0, "NMIN": 0, "EREF": 0.0, "ISMEAR": 0, "SIGMA": 0.05, "KSPACING": 0.5, "KGAMMA": true, "KBLOWUP": true, "LREAL": true, "ROPT": [-0.0005, -0.0005], "LMAXPAW": -100, "LMAXMIX": 2, "NLSPLINE": false, "ISTART": 0, "ICHARG": 2, "INIWAV": 1, "ISPIN": 1, "LNONCOLLINEAR": false, "MAGMOM": [0.6, 0.6, 0.6, 0.6, 0.6, 0.6, 0.6, 0.6, 0.6, 0.6, 0.6, 0.6, 0.6, 0.6, 0.6, 0.6, 0.6, 0.6, 0.6, 0.6, 0.6, 0.6, 0.6, 0.6, 0.6, 0.6, 0.6, 0.6, 0.6, 0.6, 0.6, 0.6, 0.6, 0.6, 0.6, 0.6, 0.6, 0.6, 0.6, 0.6, 0.6, 0.6, 0.6, 0.6, 0.6, 0.6, 0.6, 0.6, 0.6, 0.6, 0.6, 0.6, 0.6, 0.6, 0.6, 0.6, 0.6, 0.6, 0.6, 0.6, 0.6, 0.6, 0.6, 0.6, 0.6, 0.6], "NUPDOWN": -1.0, "LSORBIT": false, "SAXIS": [0.0, 0.0, 1.0], "LSPIRAL": false, "QSPIRAL": [0.0, 0.0, 0.0], "LZEROZ": false, "LASPH": false, "LMETAGGA": false, "NELM": 100, "NELMDL": -5, "NELMIN": 6, "ENINI": 520.0, "LDIAG": true, "LSUBROT": false, "WEIMIN": 0.001, "EBREAK": 2e-08, "DEPER": 0.3, "NRMM": 4, "TIME": 0.4, "AMIX": 0.4, "BMIX": 1.0, "AMIN": 0.1, "AMIX_MAG": 1.6, "BMIX_MAG": 1.0, "IMIX": 4, "MIXFIRST": false, "MAXMIX": -45, "WC": 100.0, "INIMIX": 1, "MIXPRE": 1, "MREMOVE": 5, "LDIPOL": false, "LMONO": false, "IDIPOL": 0, "EPSILON": 1.0, "DIPOL": [-100.0, -100.0, -100.0], "EFIELD": 0.0, "NGX": 28, "NGY": 28, "NGZ": 270, "NGXF": 56, "NGYF": 56, "NGZF": 540, "ADDGRID": false, "NSW": 150, "IBRION": 2, "MDALGO": 0, "ISIF": 2, "PSTRESS": 0.0, "EDIFFG": -0.01, "NFREE": 1, "POTIM": 0.5, "SMASS": -3.0, "SCALEE": 1.0, "TEBEG": 0.0001, "TEEND": 0.0001, "NBLOCK": 1, "KBLOCK": 150, "NPACO": 256, "APACO": 10.0, "ISYM": 0, "SYMPREC": 1e-05, "LORBIT": 11, "RWIGS": [-1.0, -1.0], "NEDOS": 301, "EMIN": 10.0, "EMAX": -10.0, "EFERMI": 0.0, "NWRITE": 2, "LWAVE": false, "LDOWNSAMPLE": false, "LCHARG": false, "LPARD": false, "LVTOT": false, "LVHAR": false, "LELF": false, "LOPTICS": false, "STM": [0.0, 0.0, 0.0, 0.0, 0.0, 0.0, 0.0], "NPAR": 1, "NSIM": 4, "NBLK": -1, "LPLANE": true, "LSCALAPACK": true, "LSCAAWARE": false, "LSCALU": false, "LASYNC": false, "LORBITALREAL": false, "IDIOT": 3, "PHON_NSTRUCT": -1, "LMUSIC": false, "POMASS": [7.01, 16.0], "DARWINR": [0.0, 0.0], "DARWINV": [1.0, 1.0], "LCORR": true, "GGA_COMPAT": true, "LBERRY": false, "ICORELEVEL": 0, "LDAU": false, "I_CONSTRAINED_M": 0, "GGA": "--", "VOSKOWN": 0, "LHFCALC": false, "PRECFOCK": "", "LSYMGRAD": false, "LHFONE": false, "LRHFCALC": false, "LTHOMAS": false, "LMODELHF": false, "LFOCKACE": false, "ENCUT4O": -1.0, "EXXOEP": 0, "FOURORBIT": 0, "AEXX": 0.0, "HFALPHA": 0.0, "MCALPHA": 0.0, "ALDAX": 1.0, "AGGAX": 1.0, "ALDAC": 1.0, "AGGAC": 1.0, "NKREDX": 1, "NKREDY": 1, "NKREDZ": 1, "SHIFTRED": false, "ODDONLY": false, "EVENONLY": false, "LMAXFOCK": 0, "NMAXFOCKAE": 0, "LFOCKAEDFT": false, "HFSCREEN": 0.0, "HFSCREENC": 0.0, "NBANDSGWLOW": 0, "LUSE_VDW": false, "Zab_VDW": -0.8491, "PARAM1": 0.1234, "PARAM2": 1.0, "PARAM3": 0.0, "MODEL_GW": 0, "MODEL_EPS0": 8.97140268, "MODEL_ALPHA": 1.0, "LEPSILON": false, "LRPA": false, "LNABLA": false, "LVEL": false, "CSHIFT": 0.1, "OMEGAMAX": -1.0, "DEG_THRESHOLD": 0.002, "RTIME": -0.1, "WPLASMAI": 0.0, "DFIELD": [0.0, 0.0, 0.0], "WPLASMA": [0.0, 0.0, 0.0, 0.0, 0.0, 0.0, 0.0, 0.0, 0.0], "NUCIND": false, "MAGPOS": [0.0, 0.0, 0.0], "LNICSALL": true, "ORBITALMAG": false, "LMAGBLOCH": false, "LCHIMAG": false, "LGAUGE": true, "MAGATOM": 0, "MAGDIPOL": [0.0, 0.0, 0.0], "AVECCONST": [0.0, 0.0, 0.0], "LFINITE_TEMPERATURE": false, "LADDER": false, "LRPAFORCE": false, "LFXC": false, "LHARTREE": true, "IBSE": 0, "KPOINT": [-1, 0, 0, 0], "LTCTC": false, "LTCTE": false, "LTETE": false, "LTRIPLET": false, "LFXCEPS": false, "LFXHEG": false, "NATURALO": 2, "LHOLEGF": false, "L2ORDER": false, "LDMP1": false, "LMP2LT": false, "LSMP2LT": false, "LGWLF": false, "ENCUTGW": -2.0, "ENCUTGWSOFT": -2.0, "ENCUTLF": -1.0, "LESF_SPLINES": false, "LMAXMP2": -1, "SCISSOR": 0.0, "NOMEGA": 0, "NOMEGAR": 0, "NBANDSGW": -1, "NBANDSO": -1, "NBANDSV": -1, "NELMGW": 1, "NELMHF": 1, "DIM": 3, "IESPILON": 4, "ANTIRES": 0, "OMEGAMIN": -30.0, "OMEGATL": -200.0, "OMEGAGRID": 0, "LSELFENERGY": false, "LSPECTRAL": false, "LSPECTRALGW": false, "LSINGLES": false, "LFERMIGW": false, "ODDONLYGW": false, "EVENONLYGW": false, "NKREDLFX": 1, "NKREDLFY": 1, "NKREDLFZ": 1, "MAXMEM": 2800, "TELESCOPE": 0, "NTAUPAR": -1, "NOMEGAPAR": -1, "DAMP_NEWTON": 0.80000001, "LAMBDA": 1.0, "OFIELD_KAPPA": 0.0, "OFIELD_K": [0.0, 0.0, 0.0], "OFIELD_Q6_NEAR": 0.0, "OFIELD_Q6_FAR": 0.0, "OFIELD_A": 0.0, "KPOINTS_OPT_MODE": 1, "LKPOINTS_OPT": false, "@module": "pymatgen.io.vasp.inputs", "@class": "Incar"}, "relaxed_structures": {"@module": "pymatgen.core.structure", "@class": "Structure", "charge": 0, "lattice": {"matrix": [[4.62116, 0.0, 0.0], [0.0, 4.62116, 0.0], [0.0, 0.0, 46.211602]], "a": 4.62116, "b": 4.62116, "c": 46.211602, "alpha": 90.0, "beta": 90.0, "gamma": 90.0, "volume": 986.8542943460083}, "sites": [{"species": [{"element": "Li", "occu": 1}], "abc": [0.75, 0.75, 0.03807841000000001], "xyz": [3.46587, 3.46587, 1.7596643277128203], "label": "Li", "properties": {}}, {"species": [{"element": "Li", "occu": 1}], "abc": [0.25, 0.25, 0.03807841000000001], "xyz": [1.15529, 1.15529, 1.7596643277128203], "label": "Li", "properties": {}}, {"species": [{"element": "Li", "occu": 1}], "abc": [0.75, 0.25, 0.046996170000000004], "xyz": [3.46587, 1.15529, 2.17176830356434], "label": "Li", "properties": {}}, {"species": [{"element": "Li", "occu": 1}], "abc": [0.25, 0.75, 9.99999999999994e-05], "xyz": [1.15529, 3.46587, 0.004621160199999972], "label": "Li", "properties": {}}, {"species": [{"element": "Li", "occu": 1}], "abc": [0.75, 0.25, 9.99999999999994e-05], "xyz": [3.46587, 1.15529, 0.004621160199999972], "label": "Li", "properties": {}}, {"species": [{"element": "Li", "occu": 1}], "abc": [0.25, 0.75, 0.046996170000000004], "xyz": [1.15529, 3.46587, 2.17176830356434], "label": "Li", "properties": {}}, {"species": [{"element": "Li", "occu": 1}], "abc": [0.25, 0.25, 0.09142642000000001], "xyz": [1.15529, 1.15529, 4.22496133332484], "label": "Li", "properties": {}}, {"species": [{"element": "Li", "occu": 1}], "abc": [0.75, 0.75, 0.14147996], "xyz": [3.46587, 3.46587, 6.5380156024959195], "label": "Li", "properties": {}}, {"species": [{"element": "Li", "occu": 1}], "abc": [0.25, 0.25, 0.14147996], "xyz": [1.15529, 1.15529, 6.5380156024959195], "label": "Li", "properties": {}}, {"species": [{"element": "Li", "occu": 1}], "abc": [0.75, 0.75, 0.09142642000000001], "xyz": [3.46587, 3.46587, 4.22496133332484], "label": "Li", "properties": {}}, {"species": [{"element": "Li", "occu": 1}], "abc": [0.75, 0.25, 0.14277614], "xyz": [3.46587, 1.15529, 6.597914156776279], "label": "Li", "properties": {}}, {"species": [{"element": "Li", "occu": 1}], "abc": [0.25, 0.75, 0.09433132000000001], "xyz": [1.15529, 3.46587, 4.35920141597464], "label": "Li", "properties": {}}, {"species": [{"element": "Li", "occu": 1}], "abc": [0.75, 0.25, 0.09433132000000001], "xyz": [3.46587, 1.15529, 4.35920141597464], "label": "Li", "properties": {}}, {"species": [{"element": "Li", "occu": 1}], "abc": [0.25, 0.75, 0.14277614], "xyz": [1.15529, 3.46587, 6.597914156776279], "label": "Li", "properties": {}}, {"species": [{"element": "Li", "occu": 1}], "abc": [0.25, 0.25, 0.19109358999999998], "xyz": [1.15529, 1.15529, 8.83074092583118], "label": "Li", "properties": {}}, {"species": [{"element": "Li", "occu": 1}], "abc": [0.75, 0.75, 0.24064502000000002], "xyz": [3.46587, 3.46587, 11.12059188752204], "label": "Li", "properties": {}}, {"species": [{"element": "Li", "occu": 1}], "abc": [0.25, 0.25, 0.24064502000000002], "xyz": [1.15529, 1.15529, 11.12059188752204], "label": "Li", "properties": {}}, {"species": [{"element": "Li", "occu": 1}], "abc": [0.75, 0.75, 0.19109358999999998], "xyz": [3.46587, 3.46587, 8.83074092583118], "label": "Li", "properties": {}}, {"species": [{"element": "Li", "occu": 1}], "abc": [0.75, 0.25, 0.24071817999999998], "xyz": [3.46587, 1.15529, 11.12397272832436], "label": "Li", "properties": {}}, {"species": [{"element": "Li", "occu": 1}], "abc": [0.25, 0.75, 0.19181727999999998], "xyz": [1.15529, 3.46587, 8.864183800082559], "label": "Li", "properties": {}}, {"species": [{"element": "Li", "occu": 1}], "abc": [0.75, 0.25, 0.19181727999999998], "xyz": [3.46587, 1.15529, 8.864183800082559], "label": "Li", "properties": {}}, {"species": [{"element": "Li", "occu": 1}], "abc": [0.25, 0.75, 0.24071817999999998], "xyz": [1.15529, 3.46587, 11.12397272832436], "label": "Li", "properties": {}}, {"species": [{"element": "Li", "occu": 1}], "abc": [0.25, 0.25, 0.28969412], "xyz": [1.15529, 1.15529, 13.38722937518024], "label": "Li", "properties": {}}, {"species": [{"element": "Li", "occu": 1}], "abc": [0.75, 0.75, 0.33927572], "xyz": [3.46587, 3.46587, 15.67847454090344], "label": "Li", "properties": {}}, {"species": [{"element": "Li", "occu": 1}], "abc": [0.25, 0.25, 0.33927572], "xyz": [1.15529, 1.15529, 15.67847454090344], "label": "Li", "properties": {}}, {"species": [{"element": "Li", "occu": 1}], "abc": [0.75, 0.75, 0.28969412], "xyz": [3.46587, 3.46587, 13.38722937518024], "label": "Li", "properties": {}}, {"species": [{"element": "Li", "occu": 1}], "abc": [0.75, 0.25, 0.33847558], "xyz": [3.46587, 1.15529, 15.64149878967916], "label": "Li", "properties": {}}, {"species": [{"element": "Li", "occu": 1}], "abc": [0.25, 0.75, 0.28960658], "xyz": [1.15529, 3.46587, 13.383184011541159], "label": "Li", "properties": {}}, {"species": [{"element": "Li", "occu": 1}], "abc": [0.75, 0.25, 0.28960658], "xyz": [3.46587, 1.15529, 13.383184011541159], "label": "Li", "properties": {}}, {"species": [{"element": "Li", "occu": 1}], "abc": [0.25, 0.75, 0.33847558], "xyz": [1.15529, 3.46587, 15.64149878967916], "label": "Li", "properties": {}}, {"species": [{"element": "Li", "occu": 1}], "abc": [0.25, 0.25, 0.38917407000000004], "xyz": [1.15529, 1.15529, 17.984357231560143], "label": "Li", "properties": {}}, {"species": [{"element": "Li", "occu": 1}], "abc": [0.75, 0.75, 0.44004638], "xyz": [3.46587, 3.46587, 20.33524817410076], "label": "Li", "properties": {}}, {"species": [{"element": "Li", "occu": 1}], "abc": [0.25, 0.25, 0.44004638], "xyz": [1.15529, 1.15529, 20.33524817410076], "label": "Li", "properties": {}}, {"species": [{"element": "Li", "occu": 1}], "abc": [0.75, 0.75, 0.38917407000000004], "xyz": [3.46587, 3.46587, 17.984357231560143], "label": "Li", "properties": {}}, {"species": [{"element": "Li", "occu": 1}], "abc": [0.75, 0.25, 0.43675184], "xyz": [3.46587, 1.15529, 20.18300220284768], "label": "Li", "properties": {}}, {"species": [{"element": "Li", "occu": 1}], "abc": [0.25, 0.75, 0.3880967], "xyz": [1.15529, 3.46587, 17.9345702379134], "label": "Li", "properties": {}}, {"species": [{"element": "Li", "occu": 1}], "abc": [0.75, 0.25, 0.3880967], "xyz": [3.46587, 1.15529, 17.9345702379134], "label": "Li", "properties": {}}, {"species": [{"element": "Li", "occu": 1}], "abc": [0.25, 0.75, 0.43675184], "xyz": [1.15529, 3.46587, 20.18300220284768], "label": "Li", "properties": {}}, {"species": [{"element": "Li", "occu": 1}], "abc": [0.25, 0.25, 0.49286354000000004], "xyz": [1.15529, 1.15529, 22.776013750791083], "label": "Li", "properties": {}}, {"species": [{"element": "Li", "occu": 1}], "abc": [0.75, 0.75, 0.49286354000000004], "xyz": [3.46587, 3.46587, 22.776013750791083], "label": "Li", "properties": {}}, {"species": [{"element": "Li", "occu": 1}], "abc": [0.75, 0.25, 0.53105786], "xyz": [3.46587, 1.15529, 24.54103446529172], "label": "Li", "properties": {}}, {"species": [{"element": "Li", "occu": 1}], "abc": [0.25, 0.75, 0.48456092], "xyz": [1.15529, 3.46587, 22.39233637979384], "label": "Li", "properties": {}}, {"species": [{"element": "Li", "occu": 1}], "abc": [0.75, 0.25, 0.48456092], "xyz": [3.46587, 1.15529, 22.39233637979384], "label": "Li", "properties": {}}, {"species": [{"element": "Li", "occu": 1}], "abc": [0.25, 0.75, 0.53105786], "xyz": [1.15529, 3.46587, 24.54103446529172], "label": "Li", "properties": {}}, {"species": [{"element": "O", "occu": 1}], "abc": [0.0, 0.5, 0.06811342000000001], "xyz": [0.0, 2.31058, 3.1476302558988403], "label": "O", "properties": {}}, {"species": [{"element": "O", "occu": 1}], "abc": [0.0, 0.0, 0.017747630000000004], "xyz": [0.0, 0.0, 0.8201464140032602], "label": "O", "properties": {}}, {"species": [{"element": "O", "occu": 1}], "abc": [0.5, 0.0, 0.06811342000000001], "xyz": [2.31058, 0.0, 3.1476302558988403], "label": "O", "properties": {}}, {"species": [{"element": "O", "occu": 1}], "abc": [0.5, 0.5, 0.017747630000000004], "xyz": [2.31058, 2.31058, 0.8201464140032602], "label": "O", "properties": {}}, {"species": [{"element": "O", "occu": 1}], "abc": [0.0, 0.5, 0.16679923], "xyz": [0.0, 2.31058, 7.70805963066646], "label": "O", "properties": {}}, {"species": [{"element": "O", "occu": 1}], "abc": [0.0, 0.0, 0.11751729000000001], "xyz": [0.0, 0.0, 5.43066223359858], "label": "O", "properties": {}}, {"species": [{"element": "O", "occu": 1}], "abc": [0.5, 0.0, 0.16679923], "xyz": [2.31058, 0.0, 7.70805963066646], "label": "O", "properties": {}}, {"species": [{"element": "O", "occu": 1}], "abc": [0.5, 0.5, 0.11751729000000001], "xyz": [2.31058, 2.31058, 5.43066223359858], "label": "O", "properties": {}}, {"species": [{"element": "O", "occu": 1}], "abc": [0.0, 0.5, 0.26515049], "xyz": [0.0, 2.31058, 12.25302891398498], "label": "O", "properties": {}}, {"species": [{"element": "O", "occu": 1}], "abc": [0.0, 0.0, 0.21610011999999998], "xyz": [0.0, 0.0, 9.986332737592239], "label": "O", "properties": {}}, {"species": [{"element": "O", "occu": 1}], "abc": [0.5, 0.0, 0.26515049], "xyz": [2.31058, 0.0, 12.25302891398498], "label": "O", "properties": {}}, {"species": [{"element": "O", "occu": 1}], "abc": [0.5, 0.5, 0.21610011999999998], "xyz": [2.31058, 2.31058, 9.986332737592239], "label": "O", "properties": {}}, {"species": [{"element": "O", "occu": 1}], "abc": [0.0, 0.5, 0.36376169], "xyz": [0.0, 2.31058, 16.810010441127382], "label": "O", "properties": {}}, {"species": [{"element": "O", "occu": 1}], "abc": [0.0, 0.0, 0.31422047000000003], "xyz": [0.0, 0.0, 14.52063129989294], "label": "O", "properties": {}}, {"species": [{"element": "O", "occu": 1}], "abc": [0.5, 0.0, 0.36376169], "xyz": [2.31058, 0.0, 16.810010441127382], "label": "O", "properties": {}}, {"species": [{"element": "O", "occu": 1}], "abc": [0.5, 0.5, 0.31422047000000003], "xyz": [2.31058, 2.31058, 14.52063129989294], "label": "O", "properties": {}}, {"species": [{"element": "O", "occu": 1}], "abc": [0.0, 0.5, 0.46326306], "xyz": [0.0, 2.31058, 21.40812815002212], "label": "O", "properties": {}}, {"species": [{"element": "O", "occu": 1}], "abc": [0.0, 0.0, 0.41346369], "xyz": [0.0, 0.0, 19.10681948373138], "label": "O", "properties": {}}, {"species": [{"element": "O", "occu": 1}], "abc": [0.5, 0.0, 0.46326306], "xyz": [2.31058, 0.0, 21.40812815002212], "label": "O", "properties": {}}, {"species": [{"element": "O", "occu": 1}], "abc": [0.5, 0.5, 0.41346369], "xyz": [2.31058, 2.31058, 19.10681948373138], "label": "O", "properties": {}}, {"species": [{"element": "O", "occu": 1}], "abc": [0.0, 0.0, 0.51337828], "xyz": [0.0, 0.0, 23.724032750804557], "label": "O", "properties": {}}, {"species": [{"element": "O", "occu": 1}], "abc": [0.5, 0.5, 0.51337828], "xyz": [2.31058, 2.31058, 23.724032750804557], "label": "O", "properties": {}}]}, "formula": "(Li2O)22.0", "bandgap": 1.9907, "slab_thickness": 24.53641330509172}