{"miller": "001_0.10", "final_energy": -209.63713662, "gamma": 0.014236938074534047, "work_function": "Not calculated", "ionization_potentail": "Not calculated", "electron_affinity": "Not calculated", "is_stochiometric": true, "incar_parameters": {"SYSTEM": "unknown system", "LCOMPAT": false, "PREC": "normal", "ENMAX": 520.0, "ENAUG": 628.945, "EDIFF": 1e-05, "IALGO": 38, "IWAVPR": 11, "NBANDS": 140, "NBANDSLOW": -1, "NBANDSHIGH": -1, "NELECT": 228.0, "TURBO": 0, "IRESTART": 0, "NREBOOT": 0, "NMIN": 0, "EREF": 0.0, "ISMEAR": 0, "SIGMA": 0.05, "KSPACING": 0.5, "KGAMMA": true, "KBLOWUP": true, "LREAL": true, "ROPT": [-0.0005, -0.0005, -0.0005], "LMAXPAW": -100, "LMAXMIX": 2, "NLSPLINE": false, "ISTART": 0, "ICHARG": 2, "INIWAV": 1, "ISPIN": 1, "LNONCOLLINEAR": false, "MAGMOM": [0.6, 0.6, 0.6, 0.6, 0.6, 0.6, 0.6, 0.6, 0.6, 0.6, 0.6, 0.6, 0.6, 0.6, 0.6, 0.6, 0.6, 0.6, 0.6, 0.6, 0.6, 0.6, 0.6, 0.6, 0.6, 0.6, 0.6, 0.6, 0.6, 0.6, 0.6, 0.6, 0.6, 0.6, 0.6, 0.6, 0.6, 0.6, 0.6, 0.6, 0.6, 0.6, 0.6, 0.6, 0.6, 0.6, 0.6, 0.6], "NUPDOWN": -1.0, "LSORBIT": false, "SAXIS": [0.0, 0.0, 1.0], "LSPIRAL": false, "QSPIRAL": [0.0, 0.0, 0.0], "LZEROZ": false, "LASPH": false, "LMETAGGA": false, "NELM": 100, "NELMDL": -5, "NELMIN": 6, "ENINI": 520.0, "LDIAG": true, "LSUBROT": false, "WEIMIN": 0.001, "EBREAK": 2e-08, "DEPER": 0.3, "NRMM": 4, "TIME": 0.4, "AMIX": 0.4, "BMIX": 1.0, "AMIN": 0.1, "AMIX_MAG": 1.6, "BMIX_MAG": 1.0, "IMIX": 4, "MIXFIRST": false, "MAXMIX": -45, "WC": 100.0, "INIMIX": 1, "MIXPRE": 1, "MREMOVE": 5, "LDIPOL": false, "LMONO": false, "IDIPOL": 0, "EPSILON": 1.0, "DIPOL": [-100.0, -100.0, -100.0], "EFIELD": 0.0, "NGX": 36, "NGY": 48, "NGZ": 294, "NGXF": 72, "NGYF": 96, "NGZF": 588, "ADDGRID": false, "NSW": 150, "IBRION": 2, "MDALGO": 0, "ISIF": 2, "PSTRESS": 0.0, "EDIFFG": -0.01, "NFREE": 1, "POTIM": 0.5, "SMASS": -3.0, "SCALEE": 1.0, "TEBEG": 0.0001, "TEEND": 0.0001, "NBLOCK": 1, "KBLOCK": 150, "NPACO": 256, "APACO": 10.0, "ISYM": 0, "SYMPREC": 1e-05, "LORBIT": 11, "RWIGS": [-1.0, -1.0, -1.0], "NEDOS": 301, "EMIN": 10.0, "EMAX": -10.0, "EFERMI": 0.0, "NWRITE": 2, "LWAVE": false, "LDOWNSAMPLE": false, "LCHARG": false, "LPARD": false, "LVTOT": false, "LVHAR": false, "LELF": false, "LOPTICS": false, "STM": [0.0, 0.0, 0.0, 0.0, 0.0, 0.0, 0.0], "NPAR": 2, "NSIM": 4, "NBLK": -1, "LPLANE": true, "LSCALAPACK": true, "LSCAAWARE": false, "LSCALU": false, "LASYNC": false, "LORBITALREAL": false, "IDIOT": 3, "PHON_NSTRUCT": -1, "LMUSIC": false, "POMASS": [7.01, 30.974, 32.066], "DARWINR": [0.0, 0.0, 0.0], "DARWINV": [1.0, 1.0, 1.0], "LCORR": true, "GGA_COMPAT": true, "LBERRY": false, "ICORELEVEL": 0, "LDAU": false, "I_CONSTRAINED_M": 0, "GGA": "--", "VOSKOWN": 0, "LHFCALC": false, "PRECFOCK": "", "LSYMGRAD": false, "LHFONE": false, "LRHFCALC": false, "LTHOMAS": false, "LMODELHF": false, "LFOCKACE": false, "ENCUT4O": -1.0, "EXXOEP": 0, "FOURORBIT": 0, "AEXX": 0.0, "HFALPHA": 0.0, "MCALPHA": 0.0, "ALDAX": 1.0, "AGGAX": 1.0, "ALDAC": 1.0, "AGGAC": 1.0, "NKREDX": 1, "NKREDY": 1, "NKREDZ": 1, "SHIFTRED": false, "ODDONLY": false, "EVENONLY": false, "LMAXFOCK": 0, "NMAXFOCKAE": 0, "LFOCKAEDFT": false, "HFSCREEN": 0.0, "HFSCREENC": 0.0, "NBANDSGWLOW": 0, "LUSE_VDW": false, "Zab_VDW": -0.8491, "PARAM1": 0.1234, "PARAM2": 1.0, "PARAM3": 0.0, "MODEL_GW": 0, "MODEL_EPS0": 33.13317621, "MODEL_ALPHA": 1.0, "LEPSILON": false, "LRPA": false, "LNABLA": false, "LVEL": false, "CSHIFT": 0.1, "OMEGAMAX": -1.0, "DEG_THRESHOLD": 0.002, "RTIME": -0.1, "WPLASMAI": 0.0, "DFIELD": [0.0, 0.0, 0.0], "WPLASMA": [0.0, 0.0, 0.0, 0.0, 0.0, 0.0, 0.0, 0.0, 0.0], "NUCIND": false, "MAGPOS": [0.0, 0.0, 0.0], "LNICSALL": true, "ORBITALMAG": false, "LMAGBLOCH": false, "LCHIMAG": false, "LGAUGE": true, "MAGATOM": 0, "MAGDIPOL": [0.0, 0.0, 0.0], "AVECCONST": [0.0, 0.0, 0.0], "LFINITE_TEMPERATURE": false, "LADDER": false, "LRPAFORCE": false, "LFXC": false, "LHARTREE": true, "IBSE": 0, "KPOINT": [-1, 0, 0, 0], "LTCTC": false, "LTCTE": false, "LTETE": false, "LTRIPLET": false, "LFXCEPS": false, "LFXHEG": false, "NATURALO": 2, "LHOLEGF": false, "L2ORDER": false, "LDMP1": false, "LMP2LT": false, "LSMP2LT": false, "LGWLF": false, "ENCUTGW": -2.0, "ENCUTGWSOFT": -2.0, "ENCUTLF": -1.0, "LESF_SPLINES": false, "LMAXMP2": -1, "SCISSOR": 0.0, "NOMEGA": 0, "NOMEGAR": 0, "NBANDSGW": -1, "NBANDSO": -1, "NBANDSV": -1, "NELMGW": 1, "NELMHF": 1, "DIM": 3, "IESPILON": 4, "ANTIRES": 0, "OMEGAMIN": -30.0, "OMEGATL": -200.0, "OMEGAGRID": 0, "LSELFENERGY": false, "LSPECTRAL": false, "LSPECTRALGW": false, "LSINGLES": false, "LFERMIGW": false, "ODDONLYGW": false, "EVENONLYGW": false, "NKREDLFX": 1, "NKREDLFY": 1, "NKREDLFZ": 1, "MAXMEM": 2800, "TELESCOPE": 0, "NTAUPAR": -1, "NOMEGAPAR": -1, "DAMP_NEWTON": 0.80000001, "LAMBDA": 1.0, "OFIELD_KAPPA": 0.0, "OFIELD_K": [0.0, 0.0, 0.0], "OFIELD_Q6_NEAR": 0.0, "OFIELD_Q6_FAR": 0.0, "OFIELD_A": 0.0, "KPOINTS_OPT_MODE": 1, "LKPOINTS_OPT": false, "@module": "pymatgen.io.vasp.inputs", "@class": "Incar"}, "relaxed_structures": {"@module": "pymatgen.core.structure", "@class": "Structure", "charge": 0, "lattice": {"matrix": [[6.259951, 0.0, 0.0], [0.0, 8.106791, 0.0], [0.0, 0.0, 52.231578]], "a": 6.259951, "b": 8.106791, "c": 52.231578, "alpha": 90.0, "beta": 90.0, "gamma": 90.0, "volume": 2650.6540970593637}, "sites": [{"species": [{"element": "Li", "occu": 1}], "abc": [0.10990465, 0.96748525, 0.12295037], "xyz": [0.6879977236721501, 7.843200717332749, 6.42189184078386], "label": "Li", "properties": {}}, {"species": [{"element": "Li", "occu": 1}], "abc": [0.61019139, 0.03641427, 0.08127783], "xyz": [3.81976820202189, 0.29520287630757, 4.245269317315739], "label": "Li", "properties": {}}, {"species": [{"element": "Li", "occu": 1}], "abc": [0.40817005, 0.9763777, 0.0037258299999999994], "xyz": [2.55512451266755, 7.9152899509607, 0.19460598025973996], "label": "Li", "properties": {}}, {"species": [{"element": "Li", "occu": 1}], "abc": [0.40817223, 0.52361689, 0.0037238200000000027], "xyz": [2.5551381593607303, 4.2448526912999895, 0.19450099478796012], "label": "Li", "properties": {}}, {"species": [{"element": "Li", "occu": 1}], "abc": [0.61017416, 0.46353784, 0.08128748], "xyz": [3.81966034306616, 3.7578043894714397, 4.2457733520434395], "label": "Li", "properties": {}}, {"species": [{"element": "Li", "occu": 1}], "abc": [0.10970982, 0.53293475, 0.12299927], "xyz": [0.68677809741882, 4.32039063488725, 6.42444596494806], "label": "Li", "properties": {}}, {"species": [{"element": "Li", "occu": 1}], "abc": [0.49984084, 0.00073672, 0.16505556], "xyz": [3.12897916619884, 0.005972435065519999, 8.62111235647368], "label": "Li", "properties": {}}, {"species": [{"element": "Li", "occu": 1}], "abc": [0.98104338, 0.99360074, 0.03963024], "xyz": [6.1412834876743805, 8.054913536625339, 2.06994997171872], "label": "Li", "properties": {}}, {"species": [{"element": "Li", "occu": 1}], "abc": [0.9810668, 0.50637872, 0.039631730000000004], "xyz": [6.1414300957268, 4.105106449887519, 2.0700277967699403], "label": "Li", "properties": {}}, {"species": [{"element": "Li", "occu": 1}], "abc": [0.49981511, 0.49926966, 0.16505336], "xyz": [3.12881809765961, 4.04747478626106, 8.62099744700208], "label": "Li", "properties": {}}, {"species": [{"element": "Li", "occu": 1}], "abc": [0.88987289, 0.03286787, 0.20696652], "xyz": [5.57056068762839, 0.26645295270517, 10.810187932768558], "label": "Li", "properties": {}}, {"species": [{"element": "Li", "occu": 1}], "abc": [0.5901519, 0.0239025, 0.32604496], "xyz": [3.6943219765568998, 0.1937725718775, 17.02984275974688], "label": "Li", "properties": {}}, {"species": [{"element": "Li", "occu": 1}], "abc": [0.39020547, 0.9628333, 0.24873215999999998], "xyz": [2.44266712213197, 7.8054883309403, 12.99167321614848], "label": "Li", "properties": {}}, {"species": [{"element": "Li", "occu": 1}], "abc": [0.3902809, 0.53685152, 0.24873437999999998], "xyz": [2.4431393102359, 4.35214307067232, 12.99178917025164], "label": "Li", "properties": {}}, {"species": [{"element": "Li", "occu": 1}], "abc": [0.59016945, 0.47608211, 0.32604766], "xyz": [3.69443183869695, 3.85949816460901, 17.02998378500748], "label": "Li", "properties": {}}, {"species": [{"element": "Li", "occu": 1}], "abc": [0.88982405, 0.46714999, 0.20698591], "xyz": [5.57025495162155, 3.7870873345820897, 10.81120070306598], "label": "Li", "properties": {}}, {"species": [{"element": "Li", "occu": 1}], "abc": [0.02340557, 0.0094479, 0.29013186], "xyz": [0.14651772132707, 0.0765921506889, 15.15404487587508], "label": "Li", "properties": {}}, {"species": [{"element": "Li", "occu": 1}], "abc": [0.02345228, 0.49050842, 0.29014494], "xyz": [0.14681012363828, 3.9764492446802198, 15.15472806491532], "label": "Li", "properties": {}}, {"species": [{"element": "P", "occu": 1}], "abc": [0.84632192, 0.25001726, 0.14242116], "xyz": [5.29793374942592, 2.02683767321266, 7.438881927390479], "label": "P", "properties": {}}, {"species": [{"element": "P", "occu": 1}], "abc": [0.15349341, 0.75003339, 0.18748953], "xyz": [0.96086122542291, 6.08036393575149, 9.79287401037834], "label": "P", "properties": {}}, {"species": [{"element": "P", "occu": 1}], "abc": [0.34622146, 0.74996599, 0.062155260000000004], "xyz": [2.16732937474846, 6.079817538038089, 3.24646731080028], "label": "P", "properties": {}}, {"species": [{"element": "P", "occu": 1}], "abc": [0.66394764, 0.24999793, 0.016729229999999998], "xyz": [4.15627969296564, 2.02668096894263, 0.8737940816249399], "label": "P", "properties": {}}, {"species": [{"element": "P", "occu": 1}], "abc": [0.33485391, 0.7499832, 0.31323447], "xyz": [2.09616906875841, 6.0799570559111995, 16.360730652093658], "label": "P", "properties": {}}, {"species": [{"element": "P", "occu": 1}], "abc": [0.65430489, 0.24997786, 0.26780771], "xyz": [4.09591655046039, 2.02651826564726, 13.988019293866378], "label": "P", "properties": {}}, {"species": [{"element": "S", "occu": 1}], "abc": [0.72873788, 0.46357891, 0.12643366], "xyz": [4.5618634206438795, 3.75813733537781, 6.60382957411548], "label": "S", "properties": {}}, {"species": [{"element": "S", "occu": 1}], "abc": [0.22845665, 0.53636904, 0.07776722], "xyz": [1.4301274346241502, 4.3482317061506395, 4.06190461727316], "label": "S", "properties": {}}, {"species": [{"element": "S", "occu": 1}], "abc": [0.77561837, 0.46104318, 0.00010324999999999918], "xyz": [4.85533299089987, 3.7375807022353795, 0.005392910428499957], "label": "S", "properties": {}}, {"species": [{"element": "S", "occu": 1}], "abc": [0.77562258, 0.03896624, 0.00010000000000000286], "xyz": [4.8553593452935795, 0.31589116373584, 0.005223157800000149], "label": "S", "properties": {}}, {"species": [{"element": "S", "occu": 1}], "abc": [0.22847131, 0.96365088, 0.07775027000000001], "xyz": [1.43021920550581, 7.812116281126079, 4.06101929202606], "label": "S", "properties": {}}, {"species": [{"element": "S", "occu": 1}], "abc": [0.72882295, 0.03643653, 0.12643496], "xyz": [4.56239595467545, 0.29538333347523, 6.603897475166881], "label": "S", "properties": {}}, {"species": [{"element": "S", "occu": 1}], "abc": [0.27303838, 0.75011467, 0.15006408], "xyz": [1.7092068799193803, 6.08102285572397, 7.838083699518239], "label": "S", "properties": {}}, {"species": [{"element": "S", "occu": 1}], "abc": [0.72710583, 0.25002872, 0.17988641], "xyz": [4.55164686761433, 2.0269305770375197, 9.39575105505498], "label": "S", "properties": {}}, {"species": [{"element": "S", "occu": 1}], "abc": [0.78098634, 0.24997341, 0.05464753], "xyz": [4.88893622006934, 2.02648219042731, 2.85432672570234], "label": "S", "properties": {}}, {"species": [{"element": "S", "occu": 1}], "abc": [0.22662761, 0.74998396, 0.024459350000000005], "xyz": [1.4186777338471102, 6.079963217072359, 1.2775504473543002], "label": "S", "properties": {}}, {"species": [{"element": "S", "occu": 1}], "abc": [0.17150898, 0.2500726, 0.13945511], "xyz": [1.07363781085998, 2.0272863030265995, 7.283960455463579], "label": "S", "properties": {}}, {"species": [{"element": "S", "occu": 1}], "abc": [0.67187002, 0.74998394, 0.06496882000000001], "xyz": [4.2058734035690195, 6.07996305493654, 3.3934239893979603], "label": "S", "properties": {}}, {"species": [{"element": "S", "occu": 1}], "abc": [0.33473988, 0.25000076, 0.015555310000000003], "xyz": [2.09545524654588, 2.0267039111611598, 0.8124783875791801], "label": "S", "properties": {}}, {"species": [{"element": "S", "occu": 1}], "abc": [0.27092019, 0.5365279, 0.20355739], "xyz": [1.6959471143106901, 4.349519550968899, 10.63212369326142], "label": "S", "properties": {}}, {"species": [{"element": "S", "occu": 1}], "abc": [0.22326194, 0.53900177, 0.32991305], "xyz": [1.39760880456494, 4.36957469802007, 17.2318792042929], "label": "S", "properties": {}}, {"species": [{"element": "S", "occu": 1}], "abc": [0.77188732, 0.46346688, 0.25217182], "xyz": [4.83197680072132, 3.75722913158208, 13.17133208573196], "label": "S", "properties": {}}, {"species": [{"element": "S", "occu": 1}], "abc": [0.77194514, 0.03654984, 0.25216411], "xyz": [4.83233875108814, 0.29630191396343997, 13.17092938026558], "label": "S", "properties": {}}, {"species": [{"element": "S", "occu": 1}], "abc": [0.22313787, 0.96097992, 0.32989709], "xyz": [1.39683213244437, 7.790463366636719, 17.23104558830802], "label": "S", "properties": {}}, {"species": [{"element": "S", "occu": 1}], "abc": [0.27100838, 0.96346358, 0.20356986999999999], "xyz": [1.69649917938938, 7.810597879171779, 10.632775543354859], "label": "S", "properties": {}}, {"species": [{"element": "S", "occu": 1}], "abc": [0.77385821, 0.24998736, 0.3054675], "xyz": [4.84431447554771, 2.02659528016176, 15.955049552715], "label": "S", "properties": {}}, {"species": [{"element": "S", "occu": 1}], "abc": [0.21756701, 0.74994622, 0.27531253], "xyz": [1.36195882181651, 6.0796572667800195, 14.38000788507234], "label": "S", "properties": {}}, {"species": [{"element": "S", "occu": 1}], "abc": [0.82830242, 0.75005926, 0.19038462], "xyz": [5.18513256238142, 6.08057365843466, 9.94408912953036], "label": "S", "properties": {}}, {"species": [{"element": "S", "occu": 1}], "abc": [0.66361648, 0.74996554, 0.31422313], "xyz": [4.1542066475924795, 6.07981388998214, 16.41236992399914], "label": "S", "properties": {}}, {"species": [{"element": "S", "occu": 1}], "abc": [0.32829405, 0.24987712, 0.26504841], "xyz": [2.05510466659155, 2.0257015875219198, 13.84389670069098], "label": "S", "properties": {}}]}, "formula": "(Li3PS4)6.0", "bandgap": 2.7631, "slab_thickness": 17.2266560464929}