{"miller": "001_0.13", "final_energy": -209.64144267, "gamma": 0.01419451236031199, "work_function": "Not calculated", "ionization_potentail": "Not calculated", "electron_affinity": "Not calculated", "is_stochiometric": true, "incar_parameters": {"SYSTEM": "unknown system", "LCOMPAT": false, "PREC": "normal", "ENMAX": 520.0, "ENAUG": 628.945, "EDIFF": 1e-05, "IALGO": 38, "IWAVPR": 11, "NBANDS": 140, "NBANDSLOW": -1, "NBANDSHIGH": -1, "NELECT": 228.0, "TURBO": 0, "IRESTART": 0, "NREBOOT": 0, "NMIN": 0, "EREF": 0.0, "ISMEAR": 0, "SIGMA": 0.05, "KSPACING": 0.5, "KGAMMA": true, "KBLOWUP": true, "LREAL": true, "ROPT": [-0.0005, -0.0005, -0.0005], "LMAXPAW": -100, "LMAXMIX": 2, "NLSPLINE": false, "ISTART": 0, "ICHARG": 2, "INIWAV": 1, "ISPIN": 1, "LNONCOLLINEAR": false, "MAGMOM": [0.6, 0.6, 0.6, 0.6, 0.6, 0.6, 0.6, 0.6, 0.6, 0.6, 0.6, 0.6, 0.6, 0.6, 0.6, 0.6, 0.6, 0.6, 0.6, 0.6, 0.6, 0.6, 0.6, 0.6, 0.6, 0.6, 0.6, 0.6, 0.6, 0.6, 0.6, 0.6, 0.6, 0.6, 0.6, 0.6, 0.6, 0.6, 0.6, 0.6, 0.6, 0.6, 0.6, 0.6, 0.6, 0.6, 0.6, 0.6], "NUPDOWN": -1.0, "LSORBIT": false, "SAXIS": [0.0, 0.0, 1.0], "LSPIRAL": false, "QSPIRAL": [0.0, 0.0, 0.0], "LZEROZ": false, "LASPH": false, "LMETAGGA": false, "NELM": 100, "NELMDL": -5, "NELMIN": 6, "ENINI": 520.0, "LDIAG": true, "LSUBROT": false, "WEIMIN": 0.001, "EBREAK": 2e-08, "DEPER": 0.3, "NRMM": 4, "TIME": 0.4, "AMIX": 0.4, "BMIX": 1.0, "AMIN": 0.1, "AMIX_MAG": 1.6, "BMIX_MAG": 1.0, "IMIX": 4, "MIXFIRST": false, "MAXMIX": -45, "WC": 100.0, "INIMIX": 1, "MIXPRE": 1, "MREMOVE": 5, "LDIPOL": false, "LMONO": false, "IDIPOL": 0, "EPSILON": 1.0, "DIPOL": [-100.0, -100.0, -100.0], "EFIELD": 0.0, "NGX": 36, "NGY": 48, "NGZ": 294, "NGXF": 72, "NGYF": 96, "NGZF": 588, "ADDGRID": false, "NSW": 150, "IBRION": 2, "MDALGO": 0, "ISIF": 2, "PSTRESS": 0.0, "EDIFFG": -0.01, "NFREE": 1, "POTIM": 0.5, "SMASS": -3.0, "SCALEE": 1.0, "TEBEG": 0.0001, "TEEND": 0.0001, "NBLOCK": 1, "KBLOCK": 150, "NPACO": 256, "APACO": 10.0, "ISYM": 0, "SYMPREC": 1e-05, "LORBIT": 11, "RWIGS": [-1.0, -1.0, -1.0], "NEDOS": 301, "EMIN": 10.0, "EMAX": -10.0, "EFERMI": 0.0, "NWRITE": 2, "LWAVE": false, "LDOWNSAMPLE": false, "LCHARG": false, "LPARD": false, "LVTOT": false, "LVHAR": false, "LELF": false, "LOPTICS": false, "STM": [0.0, 0.0, 0.0, 0.0, 0.0, 0.0, 0.0], "NPAR": 2, "NSIM": 4, "NBLK": -1, "LPLANE": true, "LSCALAPACK": true, "LSCAAWARE": false, "LSCALU": false, "LASYNC": false, "LORBITALREAL": false, "IDIOT": 3, "PHON_NSTRUCT": -1, "LMUSIC": false, "POMASS": [7.01, 30.974, 32.066], "DARWINR": [0.0, 0.0, 0.0], "DARWINV": [1.0, 1.0, 1.0], "LCORR": true, "GGA_COMPAT": true, "LBERRY": false, "ICORELEVEL": 0, "LDAU": false, "I_CONSTRAINED_M": 0, "GGA": "--", "VOSKOWN": 0, "LHFCALC": false, "PRECFOCK": "", "LSYMGRAD": false, "LHFONE": false, "LRHFCALC": false, "LTHOMAS": false, "LMODELHF": false, "LFOCKACE": false, "ENCUT4O": -1.0, "EXXOEP": 0, "FOURORBIT": 0, "AEXX": 0.0, "HFALPHA": 0.0, "MCALPHA": 0.0, "ALDAX": 1.0, "AGGAX": 1.0, "ALDAC": 1.0, "AGGAC": 1.0, "NKREDX": 1, "NKREDY": 1, "NKREDZ": 1, "SHIFTRED": false, "ODDONLY": false, "EVENONLY": false, "LMAXFOCK": 0, "NMAXFOCKAE": 0, "LFOCKAEDFT": false, "HFSCREEN": 0.0, "HFSCREENC": 0.0, "NBANDSGWLOW": 0, "LUSE_VDW": false, "Zab_VDW": -0.8491, "PARAM1": 0.1234, "PARAM2": 1.0, "PARAM3": 0.0, "MODEL_GW": 0, "MODEL_EPS0": 33.13317621, "MODEL_ALPHA": 1.0, "LEPSILON": false, "LRPA": false, "LNABLA": false, "LVEL": false, "CSHIFT": 0.1, "OMEGAMAX": -1.0, "DEG_THRESHOLD": 0.002, "RTIME": -0.1, "WPLASMAI": 0.0, "DFIELD": [0.0, 0.0, 0.0], "WPLASMA": [0.0, 0.0, 0.0, 0.0, 0.0, 0.0, 0.0, 0.0, 0.0], "NUCIND": false, "MAGPOS": [0.0, 0.0, 0.0], "LNICSALL": true, "ORBITALMAG": false, "LMAGBLOCH": false, "LCHIMAG": false, "LGAUGE": true, "MAGATOM": 0, "MAGDIPOL": [0.0, 0.0, 0.0], "AVECCONST": [0.0, 0.0, 0.0], "LFINITE_TEMPERATURE": false, "LADDER": false, "LRPAFORCE": false, "LFXC": false, "LHARTREE": true, "IBSE": 0, "KPOINT": [-1, 0, 0, 0], "LTCTC": false, "LTCTE": false, "LTETE": false, "LTRIPLET": false, "LFXCEPS": false, "LFXHEG": false, "NATURALO": 2, "LHOLEGF": false, "L2ORDER": false, "LDMP1": false, "LMP2LT": false, "LSMP2LT": false, "LGWLF": false, "ENCUTGW": -2.0, "ENCUTGWSOFT": -2.0, "ENCUTLF": -1.0, "LESF_SPLINES": false, "LMAXMP2": -1, "SCISSOR": 0.0, "NOMEGA": 0, "NOMEGAR": 0, "NBANDSGW": -1, "NBANDSO": -1, "NBANDSV": -1, "NELMGW": 1, "NELMHF": 1, "DIM": 3, "IESPILON": 4, "ANTIRES": 0, "OMEGAMIN": -30.0, "OMEGATL": -200.0, "OMEGAGRID": 0, "LSELFENERGY": false, "LSPECTRAL": false, "LSPECTRALGW": false, "LSINGLES": false, "LFERMIGW": false, "ODDONLYGW": false, "EVENONLYGW": false, "NKREDLFX": 1, "NKREDLFY": 1, "NKREDLFZ": 1, "MAXMEM": 2800, "TELESCOPE": 0, "NTAUPAR": -1, "NOMEGAPAR": -1, "DAMP_NEWTON": 0.80000001, "LAMBDA": 1.0, "OFIELD_KAPPA": 0.0, "OFIELD_K": [0.0, 0.0, 0.0], "OFIELD_Q6_NEAR": 0.0, "OFIELD_Q6_FAR": 0.0, "OFIELD_A": 0.0, "KPOINTS_OPT_MODE": 1, "LKPOINTS_OPT": false, "@module": "pymatgen.io.vasp.inputs", "@class": "Incar"}, "relaxed_structures": {"@module": "pymatgen.core.structure", "@class": "Structure", "charge": 0, "lattice": {"matrix": [[6.259951, 0.0, 0.0], [0.0, 8.106791, 0.0], [0.0, 0.0, 52.231578]], "a": 6.259951, "b": 8.106791, "c": 52.231578, "alpha": 90.0, "beta": 90.0, "gamma": 90.0, "volume": 2650.6540970593637}, "sites": [{"species": [{"element": "Li", "occu": 1}], "abc": [0.10679391, 0.96759499, 0.12284943000000001], "xyz": [0.66852464369841, 7.84409035657709, 6.41661958530054], "label": "Li", "properties": {}}, {"species": [{"element": "Li", "occu": 1}], "abc": [0.6082711, 0.03831804, 0.08117732], "xyz": [3.8077472807160997, 0.31063634180963995, 4.24001952141096], "label": "Li", "properties": {}}, {"species": [{"element": "Li", "occu": 1}], "abc": [0.41664091, 0.97442046, 0.0041326200000000035], "xyz": [2.6081516811954097, 7.89942301534386, 0.21585326387436019], "label": "Li", "properties": {}}, {"species": [{"element": "Li", "occu": 1}], "abc": [0.41642139, 0.52560655, 0.004142080000000006], "xyz": [2.60677749675189, 4.26098244908105, 0.21634737460224032], "label": "Li", "properties": {}}, {"species": [{"element": "Li", "occu": 1}], "abc": [0.60838298, 0.46169193, 0.08119018], "xyz": [3.80844764403398, 3.7428399828966294, 4.24069121950404], "label": "Li", "properties": {}}, {"species": [{"element": "Li", "occu": 1}], "abc": [0.1069398, 0.53242232, 0.12284538], "xyz": [0.6694379079498, 4.316236471975119, 6.41640804740964], "label": "Li", "properties": {}}, {"species": [{"element": "Li", "occu": 1}], "abc": [0.49974027, 0.99972564, 0.16461771], "xyz": [3.12834960292677, 8.104566820821239, 8.59824276004638], "label": "Li", "properties": {}}, {"species": [{"element": "Li", "occu": 1}], "abc": [0.98263834, 0.99365096, 0.03975124], "xyz": [6.15126785912134, 8.05532065966936, 2.07626999265672], "label": "Li", "properties": {}}, {"species": [{"element": "Li", "occu": 1}], "abc": [0.98324871, 0.50618061, 0.039772190000000006], "xyz": [6.15508874541321, 4.10350041352251, 2.07736424421582], "label": "Li", "properties": {}}, {"species": [{"element": "Li", "occu": 1}], "abc": [0.49975356, 0.50022003, 0.16461292000000002], "xyz": [3.12843279767556, 4.05517923722373, 8.597992570787762], "label": "Li", "properties": {}}, {"species": [{"element": "Li", "occu": 1}], "abc": [0.89258482, 0.03257331, 0.20657754], "xyz": [5.587537236543819, 0.26406501634821, 10.78987089355812], "label": "Li", "properties": {}}, {"species": [{"element": "Li", "occu": 1}], "abc": [0.58534898, 0.02388548, 0.32595764], "xyz": [3.66425593269998, 0.19363459429468, 17.02528189835592], "label": "Li", "properties": {}}, {"species": [{"element": "Li", "occu": 1}], "abc": [0.39213458, 0.96313575, 0.24845182999999998], "xyz": [2.45474325620558, 7.807940229878249, 12.977031137887739], "label": "Li", "properties": {}}, {"species": [{"element": "Li", "occu": 1}], "abc": [0.39169949, 0.53683973, 0.24842809], "xyz": [2.45201961412499, 4.352047491606429, 12.97579116022602], "label": "Li", "properties": {}}, {"species": [{"element": "Li", "occu": 1}], "abc": [0.5855259, 0.47610597, 0.32595509], "xyz": [3.6653634432309, 3.8596915926422697, 17.02514870783202], "label": "Li", "properties": {}}, {"species": [{"element": "Li", "occu": 1}], "abc": [0.89243026, 0.46738582, 0.20657802000000003], "xyz": [5.58656969851726, 3.7889991591036196, 10.789895964715562], "label": "Li", "properties": {}}, {"species": [{"element": "Li", "occu": 1}], "abc": [0.01914363, 0.00865724, 0.28968951], "xyz": [0.11983818576212998, 0.07018243531684, 15.13094023734678], "label": "Li", "properties": {}}, {"species": [{"element": "Li", "occu": 1}], "abc": [0.01942059, 0.4910177, 0.28970567], "xyz": [0.12157194179109002, 3.9805778712007, 15.131784299647261], "label": "Li", "properties": {}}, {"species": [{"element": "P", "occu": 1}], "abc": [0.84411386, 0.25019117, 0.14228956], "xyz": [5.28411140202086, 2.02824752523547, 7.43200825172568], "label": "P", "properties": {}}, {"species": [{"element": "P", "occu": 1}], "abc": [0.15518415, 0.7499526, 0.18736245], "xyz": [0.97144517497665, 6.079708988106599, 9.7862364214461], "label": "P", "properties": {}}, {"species": [{"element": "P", "occu": 1}], "abc": [0.34609948, 0.75000887, 0.06237129], "xyz": [2.16656578592548, 6.08016515723617, 3.2577508985956203], "label": "P", "properties": {}}, {"species": [{"element": "P", "occu": 1}], "abc": [0.66842442, 0.25003622, 0.01664463], "xyz": [4.18430411640342, 2.0269913779700195, 0.86937529012614], "label": "P", "properties": {}}, {"species": [{"element": "P", "occu": 1}], "abc": [0.33147306, 0.74994753, 0.31272454], "xyz": [2.07500511342006, 6.07966788667623, 16.33409620352412], "label": "P", "properties": {}}, {"species": [{"element": "P", "occu": 1}], "abc": [0.65327126, 0.25000685, 0.26746266], "xyz": [4.08944607730826, 2.0267532815183498, 13.96999678787748], "label": "P", "properties": {}}, {"species": [{"element": "S", "occu": 1}], "abc": [0.72669421, 0.46353085, 0.12619786000000002], "xyz": [4.54907014658371, 3.7577477230023497, 6.591513368023081], "label": "S", "properties": {}}, {"species": [{"element": "S", "occu": 1}], "abc": [0.22730925, 0.53639022, 0.0778993], "xyz": [1.4229447668467499, 4.34840340798402, 4.0688033640954], "label": "S", "properties": {}}, {"species": [{"element": "S", "occu": 1}], "abc": [0.78186169, 0.46085669, 0.00011494000000000087], "xyz": [4.89441586817719, 3.73606886678179, 0.006003497575320046], "label": "S", "properties": {}}, {"species": [{"element": "S", "occu": 1}], "abc": [0.78173987, 0.03919413, 0.00010000000000000286], "xyz": [4.89365328094637, 0.31773862033683, 0.005223157800000149], "label": "S", "properties": {}}, {"species": [{"element": "S", "occu": 1}], "abc": [0.22705432, 0.9635296, 0.07789661], "xyz": [1.42134891753832, 7.811133089513599, 4.06866286115058], "label": "S", "properties": {}}, {"species": [{"element": "S", "occu": 1}], "abc": [0.72645511, 0.03704863, 0.12617517], "xyz": [4.5475733922996096, 0.30034550024632994, 6.59032823351826], "label": "S", "properties": {}}, {"species": [{"element": "S", "occu": 1}], "abc": [0.2726268, 0.75000448, 0.14983115000000002], "xyz": [1.7066304092868, 6.080129568423679, 7.825917398054701], "label": "S", "properties": {}}, {"species": [{"element": "S", "occu": 1}], "abc": [0.72605555, 0.25014268, 0.17974810000000002], "xyz": [4.54507216627805, 2.02785442693988, 9.3885269055018], "label": "S", "properties": {}}, {"species": [{"element": "S", "occu": 1}], "abc": [0.78275416, 0.2500277, 0.054695070000000005], "xyz": [4.90000268664616, 2.0269223081107, 2.85680981492046], "label": "S", "properties": {}}, {"species": [{"element": "S", "occu": 1}], "abc": [0.22841147, 0.75003099, 0.024609310000000002], "xyz": [1.42984461003797, 6.080344479453089, 1.2853830947911802], "label": "S", "properties": {}}, {"species": [{"element": "S", "occu": 1}], "abc": [0.16927347, 0.2499774, 0.13940443000000002], "xyz": [1.0596436277999701, 2.0265145365233996, 7.281313359090541], "label": "S", "properties": {}}, {"species": [{"element": "S", "occu": 1}], "abc": [0.83011293, 0.750044, 0.19041179], "xyz": [5.19646626626643, 6.080449948804, 9.945508261504619], "label": "S", "properties": {}}, {"species": [{"element": "S", "occu": 1}], "abc": [0.67136757, 0.7500392, 0.0653048], "xyz": [4.20272809118907, 6.0804110362072, 3.4109727549743996], "label": "S", "properties": {}}, {"species": [{"element": "S", "occu": 1}], "abc": [0.33964213, 0.25003878, 0.015199869999999997], "xyz": [2.12614309133563, 2.02701213135498, 0.7939131954948598], "label": "S", "properties": {}}, {"species": [{"element": "S", "occu": 1}], "abc": [0.27335067, 0.5365427, 0.20332668000000004], "xyz": [1.7111618000171702, 4.3496395314757, 10.620073345901043], "label": "S", "properties": {}}, {"species": [{"element": "S", "occu": 1}], "abc": [0.21885663, 0.53905985, 0.32937432], "xyz": [1.37003177982513, 4.37004554044135, 17.20374048627696], "label": "S", "properties": {}}, {"species": [{"element": "S", "occu": 1}], "abc": [0.77223011, 0.46324572, 0.2518302], "xyz": [4.83412264932461, 3.7554362336845197, 13.1534887340556], "label": "S", "properties": {}}, {"species": [{"element": "S", "occu": 1}], "abc": [0.77221195, 0.03674689, 0.25183037], "xyz": [4.83400896861445, 0.29789935712998994, 13.15349761342386], "label": "S", "properties": {}}, {"species": [{"element": "S", "occu": 1}], "abc": [0.2186831, 0.96075059, 0.32938059000000003], "xyz": [1.3689454905281, 7.788604236256689, 17.20406797827102], "label": "S", "properties": {}}, {"species": [{"element": "S", "occu": 1}], "abc": [0.27343122, 0.96330972, 0.20333773], "xyz": [1.7116660390702199, 7.80935056830852, 10.62065050483794], "label": "S", "properties": {}}, {"species": [{"element": "S", "occu": 1}], "abc": [0.76994375, 0.24995979, 0.30525153], "xyz": [4.81981014775625, 2.0263717759338897, 15.94376909881434], "label": "S", "properties": {}}, {"species": [{"element": "S", "occu": 1}], "abc": [0.2164066, 0.7499156, 0.27475310000000003], "xyz": [1.3546947120766, 6.0794090368396, 14.350787973391801], "label": "S", "properties": {}}, {"species": [{"element": "S", "occu": 1}], "abc": [0.66021569, 0.75008043, 0.31415408], "xyz": [4.13291786883119, 6.08074527920013, 16.40876333353824], "label": "S", "properties": {}}, {"species": [{"element": "S", "occu": 1}], "abc": [0.32762631, 0.24995761, 0.26442322], "xyz": [2.05092464691081, 2.02635410312951, 13.81124204044116], "label": "S", "properties": {}}]}, "formula": "(Li3PS4)6.0", "bandgap": 2.7588, "slab_thickness": 17.19884482047102}