{"miller": "001_0.25", "final_energy": -279.97735443, "gamma": 0.014438846118126276, "work_function": 5.405484446424192, "ionization_potentail": -5.708184446424192, "electron_affinity": -2.952284446424192, "is_stochiometric": true, "incar_parameters": {"SYSTEM": "unknown system", "LCOMPAT": false, "PREC": "normal", "ENMAX": 520.0, "ENAUG": 628.945, "EDIFF": 1e-05, "IALGO": 38, "IWAVPR": 11, "NBANDS": 186, "NBANDSLOW": -1, "NBANDSHIGH": -1, "NELECT": 304.0, "TURBO": 0, "IRESTART": 0, "NREBOOT": 0, "NMIN": 0, "EREF": 0.0, "ISMEAR": 0, "SIGMA": 0.05, "KSPACING": 0.5, "KGAMMA": true, "KBLOWUP": true, "LREAL": true, "ROPT": [-0.0005, -0.0005, -0.0005], "LMAXPAW": -100, "LMAXMIX": 2, "NLSPLINE": false, "ISTART": 0, "ICHARG": 2, "INIWAV": 1, "ISPIN": 1, "LNONCOLLINEAR": false, "MAGMOM": [0.6, 0.6, 0.6, 0.6, 0.6, 0.6, 0.6, 0.6, 0.6, 0.6, 0.6, 0.6, 0.6, 0.6, 0.6, 0.6, 0.6, 0.6, 0.6, 0.6, 0.6, 0.6, 0.6, 0.6, 0.6, 0.6, 0.6, 0.6, 0.6, 0.6, 0.6, 0.6, 0.6, 0.6, 0.6, 0.6, 0.6, 0.6, 0.6, 0.6, 0.6, 0.6, 0.6, 0.6, 0.6, 0.6, 0.6, 0.6, 0.6, 0.6, 0.6, 0.6, 0.6, 0.6, 0.6, 0.6, 0.6, 0.6, 0.6, 0.6, 0.6, 0.6, 0.6, 0.6], "NUPDOWN": -1.0, "LSORBIT": false, "SAXIS": [0.0, 0.0, 1.0], "LSPIRAL": false, "QSPIRAL": [0.0, 0.0, 0.0], "LZEROZ": false, "LASPH": false, "LMETAGGA": false, "NELM": 100, "NELMDL": -5, "NELMIN": 6, "ENINI": 520.0, "LDIAG": true, "LSUBROT": false, "WEIMIN": 0.001, "EBREAK": 1e-08, "DEPER": 0.3, "NRMM": 4, "TIME": 0.4, "AMIX": 0.4, "BMIX": 1.0, "AMIN": 0.1, "AMIX_MAG": 1.6, "BMIX_MAG": 1.0, "IMIX": 4, "MIXFIRST": false, "MAXMIX": -45, "WC": 100.0, "INIMIX": 1, "MIXPRE": 1, "MREMOVE": 5, "LDIPOL": false, "LMONO": false, "IDIPOL": 0, "EPSILON": 1.0, "DIPOL": [-100.0, -100.0, -100.0], "EFIELD": 0.0, "NGX": 36, "NGY": 48, "NGZ": 294, "NGXF": 72, "NGYF": 96, "NGZF": 588, "ADDGRID": false, "NSW": 150, "IBRION": 2, "MDALGO": 0, "ISIF": 2, "PSTRESS": 0.0, "EDIFFG": -0.01, "NFREE": 1, "POTIM": 0.5, "SMASS": -3.0, "SCALEE": 1.0, "TEBEG": 0.0001, "TEEND": 0.0001, "NBLOCK": 1, "KBLOCK": 150, "NPACO": 256, "APACO": 10.0, "ISYM": 0, "SYMPREC": 1e-05, "LORBIT": 11, "RWIGS": [-1.0, -1.0, -1.0], "NEDOS": 301, "EMIN": 10.0, "EMAX": -10.0, "EFERMI": 0.0, "NWRITE": 2, "LWAVE": false, "LDOWNSAMPLE": false, "LCHARG": false, "LPARD": false, "LVTOT": false, "LVHAR": false, "LELF": false, "LOPTICS": false, "STM": [0.0, 0.0, 0.0, 0.0, 0.0, 0.0, 0.0], "NPAR": 2, "NSIM": 4, "NBLK": -1, "LPLANE": true, "LSCALAPACK": true, "LSCAAWARE": false, "LSCALU": false, "LASYNC": false, "LORBITALREAL": false, "IDIOT": 3, "PHON_NSTRUCT": -1, "LMUSIC": false, "POMASS": [7.01, 30.974, 32.066], "DARWINR": [0.0, 0.0, 0.0], "DARWINV": [1.0, 1.0, 1.0], "LCORR": true, "GGA_COMPAT": true, "LBERRY": false, "ICORELEVEL": 0, "LDAU": false, "I_CONSTRAINED_M": 0, "GGA": "--", "VOSKOWN": 0, "LHFCALC": false, "PRECFOCK": "", "LSYMGRAD": false, "LHFONE": false, "LRHFCALC": false, "LTHOMAS": false, "LMODELHF": false, "LFOCKACE": false, "ENCUT4O": -1.0, "EXXOEP": 0, "FOURORBIT": 0, "AEXX": 0.0, "HFALPHA": 0.0, "MCALPHA": 0.0, "ALDAX": 1.0, "AGGAX": 1.0, "ALDAC": 1.0, "AGGAC": 1.0, "NKREDX": 1, "NKREDY": 1, "NKREDZ": 1, "SHIFTRED": false, "ODDONLY": false, "EVENONLY": false, "LMAXFOCK": 0, "NMAXFOCKAE": 0, "LFOCKAEDFT": false, "HFSCREEN": 0.0, "HFSCREENC": 0.0, "NBANDSGWLOW": 0, "LUSE_VDW": false, "Zab_VDW": -0.8491, "PARAM1": 0.1234, "PARAM2": 1.0, "PARAM3": 0.0, "MODEL_GW": 0, "MODEL_EPS0": 24.84988216, "MODEL_ALPHA": 1.0, "LEPSILON": false, "LRPA": false, "LNABLA": false, "LVEL": false, "CSHIFT": 0.1, "OMEGAMAX": -1.0, "DEG_THRESHOLD": 0.002, "RTIME": -0.1, "WPLASMAI": 0.0, "DFIELD": [0.0, 0.0, 0.0], "WPLASMA": [0.0, 0.0, 0.0, 0.0, 0.0, 0.0, 0.0, 0.0, 0.0], "NUCIND": false, "MAGPOS": [0.0, 0.0, 0.0], "LNICSALL": true, "ORBITALMAG": false, "LMAGBLOCH": false, "LCHIMAG": false, "LGAUGE": true, "MAGATOM": 0, "MAGDIPOL": [0.0, 0.0, 0.0], "AVECCONST": [0.0, 0.0, 0.0], "LFINITE_TEMPERATURE": false, "LADDER": false, "LRPAFORCE": false, "LFXC": false, "LHARTREE": true, "IBSE": 0, "KPOINT": [-1, 0, 0, 0], "LTCTC": false, "LTCTE": false, "LTETE": false, "LTRIPLET": false, "LFXCEPS": false, "LFXHEG": false, "NATURALO": 2, "LHOLEGF": false, "L2ORDER": false, "LDMP1": false, "LMP2LT": false, "LSMP2LT": false, "LGWLF": false, "ENCUTGW": -2.0, "ENCUTGWSOFT": -2.0, "ENCUTLF": -1.0, "LESF_SPLINES": false, "LMAXMP2": -1, "SCISSOR": 0.0, "NOMEGA": 0, "NOMEGAR": 0, "NBANDSGW": -1, "NBANDSO": -1, "NBANDSV": -1, "NELMGW": 1, "NELMHF": 1, "DIM": 3, "IESPILON": 4, "ANTIRES": 0, "OMEGAMIN": -30.0, "OMEGATL": -200.0, "OMEGAGRID": 0, "LSELFENERGY": false, "LSPECTRAL": false, "LSPECTRALGW": false, "LSINGLES": false, "LFERMIGW": false, "ODDONLYGW": false, "EVENONLYGW": false, "NKREDLFX": 1, "NKREDLFY": 1, "NKREDLFZ": 1, "MAXMEM": 2800, "TELESCOPE": 0, "NTAUPAR": -1, "NOMEGAPAR": -1, "DAMP_NEWTON": 0.80000001, "LAMBDA": 1.0, "OFIELD_KAPPA": 0.0, "OFIELD_K": [0.0, 0.0, 0.0], "OFIELD_Q6_NEAR": 0.0, "OFIELD_Q6_FAR": 0.0, "OFIELD_A": 0.0, "KPOINTS_OPT_MODE": 1, "LKPOINTS_OPT": false, "@module": "pymatgen.io.vasp.inputs", "@class": "Incar"}, "relaxed_structures": {"@module": "pymatgen.core.structure", "@class": "Structure", "charge": 0, "lattice": {"matrix": [[6.259951, 0.0, 0.0], [0.0, 8.106791, 0.0], [0.0, 0.0, 52.231578]], "a": 6.259951, "b": 8.106791, "c": 52.231578, "alpha": 90.0, "beta": 90.0, "gamma": 90.0, "volume": 2650.6540970593637}, "sites": [{"species": [{"element": "Li", "occu": 1}], "abc": [0.10696124, 0.96794227, 0.1228776], "xyz": [0.66957212129924, 7.846905682955569, 6.4180909488528], "label": "Li", "properties": {}}, {"species": [{"element": "Li", "occu": 1}], "abc": [0.8861515, 0.0319755, 0.20665687], "xyz": [5.5472649685765, 0.2592186956205, 10.79401442464086], "label": "Li", "properties": {}}, {"species": [{"element": "Li", "occu": 1}], "abc": [0.60805661, 0.03802142, 0.0811851], "xyz": [3.80640458382611, 0.30823170546322, 4.240425883087799], "label": "Li", "properties": {}}, {"species": [{"element": "Li", "occu": 1}], "abc": [0.41327204, 0.97508921, 0.0037043200000000005], "xyz": [2.58706272007004, 7.90484443182511, 0.19348247901696003], "label": "Li", "properties": {}}, {"species": [{"element": "Li", "occu": 1}], "abc": [0.41329619, 0.52494463, 0.00365973], "xyz": [2.58721389788669, 4.25561640198233, 0.19115347295394], "label": "Li", "properties": {}}, {"species": [{"element": "Li", "occu": 1}], "abc": [0.60806839, 0.46198132, 0.08118186], "xyz": [3.80647832604889, 3.7451860071441194, 4.24025665277508], "label": "Li", "properties": {}}, {"species": [{"element": "Li", "occu": 1}], "abc": [0.88615179, 0.46802167, 0.20665686], "xyz": [5.54726678396229, 3.79415386216097, 10.79401390232508], "label": "Li", "properties": {}}, {"species": [{"element": "Li", "occu": 1}], "abc": [0.10695365, 0.53206445, 0.12287644], "xyz": [0.66952460827115, 4.31333529467995, 6.41803036022232], "label": "Li", "properties": {}}, {"species": [{"element": "Li", "occu": 1}], "abc": [0.49942794, 0.99932314, 0.16480697], "xyz": [3.1263944324309403, 8.101303837443739, 8.60812810849866], "label": "Li", "properties": {}}, {"species": [{"element": "Li", "occu": 1}], "abc": [0.97933997, 0.99253706, 0.03975204], "xyz": [6.130620224541469, 8.04629050517446, 2.0763117779191202], "label": "Li", "properties": {}}, {"species": [{"element": "Li", "occu": 1}], "abc": [0.97938607, 0.50745955, 0.039753769999999994], "xyz": [6.1309088082825705, 4.11386851280405, 2.0764021385490596], "label": "Li", "properties": {}}, {"species": [{"element": "Li", "occu": 1}], "abc": [0.49945376, 0.50068146, 0.16480604999999998], "xyz": [3.12655606436576, 4.0589199537948595, 8.6080800554469], "label": "Li", "properties": {}}, {"species": [{"element": "Li", "occu": 1}], "abc": [0.10807998, 0.96198863, 0.37400532], "xyz": [0.6765753788809801, 7.798640767786329, 19.534888043994957], "label": "Li", "properties": {}}, {"species": [{"element": "Li", "occu": 1}], "abc": [0.9131588, 0.02485301, 0.45145549], "xyz": [5.7163293432188, 0.20147815779090997, 23.58023263946322], "label": "Li", "properties": {}}, {"species": [{"element": "Li", "occu": 1}], "abc": [0.60695603, 0.03204041, 0.33231341999999997], "xyz": [3.79951500695453, 0.25974490742430995, 17.357254317176757], "label": "Li", "properties": {}}, {"species": [{"element": "Li", "occu": 1}], "abc": [0.38614029, 0.96801992, 0.24853398], "xyz": [2.41721929452579, 7.84753517527672, 12.98132196202044], "label": "Li", "properties": {}}, {"species": [{"element": "Li", "occu": 1}], "abc": [0.38614654, 0.53198251, 0.2485364], "xyz": [2.41725841921954, 4.312671024225409, 12.981448362439199], "label": "Li", "properties": {}}, {"species": [{"element": "Li", "occu": 1}], "abc": [0.60690621, 0.46792521, 0.33230529999999997], "xyz": [3.79920313619571, 3.7933718811011095, 17.356830196763397], "label": "Li", "properties": {}}, {"species": [{"element": "Li", "occu": 1}], "abc": [0.91325059, 0.47508071, 0.45148688], "xyz": [5.71690394412109, 3.85138002410161, 23.58187218869664], "label": "Li", "properties": {}}, {"species": [{"element": "Li", "occu": 1}], "abc": [0.10807133, 0.53801887, 0.37400913], "xyz": [0.6765212303048299, 4.36160653314617, 19.53508704630714], "label": "Li", "properties": {}}, {"species": [{"element": "Li", "occu": 1}], "abc": [0.47934577, 0.00745963, 0.41543574], "xyz": [3.00068103225727, 0.060473661347329996, 21.69886425779772], "label": "Li", "properties": {}}, {"species": [{"element": "Li", "occu": 1}], "abc": [0.99944207, 0.00068071, 0.29038296], "xyz": [6.256458385538569, 0.005518373701609999, 15.16716022511088], "label": "Li", "properties": {}}, {"species": [{"element": "Li", "occu": 1}], "abc": [0.99946604, 0.49931524, 0.29038573], "xyz": [6.25660843656404, 4.04784429379484, 15.16730490658194], "label": "Li", "properties": {}}, {"species": [{"element": "Li", "occu": 1}], "abc": [0.47935015, 0.49254815, 0.41543793], "xyz": [3.00070845084265, 3.99298490948665, 21.69897864495354], "label": "Li", "properties": {}}, {"species": [{"element": "P", "occu": 1}], "abc": [0.84312226, 0.24997985, 0.14224954], "xyz": [5.27790403460926, 2.02653439816135, 7.42991794397412], "label": "P", "properties": {}}, {"species": [{"element": "P", "occu": 1}], "abc": [0.15164502, 0.74999519, 0.18725904], "xyz": [0.94929039459402, 6.0800542563352895, 9.78083515396512], "label": "P", "properties": {}}, {"species": [{"element": "P", "occu": 1}], "abc": [0.3453734, 0.74998356, 0.06211437], "xyz": [2.1620205607034, 6.079959974355959, 3.24433156157586], "label": "P", "properties": {}}, {"species": [{"element": "P", "occu": 1}], "abc": [0.66629278, 0.24999103, 0.016655979999999997], "xyz": [4.17096015445378, 2.0266250320847297, 0.8699681185364398], "label": "P", "properties": {}}, {"species": [{"element": "P", "occu": 1}], "abc": [0.84537455, 0.25003028, 0.39307685], "xyz": [5.29200325964705, 2.0269432236314797, 20.531024150769298], "label": "P", "properties": {}}, {"species": [{"element": "P", "occu": 1}], "abc": [0.16626576, 0.74998825, 0.4385363], "xyz": [1.0408155105777601, 6.0799979952057495, 22.905442959281398], "label": "P", "properties": {}}, {"species": [{"element": "P", "occu": 1}], "abc": [0.34309575, 0.75001399, 0.31293951999999997], "xyz": [2.14776258330825, 6.08020666400609, 16.34532494816256], "label": "P", "properties": {}}, {"species": [{"element": "P", "occu": 1}], "abc": [0.65157989, 0.25000567, 0.26793948], "xyz": [4.07885818398539, 2.02674371550497, 13.99490184889944], "label": "P", "properties": {}}, {"species": [{"element": "S", "occu": 1}], "abc": [0.72578855, 0.46337684, 0.12618748999999999], "xyz": [4.54340075936105, 3.7564991961204397, 6.590971726559219], "label": "S", "properties": {}}, {"species": [{"element": "S", "occu": 1}], "abc": [0.26840203, 0.53639974, 0.20330993], "xyz": [1.68018355610053, 4.3484805846343395, 10.61919846696954], "label": "S", "properties": {}}, {"species": [{"element": "S", "occu": 1}], "abc": [0.22694851, 0.5365252, 0.07773374], "xyz": [1.4206865521230099, 4.3494976626332, 4.06015590404172], "label": "S", "properties": {}}, {"species": [{"element": "S", "occu": 1}], "abc": [0.77960978, 0.46089519, 0.00010098000000000051], "xyz": [4.88031902192078, 3.7363809782352897, 0.005274344746440026], "label": "S", "properties": {}}, {"species": [{"element": "S", "occu": 1}], "abc": [0.77952689, 0.03904951, 9.99999999999994e-05], "xyz": [4.87980013458239, 0.31656621622241, 0.005223157799999968], "label": "S", "properties": {}}, {"species": [{"element": "S", "occu": 1}], "abc": [0.22689221, 0.96345044, 0.07773009], "xyz": [1.42033411688171, 7.81049135593804, 4.05996525878202], "label": "S", "properties": {}}, {"species": [{"element": "S", "occu": 1}], "abc": [0.26839209, 0.96359083, 0.20330886], "xyz": [1.68012133218759, 7.8116294683265295, 10.61914257918108], "label": "S", "properties": {}}, {"species": [{"element": "S", "occu": 1}], "abc": [0.72581431, 0.03657901, 0.12619123], "xyz": [4.54356201569881, 0.29653838905691, 6.591167072660939], "label": "S", "properties": {}}, {"species": [{"element": "S", "occu": 1}], "abc": [0.2713372, 0.75000054, 0.149836], "xyz": [1.6985575764772, 6.08009762766714, 7.826170721207999], "label": "S", "properties": {}}, {"species": [{"element": "S", "occu": 1}], "abc": [0.72360655, 0.25001771, 0.17967865], "xyz": [4.52974154627905, 2.02684132126861, 9.384899422409699], "label": "S", "properties": {}}, {"species": [{"element": "S", "occu": 1}], "abc": [0.78111869, 0.25000313, 0.054671529999999996], "xyz": [4.88976472458419, 2.02672312425583, 2.85558028357434], "label": "S", "properties": {}}, {"species": [{"element": "S", "occu": 1}], "abc": [0.22709653, 0.74998221, 0.02438533], "xyz": [1.42161315007003, 6.07994903018811, 1.27368426595074], "label": "S", "properties": {}}, {"species": [{"element": "S", "occu": 1}], "abc": [0.16826668, 0.2500079, 0.13944589], "xyz": [1.05334117173268, 2.0267617936489, 7.283478880314419], "label": "S", "properties": {}}, {"species": [{"element": "S", "occu": 1}], "abc": [0.8260623, 0.74995629, 0.19004228], "xyz": [5.1711095209473, 6.079738902165389, 9.92620817111784], "label": "S", "properties": {}}, {"species": [{"element": "S", "occu": 1}], "abc": [0.67091938, 0.7500219, 0.06499405999999999], "xyz": [4.1999224437503795, 6.0802707887229, 3.3947423144266797], "label": "S", "properties": {}}, {"species": [{"element": "S", "occu": 1}], "abc": [0.3377107, 0.2500476, 0.015137679999999997], "xyz": [2.1140524341757, 2.0270836332516, 0.7906649136590398], "label": "S", "properties": {}}, {"species": [{"element": "S", "occu": 1}], "abc": [0.72691466, 0.4635004, 0.3774568], "xyz": [4.55045015278166, 3.7575008712163998, 19.715164290830398], "label": "S", "properties": {}}, {"species": [{"element": "S", "occu": 1}], "abc": [0.27948207, 0.53906027, 0.45509496], "xyz": [1.7495440635785702, 4.370048945293569, 23.77032790064688], "label": "S", "properties": {}}, {"species": [{"element": "S", "occu": 1}], "abc": [0.22577313, 0.53663926, 0.32900058], "xyz": [1.41332873091663, 4.3504223232146595, 17.18421945631524], "label": "S", "properties": {}}, {"species": [{"element": "S", "occu": 1}], "abc": [0.76837489, 0.46360194, 0.25188423], "xyz": [4.809989161030391, 3.7583240347745397, 13.15631080621494], "label": "S", "properties": {}}, {"species": [{"element": "S", "occu": 1}], "abc": [0.76836581, 0.03640293, 0.25188575], "xyz": [4.80993232067531, 0.29511094529763, 13.1563901982135], "label": "S", "properties": {}}, {"species": [{"element": "S", "occu": 1}], "abc": [0.22579214, 0.96344564, 0.32899699], "xyz": [1.41344773258514, 7.810452443341239, 17.18403194495022], "label": "S", "properties": {}}, {"species": [{"element": "S", "occu": 1}], "abc": [0.27945457, 0.96093073, 0.45508901], "xyz": [1.74937191492607, 7.790064593587429, 23.770017122757782], "label": "S", "properties": {}}, {"species": [{"element": "S", "occu": 1}], "abc": [0.72695643, 0.03655727, 0.37745523], "xyz": [4.55071163093493, 0.29636214742057, 19.715082287252937], "label": "S", "properties": {}}, {"species": [{"element": "S", "occu": 1}], "abc": [0.28116669, 0.75000616, 0.40052363], "xyz": [1.76008970223219, 6.08014318783256, 20.91998122118814], "label": "S", "properties": {}}, {"species": [{"element": "S", "occu": 1}], "abc": [0.72699838, 0.25001009, 0.4308052], "xyz": [4.55097423587938, 2.02677954752119, 22.5016354066056], "label": "S", "properties": {}}, {"species": [{"element": "S", "occu": 1}], "abc": [0.77126791, 0.25002359, 0.30535857], "xyz": [4.82809932447241, 2.02688898919969, 15.94935996692346], "label": "S", "properties": {}}, {"species": [{"element": "S", "occu": 1}], "abc": [0.22357858, 0.74999669, 0.27551875], "xyz": [1.39959095544958, 6.08006641652179, 14.390779081087498], "label": "S", "properties": {}}, {"species": [{"element": "S", "occu": 1}], "abc": [0.17092771, 0.25001071, 0.39019768], "xyz": [1.06999908914221, 2.02678457373161, 20.38064055833904], "label": "S", "properties": {}}, {"species": [{"element": "S", "occu": 1}], "abc": [0.83767808, 0.74996931, 0.44004183], "xyz": [5.24382373457408, 6.07984445258421, 22.98407916690774], "label": "S", "properties": {}}, {"species": [{"element": "S", "occu": 1}], "abc": [0.66820502, 0.74999728, 0.31574718], "xyz": [4.18293068315402, 6.080071199528479, 16.49197346045004], "label": "S", "properties": {}}, {"species": [{"element": "S", "occu": 1}], "abc": [0.32598914, 0.25000118, 0.26515198], "xyz": [2.04067604293214, 2.02670731601338, 13.84930632522444], "label": "S", "properties": {}}]}, "formula": "(Li3PS4)8.0", "bandgap": 2.7559, "slab_thickness": 23.76510474284688}