{"miller": "011_0.14", "final_energy": -489.32867345, "gamma": 0.016610416479224385, "work_function": "Not calculated", "ionization_potentail": "Not calculated", "electron_affinity": "Not calculated", "is_stochiometric": true, "incar_parameters": {"SYSTEM": "unknown system", "LCOMPAT": false, "PREC": "normal", "ENMAX": 520.0, "ENAUG": 628.945, "EDIFF": 1e-05, "IALGO": 38, "IWAVPR": 11, "NBANDS": 324, "NBANDSLOW": -1, "NBANDSHIGH": -1, "NELECT": 532.0, "TURBO": 0, "IRESTART": 0, "NREBOOT": 0, "NMIN": 0, "EREF": 0.0, "ISMEAR": 0, "SIGMA": 0.05, "KSPACING": 0.5, "KGAMMA": true, "KBLOWUP": true, "LREAL": true, "ROPT": [-0.0005, -0.0005, -0.0005], "LMAXPAW": -100, "LMAXMIX": 2, "NLSPLINE": false, "ISTART": 0, "ICHARG": 2, "INIWAV": 1, "ISPIN": 1, "LNONCOLLINEAR": false, "MAGMOM": [0.6, 0.6, 0.6, 0.6, 0.6, 0.6, 0.6, 0.6, 0.6, 0.6, 0.6, 0.6, 0.6, 0.6, 0.6, 0.6, 0.6, 0.6, 0.6, 0.6, 0.6, 0.6, 0.6, 0.6, 0.6, 0.6, 0.6, 0.6, 0.6, 0.6, 0.6, 0.6, 0.6, 0.6, 0.6, 0.6, 0.6, 0.6, 0.6, 0.6, 0.6, 0.6, 0.6, 0.6, 0.6, 0.6, 0.6, 0.6, 0.6, 0.6, 0.6, 0.6, 0.6, 0.6, 0.6, 0.6, 0.6, 0.6, 0.6, 0.6, 0.6, 0.6, 0.6, 0.6, 0.6, 0.6, 0.6, 0.6, 0.6, 0.6, 0.6, 0.6, 0.6, 0.6, 0.6, 0.6, 0.6, 0.6, 0.6, 0.6, 0.6, 0.6, 0.6, 0.6, 0.6, 0.6, 0.6, 0.6, 0.6, 0.6, 0.6, 0.6, 0.6, 0.6, 0.6, 0.6, 0.6, 0.6, 0.6, 0.6, 0.6, 0.6, 0.6, 0.6, 0.6, 0.6, 0.6, 0.6, 0.6, 0.6, 0.6, 0.6], "NUPDOWN": -1.0, "LSORBIT": false, "SAXIS": [0.0, 0.0, 1.0], "LSPIRAL": false, "QSPIRAL": [0.0, 0.0, 0.0], "LZEROZ": false, "LASPH": false, "LMETAGGA": false, "NELM": 100, "NELMDL": -5, "NELMIN": 6, "ENINI": 520.0, "LDIAG": true, "LSUBROT": false, "WEIMIN": 0.001, "EBREAK": 1e-08, "DEPER": 0.3, "NRMM": 4, "TIME": 0.4, "AMIX": 0.4, "BMIX": 1.0, "AMIN": 0.1, "AMIX_MAG": 1.6, "BMIX_MAG": 1.0, "IMIX": 4, "MIXFIRST": false, "MAXMIX": -45, "WC": 100.0, "INIMIX": 1, "MIXPRE": 1, "MREMOVE": 5, "LDIPOL": false, "LMONO": false, "IDIPOL": 0, "EPSILON": 1.0, "DIPOL": [-100.0, -100.0, -100.0], "EFIELD": 0.0, "NGX": 36, "NGY": 90, "NGZ": 270, "NGXF": 72, "NGYF": 180, "NGZF": 540, "ADDGRID": false, "NSW": 150, "IBRION": 2, "MDALGO": 0, "ISIF": 2, "PSTRESS": 0.0, "EDIFFG": -0.01, "NFREE": 1, "POTIM": 0.5, "SMASS": -3.0, "SCALEE": 1.0, "TEBEG": 0.0001, "TEEND": 0.0001, "NBLOCK": 1, "KBLOCK": 150, "NPACO": 256, "APACO": 10.0, "ISYM": 0, "SYMPREC": 1e-05, "LORBIT": 11, "RWIGS": [-1.0, -1.0, -1.0], "NEDOS": 301, "EMIN": 10.0, "EMAX": -10.0, "EFERMI": 0.0, "NWRITE": 2, "LWAVE": false, "LDOWNSAMPLE": false, "LCHARG": false, "LPARD": false, "LVTOT": false, "LVHAR": false, "LELF": false, "LOPTICS": false, "STM": [0.0, 0.0, 0.0, 0.0, 0.0, 0.0, 0.0], "NPAR": 2, "NSIM": 4, "NBLK": -1, "LPLANE": true, "LSCALAPACK": true, "LSCAAWARE": false, "LSCALU": false, "LASYNC": false, "LORBITALREAL": false, "IDIOT": 3, "PHON_NSTRUCT": -1, "LMUSIC": false, "POMASS": [7.01, 30.974, 32.066], "DARWINR": [0.0, 0.0, 0.0], "DARWINV": [1.0, 1.0, 1.0], "LCORR": true, "GGA_COMPAT": true, "LBERRY": false, "ICORELEVEL": 0, "LDAU": false, "I_CONSTRAINED_M": 0, "GGA": "--", "VOSKOWN": 0, "LHFCALC": false, "PRECFOCK": "", "LSYMGRAD": false, "LHFONE": false, "LRHFCALC": false, "LTHOMAS": false, "LMODELHF": false, "LFOCKACE": false, "ENCUT4O": -1.0, "EXXOEP": 0, "FOURORBIT": 0, "AEXX": 0.0, "HFALPHA": 0.0, "MCALPHA": 0.0, "ALDAX": 1.0, "AGGAX": 1.0, "ALDAC": 1.0, "AGGAC": 1.0, "NKREDX": 1, "NKREDY": 1, "NKREDZ": 1, "SHIFTRED": false, "ODDONLY": false, "EVENONLY": false, "LMAXFOCK": 0, "NMAXFOCKAE": 0, "LFOCKAEDFT": false, "HFSCREEN": 0.0, "HFSCREENC": 0.0, "NBANDSGWLOW": 0, "LUSE_VDW": false, "Zab_VDW": -0.8491, "PARAM1": 0.1234, "PARAM2": 1.0, "PARAM3": 0.0, "MODEL_GW": 0, "MODEL_EPS0": 24.84988167, "MODEL_ALPHA": 1.0, "LEPSILON": false, "LRPA": false, "LNABLA": false, "LVEL": false, "CSHIFT": 0.1, "OMEGAMAX": -1.0, "DEG_THRESHOLD": 0.002, "RTIME": -0.1, "WPLASMAI": 0.0, "DFIELD": [0.0, 0.0, 0.0], "WPLASMA": [0.0, 0.0, 0.0, 0.0, 0.0, 0.0, 0.0, 0.0, 0.0], "NUCIND": false, "MAGPOS": [0.0, 0.0, 0.0], "LNICSALL": true, "ORBITALMAG": false, "LMAGBLOCH": false, "LCHIMAG": false, "LGAUGE": true, "MAGATOM": 0, "MAGDIPOL": [0.0, 0.0, 0.0], "AVECCONST": [0.0, 0.0, 0.0], "LFINITE_TEMPERATURE": false, "LADDER": false, "LRPAFORCE": false, "LFXC": false, "LHARTREE": true, "IBSE": 0, "KPOINT": [-1, 0, 0, 0], "LTCTC": false, "LTCTE": false, "LTETE": false, "LTRIPLET": false, "LFXCEPS": false, "LFXHEG": false, "NATURALO": 2, "LHOLEGF": false, "L2ORDER": false, "LDMP1": false, "LMP2LT": false, "LSMP2LT": false, "LGWLF": false, "ENCUTGW": -2.0, "ENCUTGWSOFT": -2.0, "ENCUTLF": -1.0, "LESF_SPLINES": false, "LMAXMP2": -1, "SCISSOR": 0.0, "NOMEGA": 0, "NOMEGAR": 0, "NBANDSGW": -1, "NBANDSO": -1, "NBANDSV": -1, "NELMGW": 1, "NELMHF": 1, "DIM": 3, "IESPILON": 4, "ANTIRES": 0, "OMEGAMIN": -30.0, "OMEGATL": -200.0, "OMEGAGRID": 0, "LSELFENERGY": false, "LSPECTRAL": false, "LSPECTRALGW": false, "LSINGLES": false, "LFERMIGW": false, "ODDONLYGW": false, "EVENONLYGW": false, "NKREDLFX": 1, "NKREDLFY": 1, "NKREDLFZ": 1, "MAXMEM": 2800, "TELESCOPE": 0, "NTAUPAR": -1, "NOMEGAPAR": -1, "DAMP_NEWTON": 0.80000001, "LAMBDA": 1.0, "OFIELD_KAPPA": 0.0, "OFIELD_K": [0.0, 0.0, 0.0], "OFIELD_Q6_NEAR": 0.0, "OFIELD_Q6_FAR": 0.0, "OFIELD_A": 0.0, "KPOINTS_OPT_MODE": 1, "LKPOINTS_OPT": false, "@module": "pymatgen.io.vasp.inputs", "@class": "Incar"}, "relaxed_structures": {"@module": "pymatgen.core.structure", "@class": "Structure", "charge": 0, "lattice": {"matrix": [[6.259951, 0.0, 0.0], [0.0, 15.369732, 0.0], [0.0, 0.0, 48.211858]], "a": 6.259951, "b": 15.369732, "c": 48.211858, "alpha": 90.0, "beta": 90.0, "gamma": 90.0, "volume": 4638.644578466173}, "sites": [{"species": [{"element": "Li", "occu": 1}], "abc": [0.07487457, 0.64941932, 0.09202863000000001], "xyz": [0.46871113934607, 9.981400904022241, 4.436871241494541], "label": "Li", "properties": {}}, {"species": [{"element": "Li", "occu": 1}], "abc": [0.53105586, 0.36170791, 0.025005840000000015], "xyz": [3.32438366186286, 5.559353638980121, 1.2055780072507207], "label": "Li", "properties": {}}, {"species": [{"element": "Li", "occu": 1}], "abc": [0.61086312, 0.51115857, 0.08089959000000001], "xyz": [3.8239731989071197, 7.85637023040324, 3.9003195453382205], "label": "Li", "properties": {}}, {"species": [{"element": "Li", "occu": 1}], "abc": [0.63794046, 0.38882482, 0.14561829], "xyz": [3.9934760205174604, 5.97613327834824, 7.02052831968282], "label": "Li", "properties": {}}, {"species": [{"element": "Li", "occu": 1}], "abc": [0.4134493, 0.13202049, 0.10849487000000001], "xyz": [2.5881723589843, 2.02911954980868, 5.23073926616846], "label": "Li", "properties": {}}, {"species": [{"element": "Li", "occu": 1}], "abc": [0.94361901, 0.54641059, 9.999999999998899e-05], "xyz": [5.90700876526851, 8.39818433026188, 0.004821185799999469], "label": "Li", "properties": {}}, {"species": [{"element": "Li", "occu": 1}], "abc": [0.95379371, 0.06051398, 0.07778362000000001], "xyz": [5.97070188870821, 0.9300836548533601, 3.7500928421659605], "label": "Li", "properties": {}}, {"species": [{"element": "Li", "occu": 1}], "abc": [0.41655471, 0.74344031, 0.13083525000000001], "xyz": [2.60761207341921, 11.426478322696921, 6.3078104943945], "label": "Li", "properties": {}}, {"species": [{"element": "Li", "occu": 1}], "abc": [0.05806398, 0.37907341, 0.05676084000000002], "xyz": [0.36347766966498, 5.82625672002612, 2.7365455580407207], "label": "Li", "properties": {}}, {"species": [{"element": "Li", "occu": 1}], "abc": [0.07599946, 0.27312463, 0.11899173], "xyz": [0.47575289562646006, 4.19785236569916, 5.73681238993434], "label": "Li", "properties": {}}, {"species": [{"element": "Li", "occu": 1}], "abc": [0.55864379, 0.8764999, 0.07132771000000002], "xyz": [3.4970827518542897, 13.471568561026801, 3.438841425985181], "label": "Li", "properties": {}}, {"species": [{"element": "Li", "occu": 1}], "abc": [0.87070829, 0.87781452, 0.15178222000000002], "xyz": [5.4505912306937905, 13.491773918108642, 7.317702837564761], "label": "Li", "properties": {}}, {"species": [{"element": "Li", "occu": 1}], "abc": [0.10438185, 0.37236587, 0.24007257], "xyz": [0.65342526628935, 5.72316362784684, 11.57434465453506], "label": "Li", "properties": {}}, {"species": [{"element": "Li", "occu": 1}], "abc": [0.3796338, 0.01446681, 0.17053341000000002], "xyz": [2.3764889859438, 0.22235099259492003, 8.221732547175781], "label": "Li", "properties": {}}, {"species": [{"element": "Li", "occu": 1}], "abc": [0.58916009, 0.2323105, 0.22783058], "xyz": [3.68811329455559, 3.570550125786, 10.98413557101764], "label": "Li", "properties": {}}, {"species": [{"element": "Li", "occu": 1}], "abc": [0.59123046, 0.11502173, 0.28732405], "xyz": [3.70107370930746, 1.7678531642763602, 13.8524262985849], "label": "Li", "properties": {}}, {"species": [{"element": "Li", "occu": 1}], "abc": [0.38849911, 0.85574233, 0.24934673000000002], "xyz": [2.43198539214361, 13.152530273155561, 12.02146913952434], "label": "Li", "properties": {}}, {"species": [{"element": "Li", "occu": 1}], "abc": [0.12487219, 0.50044091, 0.17643336], "xyz": [0.78169379066269, 7.6916426685361206, 8.506180098782881], "label": "Li", "properties": {}}, {"species": [{"element": "Li", "occu": 1}], "abc": [0.90949285, 0.75837449, 0.21499421000000002], "xyz": [5.69338067585035, 11.65601266693668, 10.36527032334218], "label": "Li", "properties": {}}, {"species": [{"element": "Li", "occu": 1}], "abc": [0.49596357, 0.48279618, 0.26869358], "xyz": [3.10470764598507, 7.42044789722376, 12.954216724471639], "label": "Li", "properties": {}}, {"species": [{"element": "Li", "occu": 1}], "abc": [0.94460911, 0.14067264, 0.19259982], "xyz": [5.91320674275361, 2.16210077653248, 9.28559517266556], "label": "Li", "properties": {}}, {"species": [{"element": "Li", "occu": 1}], "abc": [0.95848511, 0.97939392, 0.27354293999999996], "xyz": [6.0000698228296105, 15.05302207282944, 13.188013380182518], "label": "Li", "properties": {}}, {"species": [{"element": "Li", "occu": 1}], "abc": [0.56443906, 0.61872223, 0.20377728], "xyz": [3.53336085808606, 9.50959485754236, 9.82448128698624], "label": "Li", "properties": {}}, {"species": [{"element": "Li", "occu": 1}], "abc": [0.89307863, 0.59429455, 0.29670511], "xyz": [5.59062846294713, 9.1341479625606, 14.30470463119438], "label": "Li", "properties": {}}, {"species": [{"element": "Li", "occu": 1}], "abc": [0.13849294, 0.08798139, 0.38636559], "xyz": [0.86695901824594, 1.35225038528748, 18.62740296116622], "label": "Li", "properties": {}}, {"species": [{"element": "Li", "occu": 1}], "abc": [0.41620776, 0.73327735, 0.30875532], "xyz": [2.60544018341976, 11.270276351170201, 14.88566764458456], "label": "Li", "properties": {}}, {"species": [{"element": "Li", "occu": 1}], "abc": [0.62963036, 0.95224739, 0.36690962], "xyz": [3.9414552017123596, 14.635787181999481, 17.68939449827396], "label": "Li", "properties": {}}, {"species": [{"element": "Li", "occu": 1}], "abc": [0.59370757, 0.83349802, 0.42930725999999997], "xyz": [3.7165802965290697, 12.81064118993064, 20.69770065748908], "label": "Li", "properties": {}}, {"species": [{"element": "Li", "occu": 1}], "abc": [0.37001194, 0.57688728, 0.39131649999999996], "xyz": [2.31625661381494, 8.86660288780896, 18.866095531057], "label": "Li", "properties": {}}, {"species": [{"element": "Li", "occu": 1}], "abc": [0.08547512, 0.20854968, 0.32270106], "xyz": [0.53507006291912, 3.20535269028576, 15.55801768116948], "label": "Li", "properties": {}}, {"species": [{"element": "Li", "occu": 1}], "abc": [0.87497252, 0.46449019, 0.36047069], "xyz": [5.47728510154652, 7.139089736929081, 17.378961719442017], "label": "Li", "properties": {}}, {"species": [{"element": "Li", "occu": 1}], "abc": [0.58345565, 0.22220195, 0.40677583], "xyz": [3.65240377967315, 3.4151844213774005, 19.61141855379214], "label": "Li", "properties": {}}, {"species": [{"element": "Li", "occu": 1}], "abc": [0.06462227, 0.82319107, 0.34509566999999997], "xyz": [0.40453224370877, 12.652226130693242, 16.637703438454857], "label": "Li", "properties": {}}, {"species": [{"element": "Li", "occu": 1}], "abc": [0.93053613, 0.69132941, 0.41774922], "xyz": [5.82511057752963, 10.625547755418122, 20.14046607425076], "label": "Li", "properties": {}}, {"species": [{"element": "Li", "occu": 1}], "abc": [0.43365749, 0.34797195, 0.33320564999999996], "xyz": [2.71467463818299, 5.3482356150173995, 16.0644634825977], "label": "Li", "properties": {}}, {"species": [{"element": "Li", "occu": 1}], "abc": [0.92538037, 0.31629947, 0.44480379999999997], "xyz": [5.79283577256187, 4.861438085642041, 21.4448176434604], "label": "Li", "properties": {}}, {"species": [{"element": "Li", "occu": 1}], "abc": [0.38925094, 0.45378031, 0.45569574999999996], "xyz": [2.4366918111039397, 6.974481751576921, 21.969938790203496], "label": "Li", "properties": {}}, {"species": [{"element": "Li", "occu": 1}], "abc": [0.46769774, 0.601254, 0.51238825], "xyz": [2.9277649352107398, 9.241112843928, 24.703189549868497], "label": "Li", "properties": {}}, {"species": [{"element": "Li", "occu": 1}], "abc": [0.05058956, 0.90485445, 0.45956102], "xyz": [0.31668816671155997, 13.907370395507401, 22.156290638575157], "label": "Li", "properties": {}}, {"species": [{"element": "Li", "occu": 1}], "abc": [0.05590127, 0.41777655, 0.53683289], "xyz": [0.34993921103777004, 6.421113609384601, 25.88171106240962], "label": "Li", "properties": {}}, {"species": [{"element": "Li", "occu": 1}], "abc": [0.93996121, 0.58478125, 0.4800635], "xyz": [5.88411111650071, 8.987931091125, 23.144753292982998], "label": "Li", "properties": {}}, {"species": [{"element": "Li", "occu": 1}], "abc": [0.44441496, 0.0889833, 0.46770465], "xyz": [2.78201587326696, 1.3676494734756002, 22.5489101717397], "label": "Li", "properties": {}}, {"species": [{"element": "P", "occu": 1}], "abc": [0.16474561, 0.89894786, 0.10125266000000001], "xyz": [1.03129944606511, 13.816587690173522, 4.881578866042281], "label": "P", "properties": {}}, {"species": [{"element": "P", "occu": 1}], "abc": [0.66850693, 0.26634026, 0.07928765000000002], "xyz": [4.18482062496043, 4.09357841701032, 3.8226049229537007], "label": "P", "properties": {}}, {"species": [{"element": "P", "occu": 1}], "abc": [0.32271615, 0.53317885, 0.02914978000000001], "xyz": [2.02018728590865, 8.1948160325682, 1.4053650540912406], "label": "P", "properties": {}}, {"species": [{"element": "P", "occu": 1}], "abc": [0.16106326, 0.61817884, 0.24462622], "xyz": [1.00824811550026, 9.50124309887088, 11.79388458171676], "label": "P", "properties": {}}, {"species": [{"element": "P", "occu": 1}], "abc": [0.83899386, 0.63200234, 0.14697378], "xyz": [5.25206045290086, 9.713706589172881, 7.0858790110832395], "label": "P", "properties": {}}, {"species": [{"element": "P", "occu": 1}], "abc": [0.65153936, 0.98908118, 0.22029257000000002], "xyz": [4.07860446817136, 15.20191266284376, 10.620714103295061], "label": "P", "properties": {}}, {"species": [{"element": "P", "occu": 1}], "abc": [0.34815038, 0.25901616, 0.17531488], "xyz": [2.17940431943138, 3.98100896286912, 8.452256099847041], "label": "P", "properties": {}}, {"species": [{"element": "P", "occu": 1}], "abc": [0.16149009, 0.33348693, 0.39004153999999996], "xyz": [1.01092005038559, 5.12560473960276, 18.80462734058132], "label": "P", "properties": {}}, {"species": [{"element": "P", "occu": 1}], "abc": [0.83633375, 0.34875871, 0.29228922999999996], "xyz": [5.23540829464625, 5.360327905365721, 14.091806851689338], "label": "P", "properties": {}}, {"species": [{"element": "P", "occu": 1}], "abc": [0.65485949, 0.70730664, 0.36165763], "xyz": [4.09938831928499, 10.871113498620481, 17.43618630217654], "label": "P", "properties": {}}, {"species": [{"element": "P", "occu": 1}], "abc": [0.34513222, 0.97755613, 0.31729782], "xyz": [2.16051078572122, 15.02477573305716, 15.29751744154956], "label": "P", "properties": {}}, {"species": [{"element": "P", "occu": 1}], "abc": [0.83854711, 0.06747448, 0.43667982], "xyz": [5.249263819791611, 1.0370646744393601, 21.05314547330556], "label": "P", "properties": {}}, {"species": [{"element": "P", "occu": 1}], "abc": [0.67564966, 0.43113222, 0.50793952], "xyz": [4.229533764766661, 6.626386677965041, 24.48870801082816], "label": "P", "properties": {}}, {"species": [{"element": "P", "occu": 1}], "abc": [0.33436499, 0.69824481, 0.45761903], "xyz": [2.09310845351549, 10.731835600090921, 22.06266369245774], "label": "P", "properties": {}}, {"species": [{"element": "S", "occu": 1}], "abc": [0.31300036, 0.00070669, 0.08057362000000001], "xyz": [1.95936691658236, 0.010861635907080001, 3.8846039259859606], "label": "S", "properties": {}}, {"species": [{"element": "S", "occu": 1}], "abc": [0.78201165, 0.16781756, 0.10449722000000002], "xyz": [4.89535461042915, 2.5793109220939203, 5.038005132034761], "label": "S", "properties": {}}, {"species": [{"element": "S", "occu": 1}], "abc": [0.22846459, 0.64302748, 0.010613610000000013], "xyz": [1.4301771386350899, 9.88316003623536, 0.5117018581873806], "label": "S", "properties": {}}, {"species": [{"element": "S", "occu": 1}], "abc": [0.23079358, 0.52212531, 0.07054295000000001], "xyz": [1.44475650191458, 8.02492608511692, 3.4010066883011003], "label": "S", "properties": {}}, {"species": [{"element": "S", "occu": 1}], "abc": [0.79892992, 0.25944975, 0.04077220000000001], "xyz": [5.00126215163392, 3.987673124967, 1.9657035167476005], "label": "S", "properties": {}}, {"species": [{"element": "S", "occu": 1}], "abc": [0.70049792, 0.64575024, 0.10859849], "xyz": [4.38508265480192, 9.925008127735682, 5.2357349788944205], "label": "S", "properties": {}}, {"species": [{"element": "S", "occu": 1}], "abc": [0.25750525, 0.8874169, 0.14201447], "xyz": [1.6119702472427502, 13.6393599252708, 6.84678146158526], "label": "S", "properties": {}}, {"species": [{"element": "S", "occu": 1}], "abc": [0.25437301, 0.78884259, 0.08032531000000001], "xyz": [1.5923625783225102, 12.12429919848588, 3.8726324395259804], "label": "S", "properties": {}}, {"species": [{"element": "S", "occu": 1}], "abc": [0.19059927, 0.42484822, 0.009544750000000012], "xyz": [1.19314209083577, 6.52980328207704, 0.4601701316455005], "label": "S", "properties": {}}, {"species": [{"element": "S", "occu": 1}], "abc": [0.78508738, 0.3785596, 0.09851170000000001], "xyz": [4.91460852951838, 5.8183595980272, 4.7494320917386], "label": "S", "properties": {}}, {"species": [{"element": "S", "occu": 1}], "abc": [0.84120448, 0.92547434, 0.10153604000000001], "xyz": [5.26589882578048, 14.22429257867688, 4.8952411423623206], "label": "S", "properties": {}}, {"species": [{"element": "S", "occu": 1}], "abc": [0.34141573, 0.25687047, 0.07678805000000001], "xyz": [2.13724574042923, 3.9480302826140403, 3.7020945626969004], "label": "S", "properties": {}}, {"species": [{"element": "S", "occu": 1}], "abc": [0.65125412, 0.51209138, 0.030516060000000015], "xyz": [4.07681887974812, 7.87070727011016, 1.4712359514394806], "label": "S", "properties": {}}, {"species": [{"element": "S", "occu": 1}], "abc": [0.28611793, 0.72205676, 0.22345187], "xyz": [1.7910842220214303, 11.09781888998832, 10.77302982627446], "label": "S", "properties": {}}, {"species": [{"element": "S", "occu": 1}], "abc": [0.73815941, 0.52521177, 0.16928585000000002], "xyz": [4.620841736788909, 8.07236414814564, 8.161585361609301], "label": "S", "properties": {}}, {"species": [{"element": "S", "occu": 1}], "abc": [0.77126419, 0.88218695, 0.24105481], "xyz": [4.82807603745469, 13.558976995397401, 11.62170026993698], "label": "S", "properties": {}}, {"species": [{"element": "S", "occu": 1}], "abc": [0.24903421, 0.36666218, 0.15343041000000002], "xyz": [1.55894195192371, 5.63549944113576, 7.397165139801781], "label": "S", "properties": {}}, {"species": [{"element": "S", "occu": 1}], "abc": [0.21414991, 0.24429181, 0.21395099], "xyz": [1.34056794325441, 3.75469964949492, 10.31497474883942], "label": "S", "properties": {}}, {"species": [{"element": "S", "occu": 1}], "abc": [0.76465921, 0.00340667, 0.18033502], "xyz": [4.78672918629871, 0.05235960491244, 8.69428637666716], "label": "S", "properties": {}}, {"species": [{"element": "S", "occu": 1}], "abc": [0.72538292, 0.361812, 0.252377], "xyz": [4.54086153543692, 5.560953474384001, 12.167564086466001], "label": "S", "properties": {}}, {"species": [{"element": "S", "occu": 1}], "abc": [0.27187416, 0.60521341, 0.28463241], "xyz": [1.70191891976616, 9.30196791450612, 13.72265733311778], "label": "S", "properties": {}}, {"species": [{"element": "S", "occu": 1}], "abc": [0.72869858, 0.7386456, 0.16962235], "xyz": [4.56161740456958, 11.352784914979202, 8.1778086518263], "label": "S", "properties": {}}, {"species": [{"element": "S", "occu": 1}], "abc": [0.27612821, 0.50877136, 0.22387916000000002], "xyz": [1.72854906431771, 7.819679452475521, 10.79363027107928], "label": "S", "properties": {}}, {"species": [{"element": "S", "occu": 1}], "abc": [0.23187855, 0.15271156, 0.15302172], "xyz": [1.45154836095105, 2.34713575050192, 7.37746143555576], "label": "S", "properties": {}}, {"species": [{"element": "S", "occu": 1}], "abc": [0.77017408, 0.09663031, 0.24185021], "xyz": [4.8212520022700796, 1.48518196777692, 11.66004798179018], "label": "S", "properties": {}}, {"species": [{"element": "S", "occu": 1}], "abc": [0.83473091, 0.62975231, 0.24648157], "xyz": [5.22537459478541, 9.67912423108092, 11.88333445245706], "label": "S", "properties": {}}, {"species": [{"element": "S", "occu": 1}], "abc": [0.1629542, 0.62070618, 0.14277257000000002], "xyz": [1.0200853072442, 9.54008763734376, 6.883330871135061], "label": "S", "properties": {}}, {"species": [{"element": "S", "occu": 1}], "abc": [0.32781151, 0.98090346, 0.21932499], "xyz": [2.0520839898360097, 15.07622329807272, 10.574065273731419], "label": "S", "properties": {}}, {"species": [{"element": "S", "occu": 1}], "abc": [0.6730571, 0.26736066, 0.17918434], "xyz": [4.2133044662021, 4.109261691543121, 8.638809955903719], "label": "S", "properties": {}}, {"species": [{"element": "S", "occu": 1}], "abc": [0.26129186, 0.44068088, 0.36787398], "xyz": [1.63567424029886, 6.77314702312416, 17.73588808565484], "label": "S", "properties": {}}, {"species": [{"element": "S", "occu": 1}], "abc": [0.71026541, 0.24507073, 0.31357420999999996], "xyz": [4.44622666359491, 3.76667144114436, 15.117995284982179], "label": "S", "properties": {}}, {"species": [{"element": "S", "occu": 1}], "abc": [0.7554334, 0.59933134, 0.38328945], "xyz": [4.7289760677634005, 9.21156207500088, 18.479096536298098], "label": "S", "properties": {}}, {"species": [{"element": "S", "occu": 1}], "abc": [0.21403211, 0.08199127, 0.29677936], "xyz": [1.33983052102661, 1.2601838462396402, 14.308284361650879], "label": "S", "properties": {}}, {"species": [{"element": "S", "occu": 1}], "abc": [0.24273474, 0.96207891, 0.35766918], "xyz": [1.51950757839774, 14.78689500955212, 17.24389571713644], "label": "S", "properties": {}}, {"species": [{"element": "S", "occu": 1}], "abc": [0.78970602, 0.72282021, 0.32313668], "xyz": [4.9435209896050205, 11.10955291188372, 15.57901973075144], "label": "S", "properties": {}}, {"species": [{"element": "S", "occu": 1}], "abc": [0.74885224, 0.07910507, 0.39578215], "xyz": [4.68777832864024, 1.21582372574124, 19.0813928147347], "label": "S", "properties": {}}, {"species": [{"element": "S", "occu": 1}], "abc": [0.29911174, 0.31955613, 0.42847371], "xyz": [1.8724248359247402, 4.91149207705716, 20.65751366325318], "label": "S", "properties": {}}, {"species": [{"element": "S", "occu": 1}], "abc": [0.72233622, 0.4581477, 0.31316092], "xyz": [4.52178934272522, 7.0416073654164, 15.09806980618936], "label": "S", "properties": {}}, {"species": [{"element": "S", "occu": 1}], "abc": [0.27285962, 0.2270387, 0.36746004], "xyz": [1.7080878510786202, 3.4895239726284, 17.715931269154318], "label": "S", "properties": {}}, {"species": [{"element": "S", "occu": 1}], "abc": [0.22911606, 0.86875261, 0.29632231], "xyz": [1.43425530891306, 13.352494790000522, 14.286249131951978], "label": "S", "properties": {}}, {"species": [{"element": "S", "occu": 1}], "abc": [0.77052899, 0.81323311, 0.38418684999999997], "xyz": [4.82347372147949, 12.49917495422652, 18.5223618576673], "label": "S", "properties": {}}, {"species": [{"element": "S", "occu": 1}], "abc": [0.837084, 0.3443199, 0.39417713], "xyz": [5.240104822884001, 5.2921045852668005, 19.004011818407538], "label": "S", "properties": {}}, {"species": [{"element": "S", "occu": 1}], "abc": [0.16255593, 0.33626143, 0.29057784999999997], "xyz": [1.01759215655943, 5.16824806103676, 14.009298042145298], "label": "S", "properties": {}}, {"species": [{"element": "S", "occu": 1}], "abc": [0.330291, 0.69790981, 0.35767076999999997], "xyz": [2.067605475741, 10.72668673987092, 17.24397237399066], "label": "S", "properties": {}}, {"species": [{"element": "S", "occu": 1}], "abc": [0.67033704, 0.99013283, 0.31778922], "xyz": [4.19627702388504, 15.21807624150156, 15.32120874857076], "label": "S", "properties": {}}, {"species": [{"element": "S", "occu": 1}], "abc": [0.69044124, 0.96536262, 0.45723638], "xyz": [4.32212833077924, 14.837364752217841, 22.04421542499404], "label": "S", "properties": {}}, {"species": [{"element": "S", "occu": 1}], "abc": [0.76928237, 0.32146783, 0.52659987], "xyz": [4.81566994136387, 4.94087439372156, 25.38835815525846], "label": "S", "properties": {}}, {"species": [{"element": "S", "occu": 1}], "abc": [0.22254848, 0.797801, 0.43268807], "xyz": [1.3931425799244799, 12.261987559332, 20.86069578913406], "label": "S", "properties": {}}, {"species": [{"element": "S", "occu": 1}], "abc": [0.20292317, 0.70405431, 0.49611033], "xyz": [1.2702891009646702, 10.82112605814492, 23.91840078229314], "label": "S", "properties": {}}, {"species": [{"element": "S", "occu": 1}], "abc": [0.7686642, 0.44238092, 0.46656895], "xyz": [4.8118002274542, 6.799276182313441, 22.4941559646091], "label": "S", "properties": {}}, {"species": [{"element": "S", "occu": 1}], "abc": [0.74660894, 0.17742548, 0.4574701], "xyz": [4.67373538056194, 2.72698207757136, 22.0554835004458], "label": "S", "properties": {}}, {"species": [{"element": "S", "occu": 1}], "abc": [0.21720766, 0.58663531, 0.43808354], "xyz": [1.35970930842466, 9.01642749643692, 21.12082142261732], "label": "S", "properties": {}}, {"species": [{"element": "S", "occu": 1}], "abc": [0.80794568, 0.53938215, 0.52754726], "xyz": [5.05770036746168, 8.290159091083801, 25.43403358740908], "label": "S", "properties": {}}, {"species": [{"element": "S", "occu": 1}], "abc": [0.16252807, 0.04140042, 0.43677889999999997], "xyz": [1.01741775432457, 0.63631336008744, 21.057922304196197], "label": "S", "properties": {}}, {"species": [{"element": "S", "occu": 1}], "abc": [0.34709172, 0.45154172, 0.5062683299999999], "xyz": [2.17277715970572, 6.94007522321904, 24.408136835857135], "label": "S", "properties": {}}, {"species": [{"element": "S", "occu": 1}], "abc": [0.66153899, 0.70710705, 0.46012808], "xyz": [4.1412016619894905, 10.8680458538106, 22.18362965477264], "label": "S", "properties": {}}]}, "formula": "(Li3PS4)14.0", "bandgap": 2.5198, "slab_thickness": 25.87688987660962}