{"miller": "011_0.17", "final_energy": -489.07354216, "gamma": 0.01793627291387544, "work_function": "Not calculated", "ionization_potentail": "Not calculated", "electron_affinity": "Not calculated", "is_stochiometric": true, "incar_parameters": {"SYSTEM": "unknown system", "LCOMPAT": false, "PREC": "normal", "ENMAX": 520.0, "ENAUG": 628.945, "EDIFF": 1e-05, "IALGO": 38, "IWAVPR": 11, "NBANDS": 324, "NBANDSLOW": -1, "NBANDSHIGH": -1, "NELECT": 532.0, "TURBO": 0, "IRESTART": 0, "NREBOOT": 0, "NMIN": 0, "EREF": 0.0, "ISMEAR": 0, "SIGMA": 0.05, "KSPACING": 0.5, "KGAMMA": true, "KBLOWUP": true, "LREAL": true, "ROPT": [-0.0005, -0.0005, -0.0005], "LMAXPAW": -100, "LMAXMIX": 2, "NLSPLINE": false, "ISTART": 0, "ICHARG": 2, "INIWAV": 1, "ISPIN": 1, "LNONCOLLINEAR": false, "MAGMOM": [0.6, 0.6, 0.6, 0.6, 0.6, 0.6, 0.6, 0.6, 0.6, 0.6, 0.6, 0.6, 0.6, 0.6, 0.6, 0.6, 0.6, 0.6, 0.6, 0.6, 0.6, 0.6, 0.6, 0.6, 0.6, 0.6, 0.6, 0.6, 0.6, 0.6, 0.6, 0.6, 0.6, 0.6, 0.6, 0.6, 0.6, 0.6, 0.6, 0.6, 0.6, 0.6, 0.6, 0.6, 0.6, 0.6, 0.6, 0.6, 0.6, 0.6, 0.6, 0.6, 0.6, 0.6, 0.6, 0.6, 0.6, 0.6, 0.6, 0.6, 0.6, 0.6, 0.6, 0.6, 0.6, 0.6, 0.6, 0.6, 0.6, 0.6, 0.6, 0.6, 0.6, 0.6, 0.6, 0.6, 0.6, 0.6, 0.6, 0.6, 0.6, 0.6, 0.6, 0.6, 0.6, 0.6, 0.6, 0.6, 0.6, 0.6, 0.6, 0.6, 0.6, 0.6, 0.6, 0.6, 0.6, 0.6, 0.6, 0.6, 0.6, 0.6, 0.6, 0.6, 0.6, 0.6, 0.6, 0.6, 0.6, 0.6, 0.6, 0.6], "NUPDOWN": -1.0, "LSORBIT": false, "SAXIS": [0.0, 0.0, 1.0], "LSPIRAL": false, "QSPIRAL": [0.0, 0.0, 0.0], "LZEROZ": false, "LASPH": false, "LMETAGGA": false, "NELM": 100, "NELMDL": -5, "NELMIN": 6, "ENINI": 520.0, "LDIAG": true, "LSUBROT": false, "WEIMIN": 0.001, "EBREAK": 1e-08, "DEPER": 0.3, "NRMM": 4, "TIME": 0.4, "AMIX": 0.4, "BMIX": 1.0, "AMIN": 0.1, "AMIX_MAG": 1.6, "BMIX_MAG": 1.0, "IMIX": 4, "MIXFIRST": false, "MAXMIX": -45, "WC": 100.0, "INIMIX": 1, "MIXPRE": 1, "MREMOVE": 5, "LDIPOL": false, "LMONO": false, "IDIPOL": 0, "EPSILON": 1.0, "DIPOL": [-100.0, -100.0, -100.0], "EFIELD": 0.0, "NGX": 36, "NGY": 90, "NGZ": 270, "NGXF": 72, "NGYF": 180, "NGZF": 540, "ADDGRID": false, "NSW": 150, "IBRION": 2, "MDALGO": 0, "ISIF": 2, "PSTRESS": 0.0, "EDIFFG": -0.01, "NFREE": 1, "POTIM": 0.5, "SMASS": -3.0, "SCALEE": 1.0, "TEBEG": 0.0001, "TEEND": 0.0001, "NBLOCK": 1, "KBLOCK": 150, "NPACO": 256, "APACO": 10.0, "ISYM": 0, "SYMPREC": 1e-05, "LORBIT": 11, "RWIGS": [-1.0, -1.0, -1.0], "NEDOS": 301, "EMIN": 10.0, "EMAX": -10.0, "EFERMI": 0.0, "NWRITE": 2, "LWAVE": false, "LDOWNSAMPLE": false, "LCHARG": false, "LPARD": false, "LVTOT": false, "LVHAR": false, "LELF": false, "LOPTICS": false, "STM": [0.0, 0.0, 0.0, 0.0, 0.0, 0.0, 0.0], "NPAR": 2, "NSIM": 4, "NBLK": -1, "LPLANE": true, "LSCALAPACK": true, "LSCAAWARE": false, "LSCALU": false, "LASYNC": false, "LORBITALREAL": false, "IDIOT": 3, "PHON_NSTRUCT": -1, "LMUSIC": false, "POMASS": [7.01, 30.974, 32.066], "DARWINR": [0.0, 0.0, 0.0], "DARWINV": [1.0, 1.0, 1.0], "LCORR": true, "GGA_COMPAT": true, "LBERRY": false, "ICORELEVEL": 0, "LDAU": false, "I_CONSTRAINED_M": 0, "GGA": "--", "VOSKOWN": 0, "LHFCALC": false, "PRECFOCK": "", "LSYMGRAD": false, "LHFONE": false, "LRHFCALC": false, "LTHOMAS": false, "LMODELHF": false, "LFOCKACE": false, "ENCUT4O": -1.0, "EXXOEP": 0, "FOURORBIT": 0, "AEXX": 0.0, "HFALPHA": 0.0, "MCALPHA": 0.0, "ALDAX": 1.0, "AGGAX": 1.0, "ALDAC": 1.0, "AGGAC": 1.0, "NKREDX": 1, "NKREDY": 1, "NKREDZ": 1, "SHIFTRED": false, "ODDONLY": false, "EVENONLY": false, "LMAXFOCK": 0, "NMAXFOCKAE": 0, "LFOCKAEDFT": false, "HFSCREEN": 0.0, "HFSCREENC": 0.0, "NBANDSGWLOW": 0, "LUSE_VDW": false, "Zab_VDW": -0.8491, "PARAM1": 0.1234, "PARAM2": 1.0, "PARAM3": 0.0, "MODEL_GW": 0, "MODEL_EPS0": 24.84988167, "MODEL_ALPHA": 1.0, "LEPSILON": false, "LRPA": false, "LNABLA": false, "LVEL": false, "CSHIFT": 0.1, "OMEGAMAX": -1.0, "DEG_THRESHOLD": 0.002, "RTIME": -0.1, "WPLASMAI": 0.0, "DFIELD": [0.0, 0.0, 0.0], "WPLASMA": [0.0, 0.0, 0.0, 0.0, 0.0, 0.0, 0.0, 0.0, 0.0], "NUCIND": false, "MAGPOS": [0.0, 0.0, 0.0], "LNICSALL": true, "ORBITALMAG": false, "LMAGBLOCH": false, "LCHIMAG": false, "LGAUGE": true, "MAGATOM": 0, "MAGDIPOL": [0.0, 0.0, 0.0], "AVECCONST": [0.0, 0.0, 0.0], "LFINITE_TEMPERATURE": false, "LADDER": false, "LRPAFORCE": false, "LFXC": false, "LHARTREE": true, "IBSE": 0, "KPOINT": [-1, 0, 0, 0], "LTCTC": false, "LTCTE": false, "LTETE": false, "LTRIPLET": false, "LFXCEPS": false, "LFXHEG": false, "NATURALO": 2, "LHOLEGF": false, "L2ORDER": false, "LDMP1": false, "LMP2LT": false, "LSMP2LT": false, "LGWLF": false, "ENCUTGW": -2.0, "ENCUTGWSOFT": -2.0, "ENCUTLF": -1.0, "LESF_SPLINES": false, "LMAXMP2": -1, "SCISSOR": 0.0, "NOMEGA": 0, "NOMEGAR": 0, "NBANDSGW": -1, "NBANDSO": -1, "NBANDSV": -1, "NELMGW": 1, "NELMHF": 1, "DIM": 3, "IESPILON": 4, "ANTIRES": 0, "OMEGAMIN": -30.0, "OMEGATL": -200.0, "OMEGAGRID": 0, "LSELFENERGY": false, "LSPECTRAL": false, "LSPECTRALGW": false, "LSINGLES": false, "LFERMIGW": false, "ODDONLYGW": false, "EVENONLYGW": false, "NKREDLFX": 1, "NKREDLFY": 1, "NKREDLFZ": 1, "MAXMEM": 2800, "TELESCOPE": 0, "NTAUPAR": -1, "NOMEGAPAR": -1, "DAMP_NEWTON": 0.80000001, "LAMBDA": 1.0, "OFIELD_KAPPA": 0.0, "OFIELD_K": [0.0, 0.0, 0.0], "OFIELD_Q6_NEAR": 0.0, "OFIELD_Q6_FAR": 0.0, "OFIELD_A": 0.0, "KPOINTS_OPT_MODE": 1, "LKPOINTS_OPT": false, "@module": "pymatgen.io.vasp.inputs", "@class": "Incar"}, "relaxed_structures": {"@module": "pymatgen.core.structure", "@class": "Structure", "charge": 0, "lattice": {"matrix": [[6.259951, 0.0, 0.0], [0.0, 15.369732, 0.0], [0.0, 0.0, 48.211858]], "a": 6.259951, "b": 15.369732, "c": 48.211858, "alpha": 90.0, "beta": 90.0, "gamma": 90.0, "volume": 4638.644578466173}, "sites": [{"species": [{"element": "Li", "occu": 1}], "abc": [0.1288031, 0.66178978, 0.0907980300000001], "xyz": [0.8063010946481001, 10.17153155893896, 4.377541729039745], "label": "Li", "properties": {}}, {"species": [{"element": "Li", "occu": 1}], "abc": [0.61387627, 0.37889862, 0.011231490000000096], "xyz": [3.8428353702627702, 5.823570244569841, 0.5414910010084246], "label": "Li", "properties": {}}, {"species": [{"element": "Li", "occu": 1}], "abc": [0.59532767, 0.51273001, 0.0759538300000001], "xyz": [3.7267220431441697, 7.88052284205732, 3.6618752665161445], "label": "Li", "properties": {}}, {"species": [{"element": "Li", "occu": 1}], "abc": [0.58237312, 0.40000185, 0.1374262000000001], "xyz": [3.64562719491712, 6.1479212340042, 6.625572439879605], "label": "Li", "properties": {}}, {"species": [{"element": "Li", "occu": 1}], "abc": [0.39357478, 0.13802699, 0.1029000000000001], "xyz": [2.46375883763578, 2.12143784506668, 4.961000188200005], "label": "Li", "properties": {}}, {"species": [{"element": "Li", "occu": 1}], "abc": [0.97168922, 0.6223005, 0.025960910000000097], "xyz": [6.08272690442822, 9.564591908466001, 1.2516237064707847], "label": "Li", "properties": {}}, {"species": [{"element": "Li", "occu": 1}], "abc": [0.045186, 0.1496107, 0.0583717100000001], "xyz": [0.282862145886, 2.2994763633324005, 2.8142085937371846], "label": "Li", "properties": {}}, {"species": [{"element": "Li", "occu": 1}], "abc": [0.53335598, 0.7833967, 0.1151643800000001], "xyz": [3.33878230035698, 12.0405973286844, 5.552288735218045], "label": "Li", "properties": {}}, {"species": [{"element": "Li", "occu": 1}], "abc": [0.09904016, 0.38266062, 0.0486541600000001], "xyz": [0.6199865486321601, 5.881391176353841, 2.3457074530292847], "label": "Li", "properties": {}}, {"species": [{"element": "Li", "occu": 1}], "abc": [0.93786829, 0.26090176, 0.1282060600000001], "xyz": [5.87100953985379, 4.00999012952832, 6.181052359459485], "label": "Li", "properties": {}}, {"species": [{"element": "Li", "occu": 1}], "abc": [0.55081219, 0.91239089, 0.0630041100000001], "xyz": [3.4480573196026905, 14.02320345854148, 3.037545204736385], "label": "Li", "properties": {}}, {"species": [{"element": "Li", "occu": 1}], "abc": [0.90493453, 0.88186291, 0.1478182000000001], "xyz": [5.66484581600803, 13.553996587440121, 7.126590068215604], "label": "Li", "properties": {}}, {"species": [{"element": "Li", "occu": 1}], "abc": [0.12675815, 0.37950815, 0.2362760900000001], "xyz": [0.7934998078506501, 5.8329385573158, 11.391309299875225], "label": "Li", "properties": {}}, {"species": [{"element": "Li", "occu": 1}], "abc": [0.41494292, 0.01857411, 0.1619490000000001], "xyz": [2.59752234699692, 0.28547909283852, 7.8078621912420045], "label": "Li", "properties": {}}, {"species": [{"element": "Li", "occu": 1}], "abc": [0.62772012, 0.23971102, 0.2193567300000001], "xyz": [3.92949719291412, 3.68429413484664, 10.575595518104345], "label": "Li", "properties": {}}, {"species": [{"element": "Li", "occu": 1}], "abc": [0.57988565, 0.12472435, 0.2821499500000001], "xyz": [3.63005575460315, 1.9169798333742, 13.602973324107104], "label": "Li", "properties": {}}, {"species": [{"element": "Li", "occu": 1}], "abc": [0.37019303, 0.86327216, 0.2435804200000001], "xyz": [2.3173902283415297, 13.26826174226112, 11.743464620620365], "label": "Li", "properties": {}}, {"species": [{"element": "Li", "occu": 1}], "abc": [0.07853251, 0.49696102, 0.1718656200000001], "xyz": [0.49160966450701, 7.63815769184664, 8.285960866521965], "label": "Li", "properties": {}}, {"species": [{"element": "Li", "occu": 1}], "abc": [0.8690597, 0.75605076, 0.2100790300000001], "xyz": [5.4402711380747, 11.620297559596322, 10.128300363137745], "label": "Li", "properties": {}}, {"species": [{"element": "Li", "occu": 1}], "abc": [0.56550255, 0.5094244, 0.2565854100000001], "xyz": [3.54001825337505, 7.8297165022608, 12.370459351791785], "label": "Li", "properties": {}}, {"species": [{"element": "Li", "occu": 1}], "abc": [0.06616512, 0.1103704, 0.1980068600000001], "xyz": [0.41419040910912, 1.6963634687328, 9.546278617345884], "label": "Li", "properties": {}}, {"species": [{"element": "Li", "occu": 1}], "abc": [0.93095604, 0.97979694, 0.2721349200000001], "xyz": [5.82773919355404, 15.05921638222008, 13.120130119881365], "label": "Li", "properties": {}}, {"species": [{"element": "Li", "occu": 1}], "abc": [0.43059143, 0.63847596, 0.1825831100000001], "xyz": [2.69548125281993, 9.81320439364272, 8.802670972518385], "label": "Li", "properties": {}}, {"species": [{"element": "Li", "occu": 1}], "abc": [0.9165309, 0.60104953, 0.2927813400000001], "xyz": [5.7374385239859, 9.23797019482596, 14.115532389129726], "label": "Li", "properties": {}}, {"species": [{"element": "Li", "occu": 1}], "abc": [0.13401543, 0.09553989, 0.3822828900000001], "xyz": [0.83893002504393, 1.46842250460948, 18.430568408509625], "label": "Li", "properties": {}}, {"species": [{"element": "Li", "occu": 1}], "abc": [0.41538914, 0.73843958, 0.3044022400000001], "xyz": [2.60031566233214, 11.34961844279256, 14.675797569761924], "label": "Li", "properties": {}}, {"species": [{"element": "Li", "occu": 1}], "abc": [0.62707447, 0.96050089, 0.3624877400000001], "xyz": [3.92545545555097, 14.762641265061482, 17.476207447620926], "label": "Li", "properties": {}}, {"species": [{"element": "Li", "occu": 1}], "abc": [0.58734306, 0.84018067, 0.4250888700000001], "xyz": [3.67673877579006, 12.913351729480441, 20.494324237820464], "label": "Li", "properties": {}}, {"species": [{"element": "Li", "occu": 1}], "abc": [0.37122377, 0.58529903, 0.3877844400000001], "xyz": [2.3238426102352703, 8.99588923095996, 18.695808355889525], "label": "Li", "properties": {}}, {"species": [{"element": "Li", "occu": 1}], "abc": [0.08454876, 0.21644595, 0.3178494900000001], "xyz": [0.5292710947107601, 3.3267162439854, 15.324114477252426], "label": "Li", "properties": {}}, {"species": [{"element": "Li", "occu": 1}], "abc": [0.87957634, 0.4745883, 0.3552937200000001], "xyz": [5.50610478915934, 7.294294981335601, 17.129370376931764], "label": "Li", "properties": {}}, {"species": [{"element": "Li", "occu": 1}], "abc": [0.57676041, 0.23053662, 0.4010626200000001], "xyz": [3.61049190533991, 3.54328606558584, 19.335974084547964], "label": "Li", "properties": {}}, {"species": [{"element": "Li", "occu": 1}], "abc": [0.06758246, 0.82828317, 0.3418977500000001], "xyz": [0.42306288805945996, 12.73049034301044, 16.483525773519506], "label": "Li", "properties": {}}, {"species": [{"element": "Li", "occu": 1}], "abc": [0.92683422, 0.69709567, 0.4148644500000001], "xyz": [5.801936802323221, 10.71417362626044, 20.001385952648103], "label": "Li", "properties": {}}, {"species": [{"element": "Li", "occu": 1}], "abc": [0.43661296, 0.36049631, 0.3274044900000001], "xyz": [2.73317573556496, 5.54073167168892, 15.784778780442425], "label": "Li", "properties": {}}, {"species": [{"element": "Li", "occu": 1}], "abc": [0.90971993, 0.32763701, 0.4382856600000001], "xyz": [5.69480218552343, 5.03569303698132, 21.130566003356282], "label": "Li", "properties": {}}, {"species": [{"element": "Li", "occu": 1}], "abc": [0.42550498, 0.46510903, 0.4509917900000001], "xyz": [2.66364032505598, 7.14860114187996, 21.743152138645826], "label": "Li", "properties": {}}, {"species": [{"element": "Li", "occu": 1}], "abc": [0.3886855, 0.60070538, 0.51503681], "xyz": [2.4331521844105, 9.23268070155816, 24.83088154849298], "label": "Li", "properties": {}}, {"species": [{"element": "Li", "occu": 1}], "abc": [0.04601008, 0.91100934, 0.45627600000000007], "xyz": [0.28802084630608, 14.001969405296881, 21.997913720808004], "label": "Li", "properties": {}}, {"species": [{"element": "Li", "occu": 1}], "abc": [0.03856791, 0.36090512, 0.50570899], "xyz": [0.24143322677240997, 5.54701497182784, 24.38117001520342], "label": "Li", "properties": {}}, {"species": [{"element": "Li", "occu": 1}], "abc": [0.89490843, 0.60313351, 0.4824422700000001], "xyz": [5.60208292128693, 9.270000408919321, 23.259438214437665], "label": "Li", "properties": {}}, {"species": [{"element": "Li", "occu": 1}], "abc": [0.44363956, 0.09836617, 0.4629898200000001], "xyz": [2.77716190726156, 1.51186167076644, 22.321599457285565], "label": "Li", "properties": {}}, {"species": [{"element": "P", "occu": 1}], "abc": [0.15106844, 0.90878678, 0.0936742800000001], "xyz": [0.94568103204644, 13.967809253742962, 4.516211085612245], "label": "P", "properties": {}}, {"species": [{"element": "P", "occu": 1}], "abc": [0.83389924, 0.63608576, 0.1411345600000001], "xyz": [5.22016838133724, 9.77646766021632, 6.804359365612485], "label": "P", "properties": {}}, {"species": [{"element": "P", "occu": 1}], "abc": [0.66382383, 0.26783108, 0.0729070000000001], "xyz": [4.15550464843233, 4.11649192087056, 3.5149819312060044], "label": "P", "properties": {}}, {"species": [{"element": "P", "occu": 1}], "abc": [0.35864465, 0.53737678, 0.020492710000000098], "xyz": [2.24509793541215, 8.25933709162296, 0.9879916245551847], "label": "P", "properties": {}}, {"species": [{"element": "P", "occu": 1}], "abc": [0.15581814, 0.6241848, 0.2391498700000001], "xyz": [0.97541392131114, 9.5935530944736, 11.529859573158465], "label": "P", "properties": {}}, {"species": [{"element": "P", "occu": 1}], "abc": [0.84155369, 0.35615321, 0.2870199800000001], "xyz": [5.26808486326919, 5.47397938863972, 13.837766518922846], "label": "P", "properties": {}}, {"species": [{"element": "P", "occu": 1}], "abc": [0.6569142, 0.99444866, 0.2149068800000001], "xyz": [4.1122507032042, 15.284409391959121, 10.361059981783045], "label": "P", "properties": {}}, {"species": [{"element": "P", "occu": 1}], "abc": [0.34155271, 0.26409195, 0.1694361300000001], "xyz": [2.1381032285172097, 4.059022494857401, 8.168830639629546], "label": "P", "properties": {}}, {"species": [{"element": "P", "occu": 1}], "abc": [0.16311515, 0.34234307, 0.3854712900000001], "xyz": [1.0210928463576499, 5.261721237957241, 18.584287096556825], "label": "P", "properties": {}}, {"species": [{"element": "P", "occu": 1}], "abc": [0.83712051, 0.0758094, 0.4327293200000001], "xyz": [5.24033337369501, 1.1651701610808, 20.862684528276564], "label": "P", "properties": {}}, {"species": [{"element": "P", "occu": 1}], "abc": [0.65700558, 0.71441277, 0.3574168900000001], "xyz": [4.11282273752658, 10.980332812277641, 17.231732347481625], "label": "P", "properties": {}}, {"species": [{"element": "P", "occu": 1}], "abc": [0.33829664, 0.98454959, 0.3125314100000001], "xyz": [2.11772038986464, 15.13226333900988, 15.067719959459785], "label": "P", "properties": {}}, {"species": [{"element": "P", "occu": 1}], "abc": [0.64711039, 0.44181031, 0.5084879800000001], "xyz": [4.05087933299089, 6.79050605953692, 24.51515028646684], "label": "P", "properties": {}}, {"species": [{"element": "P", "occu": 1}], "abc": [0.32902009, 0.7040293, 0.4538614900000001], "xyz": [2.05964964141559, 10.8207416611476, 21.881505707548424], "label": "P", "properties": {}}, {"species": [{"element": "S", "occu": 1}], "abc": [0.26779332, 0.01636918, 0.0724519400000001], "xyz": [1.67637306132732, 0.25158990965976, 3.493042643104525], "label": "S", "properties": {}}, {"species": [{"element": "S", "occu": 1}], "abc": [0.77271053, 0.16058664, 0.0943899500000001], "xyz": [4.83713005498403, 2.46817361958048, 4.550714866027104], "label": "S", "properties": {}}, {"species": [{"element": "S", "occu": 1}], "abc": [0.28373651, 0.64607572, 9.999999999998899e-05], "xyz": [1.77617664951101, 9.930010668107041, 0.004821185799999469], "label": "S", "properties": {}}, {"species": [{"element": "S", "occu": 1}], "abc": [0.21310031, 0.53642187, 0.0602950500000001], "xyz": [1.33399749868481, 8.24466038083884, 2.906936388702905], "label": "S", "properties": {}}, {"species": [{"element": "S", "occu": 1}], "abc": [0.81307654, 0.26420175, 0.0347251700000001], "xyz": [5.08981929964954, 4.060710091431001, 1.6741649650658645], "label": "S", "properties": {}}, {"species": [{"element": "S", "occu": 1}], "abc": [0.73072076, 0.64831007, 0.10075382000000009], "xyz": [4.57427615228276, 9.96435202880124, 4.857528862797564], "label": "S", "properties": {}}, {"species": [{"element": "S", "occu": 1}], "abc": [0.27797996, 0.8983744, 0.1331638900000001], "xyz": [1.7401409285819602, 13.807773763660801, 6.420078555407624], "label": "S", "properties": {}}, {"species": [{"element": "S", "occu": 1}], "abc": [0.27058701, 0.8036245, 0.0717994700000001], "xyz": [1.6938614238365102, 12.351493193634001, 3.461585852115265], "label": "S", "properties": {}}, {"species": [{"element": "S", "occu": 1}], "abc": [0.25799759, 0.42310524, 0.002697290000000096], "xyz": [1.61505227151809, 6.50301414659568, 0.13004136246482462], "label": "S", "properties": {}}, {"species": [{"element": "S", "occu": 1}], "abc": [0.77168441, 0.37778723, 0.0935859800000001], "xyz": [4.83070659406391, 5.80648847812236, 4.511953978550845], "label": "S", "properties": {}}, {"species": [{"element": "S", "occu": 1}], "abc": [0.82583559, 0.91327323, 0.09854252000000009], "xyz": [5.16969032745609, 14.036764787874361, 4.750917981202164], "label": "S", "properties": {}}, {"species": [{"element": "S", "occu": 1}], "abc": [0.16003516, 0.62339875, 0.1404916800000001], "xyz": [1.0018122598771602, 9.581471716635, 6.773364926341444], "label": "S", "properties": {}}, {"species": [{"element": "S", "occu": 1}], "abc": [0.33682199, 0.26358342, 0.0713083100000001], "xyz": [2.1084891531224903, 4.05120652504344, 3.4379061159399846], "label": "S", "properties": {}}, {"species": [{"element": "S", "occu": 1}], "abc": [0.68521704, 0.52224806, 0.0276332500000001], "xyz": [4.289425094765041, 8.02681271971992, 1.3322503250785047], "label": "S", "properties": {}}, {"species": [{"element": "S", "occu": 1}], "abc": [0.25571778, 0.73227809, 0.2174651600000001], "xyz": [1.60078077262878, 11.25491799277188, 10.484399413867285], "label": "S", "properties": {}}, {"species": [{"element": "S", "occu": 1}], "abc": [0.7025555, 0.53314592, 0.1622563600000001], "xyz": [4.3979630047805, 8.19430990729344, 7.822680587916885], "label": "S", "properties": {}}, {"species": [{"element": "S", "occu": 1}], "abc": [0.75760588, 0.88642769, 0.2365256200000001], "xyz": [4.74257568611188, 13.62415603267908, 11.403339604801964], "label": "S", "properties": {}}, {"species": [{"element": "S", "occu": 1}], "abc": [0.20738486, 0.36622556, 0.1481554100000001], "xyz": [1.29821906174186, 5.62878870874992, 7.142847588851785], "label": "S", "properties": {}}, {"species": [{"element": "S", "occu": 1}], "abc": [0.24028154, 0.25036402, 0.2098489500000001], "xyz": [1.5041506666045399, 3.8480278898426405, 10.117207778849105], "label": "S", "properties": {}}, {"species": [{"element": "S", "occu": 1}], "abc": [0.7907505, 0.00842561, 0.1762322800000001], "xyz": [4.9500593832255, 0.12949936763652, 8.496485658376244], "label": "S", "properties": {}}, {"species": [{"element": "S", "occu": 1}], "abc": [0.73978399, 0.36889741, 0.24658436000000009], "xyz": [4.63101152798449, 5.66985432719412, 11.888290149340884], "label": "S", "properties": {}}, {"species": [{"element": "S", "occu": 1}], "abc": [0.29098573, 0.6107078, 0.2777663200000001], "xyz": [1.82155641149923, 9.3864152163096, 13.391630377022565], "label": "S", "properties": {}}, {"species": [{"element": "S", "occu": 1}], "abc": [0.71996679, 0.74596393, 0.1619908400000001], "xyz": [4.50695682702729, 11.465265685766761, 7.809879375380725], "label": "S", "properties": {}}, {"species": [{"element": "S", "occu": 1}], "abc": [0.26719584, 0.51774132, 0.2166759700000001], "xyz": [1.67263286580384, 7.95754533372624, 10.446351097652265], "label": "S", "properties": {}}, {"species": [{"element": "S", "occu": 1}], "abc": [0.22896209, 0.15346064, 0.1491265700000001], "xyz": [1.43329146425759, 2.35864890934848, 7.1896690168670645], "label": "S", "properties": {}}, {"species": [{"element": "S", "occu": 1}], "abc": [0.76969877, 0.10063411, 0.2374454200000001], "xyz": [4.81827658496027, 1.54671930075852, 11.447684871790365], "label": "S", "properties": {}}, {"species": [{"element": "S", "occu": 1}], "abc": [0.83052479, 0.63305286, 0.2431289900000001], "xyz": [5.19904448968529, 9.729852800033521, 11.721700341563425], "label": "S", "properties": {}}, {"species": [{"element": "S", "occu": 1}], "abc": [0.16677794, 0.3411746, 0.2861876100000001], "xyz": [1.0440217322809402, 5.2437621672072, 13.797636414679385], "label": "S", "properties": {}}, {"species": [{"element": "S", "occu": 1}], "abc": [0.33147157, 0.98567739, 0.2110917200000001], "xyz": [2.07499578609307, 15.149597322759481, 10.177124029615765], "label": "S", "properties": {}}, {"species": [{"element": "S", "occu": 1}], "abc": [0.66659474, 0.27878469, 0.17003651000000009], "xyz": [4.17285040925774, 4.28484597100308, 8.197776074935584], "label": "S", "properties": {}}, {"species": [{"element": "S", "occu": 1}], "abc": [0.26648194, 0.44919044, 0.3635160300000001], "xyz": [1.6681638867849398, 6.903936679762081, 17.525783219083745], "label": "S", "properties": {}}, {"species": [{"element": "S", "occu": 1}], "abc": [0.70762449, 0.25357856, 0.3081752600000001], "xyz": [4.429694633799991, 3.8974345081459205, 14.857701874233085], "label": "S", "properties": {}}, {"species": [{"element": "S", "occu": 1}], "abc": [0.758734, 0.60691206, 0.3791750400000001], "xyz": [4.749637662034, 9.328075709767921, 18.280733185624324], "label": "S", "properties": {}}, {"species": [{"element": "S", "occu": 1}], "abc": [0.20283726, 0.08742702, 0.2918032000000001], "xyz": [1.26975130857426, 1.34372986695864, 14.068374442345604], "label": "S", "properties": {}}, {"species": [{"element": "S", "occu": 1}], "abc": [0.23898039, 0.96958655, 0.3530414900000001], "xyz": [1.49600553136089, 14.902285424304601, 17.020786183988427], "label": "S", "properties": {}}, {"species": [{"element": "S", "occu": 1}], "abc": [0.79236964, 0.72936488, 0.3188807800000001], "xyz": [4.96019512028764, 11.21014273581216, 15.373834884289243], "label": "S", "properties": {}}, {"species": [{"element": "S", "occu": 1}], "abc": [0.74570721, 0.08757693, 0.3918444100000001], "xyz": [4.66809059494671, 1.34603394348276, 18.891547053013785], "label": "S", "properties": {}}, {"species": [{"element": "S", "occu": 1}], "abc": [0.29515976, 0.32967058, 0.4243563800000001], "xyz": [1.84768563477176, 5.06694846288456, 20.459009533954045], "label": "S", "properties": {}}, {"species": [{"element": "S", "occu": 1}], "abc": [0.73110464, 0.46663603, 0.30747718000000007], "xyz": [4.57667922227264, 7.17207072264396, 14.824046140400442], "label": "S", "properties": {}}, {"species": [{"element": "S", "occu": 1}], "abc": [0.27186161, 0.23486045, 0.3632340000000001], "xyz": [1.7018403573811098, 3.6097421738994, 17.512186028772007], "label": "S", "properties": {}}, {"species": [{"element": "S", "occu": 1}], "abc": [0.22742359, 0.87472562, 0.2917307700000001], "xyz": [1.42366052964409, 13.44429835293384, 14.064882457470663], "label": "S", "properties": {}}, {"species": [{"element": "S", "occu": 1}], "abc": [0.7676779, 0.82111985, 0.37991002000000007], "xyz": [4.8056260377829005, 12.6203920343802, 18.316167937017163], "label": "S", "properties": {}}, {"species": [{"element": "S", "occu": 1}], "abc": [0.83712763, 0.3534071, 0.3888148900000001], "xyz": [5.24037794454613, 5.4317724138972, 18.745488264965623], "label": "S", "properties": {}}, {"species": [{"element": "S", "occu": 1}], "abc": [0.16023588, 0.04839002, 0.4327183900000001], "xyz": [1.00306875724188, 0.7437416388746401, 20.862157572668625], "label": "S", "properties": {}}, {"species": [{"element": "S", "occu": 1}], "abc": [0.33236581, 0.70377246, 0.3532365400000001], "xyz": [2.0805936846753097, 10.816794099180722, 17.030189906891323], "label": "S", "properties": {}}, {"species": [{"element": "S", "occu": 1}], "abc": [0.66338997, 0.00012573, 0.3133202600000001], "xyz": [4.15278870609147, 0.0019324364043600002, 15.105751883643084], "label": "S", "properties": {}}, {"species": [{"element": "S", "occu": 1}], "abc": [0.68690607, 0.97420444, 0.4531330800000001], "xyz": [4.2999983398025705, 14.97326115601008, 21.846387708062643], "label": "S", "properties": {}}, {"species": [{"element": "S", "occu": 1}], "abc": [0.71788422, 0.3319937, 0.52872825], "xyz": [4.49392004087322, 5.102654194688401, 25.4909713095885], "label": "S", "properties": {}}, {"species": [{"element": "S", "occu": 1}], "abc": [0.21604337, 0.8038982, 0.4289162500000001], "xyz": [1.35242091007487, 12.3556998892824, 20.678849338892505], "label": "S", "properties": {}}, {"species": [{"element": "S", "occu": 1}], "abc": [0.1895676, 0.71267447, 0.4920079800000001], "xyz": [1.1866838871876, 10.953615607142039, 23.720618866626847], "label": "S", "properties": {}}, {"species": [{"element": "S", "occu": 1}], "abc": [0.80437754, 0.44613745, 0.46950846000000007], "xyz": [5.03536398590054, 6.8570130416634, 22.635875203318683], "label": "S", "properties": {}}, {"species": [{"element": "S", "occu": 1}], "abc": [0.74865839, 0.1868284, 0.4534859500000001], "xyz": [4.68656483713889, 2.8715024379888003, 21.863400226395104], "label": "S", "properties": {}}, {"species": [{"element": "S", "occu": 1}], "abc": [0.22225641, 0.591949, 0.4341536800000001], "xyz": [1.3913142360359099, 9.098097487668, 20.931355570337445], "label": "S", "properties": {}}, {"species": [{"element": "S", "occu": 1}], "abc": [0.73825461, 0.55525069, 0.52749716], "xyz": [4.6214376841241105, 8.53405429811508, 25.43161817332328], "label": "S", "properties": {}}, {"species": [{"element": "S", "occu": 1}], "abc": [0.32482492, 0.45534082, 0.4989579200000001], "xyz": [2.03338808277892, 6.99846637206024, 24.055688387015365], "label": "S", "properties": {}}, {"species": [{"element": "S", "occu": 1}], "abc": [0.65596998, 0.71672155, 0.4564378500000001], "xyz": [4.10633993227098, 11.015818142124601, 22.005716810025305], "label": "S", "properties": {}}]}, "formula": "(Li3PS4)14.0", "bandgap": 2.3903, "slab_thickness": 25.486150123788498}