{"miller": "011_0.13", "final_energy": -488.35572198, "gamma": 0.021666613102941764, "work_function": "Not calculated", "ionization_potentail": "Not calculated", "electron_affinity": "Not calculated", "is_stochiometric": true, "incar_parameters": {"SYSTEM": "unknown system", "LCOMPAT": false, "PREC": "normal", "ENMAX": 520.0, "ENAUG": 628.945, "EDIFF": 1e-05, "IALGO": 38, "IWAVPR": 11, "NBANDS": 324, "NBANDSLOW": -1, "NBANDSHIGH": -1, "NELECT": 532.0, "TURBO": 0, "IRESTART": 0, "NREBOOT": 0, "NMIN": 0, "EREF": 0.0, "ISMEAR": 0, "SIGMA": 0.05, "KSPACING": 0.5, "KGAMMA": true, "KBLOWUP": true, "LREAL": true, "ROPT": [-0.0005, -0.0005, -0.0005], "LMAXPAW": -100, "LMAXMIX": 2, "NLSPLINE": false, "ISTART": 0, "ICHARG": 2, "INIWAV": 1, "ISPIN": 1, "LNONCOLLINEAR": false, "MAGMOM": [0.6, 0.6, 0.6, 0.6, 0.6, 0.6, 0.6, 0.6, 0.6, 0.6, 0.6, 0.6, 0.6, 0.6, 0.6, 0.6, 0.6, 0.6, 0.6, 0.6, 0.6, 0.6, 0.6, 0.6, 0.6, 0.6, 0.6, 0.6, 0.6, 0.6, 0.6, 0.6, 0.6, 0.6, 0.6, 0.6, 0.6, 0.6, 0.6, 0.6, 0.6, 0.6, 0.6, 0.6, 0.6, 0.6, 0.6, 0.6, 0.6, 0.6, 0.6, 0.6, 0.6, 0.6, 0.6, 0.6, 0.6, 0.6, 0.6, 0.6, 0.6, 0.6, 0.6, 0.6, 0.6, 0.6, 0.6, 0.6, 0.6, 0.6, 0.6, 0.6, 0.6, 0.6, 0.6, 0.6, 0.6, 0.6, 0.6, 0.6, 0.6, 0.6, 0.6, 0.6, 0.6, 0.6, 0.6, 0.6, 0.6, 0.6, 0.6, 0.6, 0.6, 0.6, 0.6, 0.6, 0.6, 0.6, 0.6, 0.6, 0.6, 0.6, 0.6, 0.6, 0.6, 0.6, 0.6, 0.6, 0.6, 0.6, 0.6, 0.6], "NUPDOWN": -1.0, "LSORBIT": false, "SAXIS": [0.0, 0.0, 1.0], "LSPIRAL": false, "QSPIRAL": [0.0, 0.0, 0.0], "LZEROZ": false, "LASPH": false, "LMETAGGA": false, "NELM": 100, "NELMDL": -5, "NELMIN": 6, "ENINI": 520.0, "LDIAG": true, "LSUBROT": false, "WEIMIN": 0.001, "EBREAK": 1e-08, "DEPER": 0.3, "NRMM": 4, "TIME": 0.4, "AMIX": 0.4, "BMIX": 1.0, "AMIN": 0.1, "AMIX_MAG": 1.6, "BMIX_MAG": 1.0, "IMIX": 4, "MIXFIRST": false, "MAXMIX": -45, "WC": 100.0, "INIMIX": 1, "MIXPRE": 1, "MREMOVE": 5, "LDIPOL": false, "LMONO": false, "IDIPOL": 0, "EPSILON": 1.0, "DIPOL": [-100.0, -100.0, -100.0], "EFIELD": 0.0, "NGX": 36, "NGY": 90, "NGZ": 270, "NGXF": 72, "NGYF": 180, "NGZF": 540, "ADDGRID": false, "NSW": 150, "IBRION": 2, "MDALGO": 0, "ISIF": 2, "PSTRESS": 0.0, "EDIFFG": -0.01, "NFREE": 1, "POTIM": 0.5, "SMASS": -3.0, "SCALEE": 1.0, "TEBEG": 0.0001, "TEEND": 0.0001, "NBLOCK": 1, "KBLOCK": 150, "NPACO": 256, "APACO": 10.0, "ISYM": 0, "SYMPREC": 1e-05, "LORBIT": 11, "RWIGS": [-1.0, -1.0, -1.0], "NEDOS": 301, "EMIN": 10.0, "EMAX": -10.0, "EFERMI": 0.0, "NWRITE": 2, "LWAVE": false, "LDOWNSAMPLE": false, "LCHARG": false, "LPARD": false, "LVTOT": false, "LVHAR": false, "LELF": false, "LOPTICS": false, "STM": [0.0, 0.0, 0.0, 0.0, 0.0, 0.0, 0.0], "NPAR": 2, "NSIM": 4, "NBLK": -1, "LPLANE": true, "LSCALAPACK": true, "LSCAAWARE": false, "LSCALU": false, "LASYNC": false, "LORBITALREAL": false, "IDIOT": 3, "PHON_NSTRUCT": -1, "LMUSIC": false, "POMASS": [7.01, 30.974, 32.066], "DARWINR": [0.0, 0.0, 0.0], "DARWINV": [1.0, 1.0, 1.0], "LCORR": true, "GGA_COMPAT": true, "LBERRY": false, "ICORELEVEL": 0, "LDAU": false, "I_CONSTRAINED_M": 0, "GGA": "--", "VOSKOWN": 0, "LHFCALC": false, "PRECFOCK": "", "LSYMGRAD": false, "LHFONE": false, "LRHFCALC": false, "LTHOMAS": false, "LMODELHF": false, "LFOCKACE": false, "ENCUT4O": -1.0, "EXXOEP": 0, "FOURORBIT": 0, "AEXX": 0.0, "HFALPHA": 0.0, "MCALPHA": 0.0, "ALDAX": 1.0, "AGGAX": 1.0, "ALDAC": 1.0, "AGGAC": 1.0, "NKREDX": 1, "NKREDY": 1, "NKREDZ": 1, "SHIFTRED": false, "ODDONLY": false, "EVENONLY": false, "LMAXFOCK": 0, "NMAXFOCKAE": 0, "LFOCKAEDFT": false, "HFSCREEN": 0.0, "HFSCREENC": 0.0, "NBANDSGWLOW": 0, "LUSE_VDW": false, "Zab_VDW": -0.8491, "PARAM1": 0.1234, "PARAM2": 1.0, "PARAM3": 0.0, "MODEL_GW": 0, "MODEL_EPS0": 24.84988167, "MODEL_ALPHA": 1.0, "LEPSILON": false, "LRPA": false, "LNABLA": false, "LVEL": false, "CSHIFT": 0.1, "OMEGAMAX": -1.0, "DEG_THRESHOLD": 0.002, "RTIME": -0.1, "WPLASMAI": 0.0, "DFIELD": [0.0, 0.0, 0.0], "WPLASMA": [0.0, 0.0, 0.0, 0.0, 0.0, 0.0, 0.0, 0.0, 0.0], "NUCIND": false, "MAGPOS": [0.0, 0.0, 0.0], "LNICSALL": true, "ORBITALMAG": false, "LMAGBLOCH": false, "LCHIMAG": false, "LGAUGE": true, "MAGATOM": 0, "MAGDIPOL": [0.0, 0.0, 0.0], "AVECCONST": [0.0, 0.0, 0.0], "LFINITE_TEMPERATURE": false, "LADDER": false, "LRPAFORCE": false, "LFXC": false, "LHARTREE": true, "IBSE": 0, "KPOINT": [-1, 0, 0, 0], "LTCTC": false, "LTCTE": false, "LTETE": false, "LTRIPLET": false, "LFXCEPS": false, "LFXHEG": false, "NATURALO": 2, "LHOLEGF": false, "L2ORDER": false, "LDMP1": false, "LMP2LT": false, "LSMP2LT": false, "LGWLF": false, "ENCUTGW": -2.0, "ENCUTGWSOFT": -2.0, "ENCUTLF": -1.0, "LESF_SPLINES": false, "LMAXMP2": -1, "SCISSOR": 0.0, "NOMEGA": 0, "NOMEGAR": 0, "NBANDSGW": -1, "NBANDSO": -1, "NBANDSV": -1, "NELMGW": 1, "NELMHF": 1, "DIM": 3, "IESPILON": 4, "ANTIRES": 0, "OMEGAMIN": -30.0, "OMEGATL": -200.0, "OMEGAGRID": 0, "LSELFENERGY": false, "LSPECTRAL": false, "LSPECTRALGW": false, "LSINGLES": false, "LFERMIGW": false, "ODDONLYGW": false, "EVENONLYGW": false, "NKREDLFX": 1, "NKREDLFY": 1, "NKREDLFZ": 1, "MAXMEM": 2800, "TELESCOPE": 0, "NTAUPAR": -1, "NOMEGAPAR": -1, "DAMP_NEWTON": 0.80000001, "LAMBDA": 1.0, "OFIELD_KAPPA": 0.0, "OFIELD_K": [0.0, 0.0, 0.0], "OFIELD_Q6_NEAR": 0.0, "OFIELD_Q6_FAR": 0.0, "OFIELD_A": 0.0, "KPOINTS_OPT_MODE": 1, "LKPOINTS_OPT": false, "@module": "pymatgen.io.vasp.inputs", "@class": "Incar"}, "relaxed_structures": {"@module": "pymatgen.core.structure", "@class": "Structure", "charge": 0, "lattice": {"matrix": [[6.259951, 0.0, 0.0], [0.0, 15.369732, 0.0], [0.0, 0.0, 48.211858]], "a": 6.259951, "b": 15.369732, "c": 48.211858, "alpha": 90.0, "beta": 90.0, "gamma": 90.0, "volume": 4638.644578466173}, "sites": [{"species": [{"element": "Li", "occu": 1}], "abc": [0.13534603, 0.65654291, 0.10480273000000008], "xyz": [0.8472595158445301, 10.09088857320012, 5.052734336772343], "label": "Li", "properties": {}}, {"species": [{"element": "Li", "occu": 1}], "abc": [0.39263198, 0.30184605, 0.03089612000000007], "xyz": [2.45785695583298, 4.6392928937586, 1.4895593501909632], "label": "Li", "properties": {}}, {"species": [{"element": "Li", "occu": 1}], "abc": [0.56997755, 0.51191718, 0.08357376000000008], "xyz": [3.5680315341000504, 7.86802986279576, 4.029246249646084], "label": "Li", "properties": {}}, {"species": [{"element": "Li", "occu": 1}], "abc": [0.61273659, 0.63607664, 9.999999999998899e-05], "xyz": [3.8357010293070903, 9.77632748826048, 0.004821185799999469], "label": "Li", "properties": {}}, {"species": [{"element": "Li", "occu": 1}], "abc": [0.38879389, 0.12173515, 0.10663948000000008], "xyz": [2.43383070049939, 1.8710366304798, 5.141287466953844], "label": "Li", "properties": {}}, {"species": [{"element": "Li", "occu": 1}], "abc": [0.15002527, 0.68848277, 0.04771691000000007], "xyz": [0.93915083896177, 10.58179566151764, 2.300520889118783], "label": "Li", "properties": {}}, {"species": [{"element": "Li", "occu": 1}], "abc": [0.88870865, 0.03164572, 0.08132865000000009], "xyz": [5.56327260227615, 0.48638623534704006, 3.9210053251317043], "label": "Li", "properties": {}}, {"species": [{"element": "Li", "occu": 1}], "abc": [0.56954631, 0.77548456, 0.12123281000000008], "xyz": [3.56533199283081, 11.91898985733792, 5.844859020660984], "label": "Li", "properties": {}}, {"species": [{"element": "Li", "occu": 1}], "abc": [0.92926277, 0.4055426, 0.04819687000000007], "xyz": [5.81713940632427, 6.2330810765832, 2.3236606524844636], "label": "Li", "properties": {}}, {"species": [{"element": "Li", "occu": 1}], "abc": [0.05572771, 0.26677374, 0.11973432000000007], "xyz": [0.34885273394221, 4.10024088843768, 5.772614033566564], "label": "Li", "properties": {}}, {"species": [{"element": "Li", "occu": 1}], "abc": [0.918535, 0.87052169, 0.15498428000000006], "xyz": [5.749984091785, 13.379685075487082, 7.472080099592243], "label": "Li", "properties": {}}, {"species": [{"element": "Li", "occu": 1}], "abc": [0.12074246, 0.36678363, 0.24319780000000005], "xyz": [0.75584188321946, 5.6373660950871605, 11.725017799512402], "label": "Li", "properties": {}}, {"species": [{"element": "Li", "occu": 1}], "abc": [0.38158942, 0.00852676, 0.17059909000000006], "xyz": [2.38873107131842, 0.13105401602832, 8.224899102009223], "label": "Li", "properties": {}}, {"species": [{"element": "Li", "occu": 1}], "abc": [0.58884625, 0.22925038, 0.22858486000000006], "xyz": [3.68614867153375, 3.5235169014981604, 11.020500811269883], "label": "Li", "properties": {}}, {"species": [{"element": "Li", "occu": 1}], "abc": [0.62056603, 0.38404052, 0.14633040000000005], "xyz": [3.88471294006453, 5.90259986954064, 7.054860465883203], "label": "Li", "properties": {}}, {"species": [{"element": "Li", "occu": 1}], "abc": [0.40501181, 0.84804192, 0.2522123500000001], "xyz": [2.5353540850213103, 13.03417703516544, 12.159626004046304], "label": "Li", "properties": {}}, {"species": [{"element": "Li", "occu": 1}], "abc": [0.08785937, 0.4821828, 0.18143266000000005], "xyz": [0.54999535109087, 7.411020411009601, 8.747205640482282], "label": "Li", "properties": {}}, {"species": [{"element": "Li", "occu": 1}], "abc": [0.87862343, 0.74416115, 0.21826404000000005], "xyz": [5.50013961925193, 11.437557440311801, 10.522914902986322], "label": "Li", "properties": {}}, {"species": [{"element": "Li", "occu": 1}], "abc": [0.55128586, 0.4928986, 0.26676367000000006], "xyz": [3.4510224705928603, 7.5757193851752005, 12.861172177598863], "label": "Li", "properties": {}}, {"species": [{"element": "Li", "occu": 1}], "abc": [0.94218239, 0.13359345, 0.19351234000000006], "xyz": [5.8980155944628905, 2.0532955234554002, 9.329589457327723], "label": "Li", "properties": {}}, {"species": [{"element": "Li", "occu": 1}], "abc": [0.04139871, 0.98293654, 0.2655935300000001], "xyz": [0.25915389606321, 15.10747119280728, 12.804757554078744], "label": "Li", "properties": {}}, {"species": [{"element": "Li", "occu": 1}], "abc": [0.44396085, 0.62316785, 0.19338536000000006], "xyz": [2.77917316691835, 9.5779228455162, 9.323467515598884], "label": "Li", "properties": {}}, {"species": [{"element": "Li", "occu": 1}], "abc": [0.91094798, 0.5889158, 0.30054140000000007], "xyz": [5.70248971834898, 9.0514780165656, 14.489659299921204], "label": "Li", "properties": {}}, {"species": [{"element": "Li", "occu": 1}], "abc": [0.07731189, 0.08797047, 0.38620343000000007], "xyz": [0.48396864311738996, 1.35208254781404, 18.619584926272942], "label": "Li", "properties": {}}, {"species": [{"element": "Li", "occu": 1}], "abc": [0.41158921, 0.72951504, 0.31296928000000007], "xyz": [2.57652828672871, 11.212450654769281, 15.088830485722243], "label": "Li", "properties": {}}, {"species": [{"element": "Li", "occu": 1}], "abc": [0.60717114, 0.94892457, 0.3707552400000001], "xyz": [3.8008615850141405, 14.58471632911524, 17.874798983635923], "label": "Li", "properties": {}}, {"species": [{"element": "Li", "occu": 1}], "abc": [0.61600433, 0.10494076, 0.2896438700000001], "xyz": [3.85615692158783, 1.61291135707632, 13.964269131010465], "label": "Li", "properties": {}}, {"species": [{"element": "Li", "occu": 1}], "abc": [0.37804404, 0.57256277, 0.3952684600000001], "xyz": [2.3665371662420402, 8.80013632807764, 19.056626865398684], "label": "Li", "properties": {}}, {"species": [{"element": "Li", "occu": 1}], "abc": [0.11180978, 0.21111398, 0.3231505700000001], "xyz": [0.69992374412078, 3.2447652940533604, 15.579689393459065], "label": "Li", "properties": {}}, {"species": [{"element": "Li", "occu": 1}], "abc": [0.90718274, 0.47440463, 0.3600774300000001], "xyz": [5.67891950044574, 7.2914720226591605, 17.360001924164944], "label": "Li", "properties": {}}, {"species": [{"element": "Li", "occu": 1}], "abc": [0.42718185, 0.18231326, 0.42014243000000007], "xyz": [2.6741374490893497, 2.80210594624632, 20.255847174934942], "label": "Li", "properties": {}}, {"species": [{"element": "Li", "occu": 1}], "abc": [0.04659383, 0.8266401, 0.3465645600000001], "xyz": [0.29167509270233, 12.7052367974532, 16.708521354552484], "label": "Li", "properties": {}}, {"species": [{"element": "Li", "occu": 1}], "abc": [0.94381294, 0.68910341, 0.42126381000000007], "xyz": [5.90822275756594, 10.59133473198612, 20.309910988258984], "label": "Li", "properties": {}}, {"species": [{"element": "Li", "occu": 1}], "abc": [0.54190649, 0.33449241, 0.3467356100000001], "xyz": [3.39230807398199, 5.14105869773412, 16.716767992863385], "label": "Li", "properties": {}}, {"species": [{"element": "Li", "occu": 1}], "abc": [0.86184268, 0.30003505, 0.4363402700000001], "xyz": [5.395092946508679, 4.611458309106601, 21.036775136921666], "label": "Li", "properties": {}}, {"species": [{"element": "Li", "occu": 1}], "abc": [0.42872687, 0.4442373, 0.45799888000000005], "xyz": [2.68380919858337, 6.827808245403601, 22.080976966719042], "label": "Li", "properties": {}}, {"species": [{"element": "Li", "occu": 1}], "abc": [0.59770532, 0.65222939, 0.51020002], "xyz": [3.74160601563932, 10.02459092682348, 24.59769091583716], "label": "Li", "properties": {}}, {"species": [{"element": "Li", "occu": 1}], "abc": [0.60912557, 0.83450189, 0.4342814400000001], "xyz": [3.8130962210470702, 12.82607040279348, 20.937515117315524], "label": "Li", "properties": {}}, {"species": [{"element": "Li", "occu": 1}], "abc": [0.37861394, 0.32078058, 0.5418780200000001], "xyz": [2.37010471231694, 4.93031154540456, 26.12494615356116], "label": "Li", "properties": {}}, {"species": [{"element": "Li", "occu": 1}], "abc": [0.10747942, 0.92382491, 0.45975674000000005], "xyz": [0.6728159027084201, 14.198941281624121, 22.165726663422923], "label": "Li", "properties": {}}, {"species": [{"element": "Li", "occu": 1}], "abc": [0.84537734, 0.26667343, 0.4942202700000001], "xyz": [5.29202072491034, 4.09869915062076, 23.827277477961662], "label": "Li", "properties": {}}, {"species": [{"element": "Li", "occu": 1}], "abc": [0.06590984, 0.55062049, 0.49281973000000007], "xyz": [0.41259236881784, 8.462889365008682, 23.759754842358344], "label": "Li", "properties": {}}, {"species": [{"element": "P", "occu": 1}], "abc": [0.17071742, 0.89082859, 0.10110785000000008], "xyz": [1.06868268404642, 13.69179668623788, 4.874597306885304], "label": "P", "properties": {}}, {"species": [{"element": "P", "occu": 1}], "abc": [0.64787814, 0.26349253, 0.07876427000000008], "xyz": [4.05568541037114, 4.04980957010196, 3.797371800713664], "label": "P", "properties": {}}, {"species": [{"element": "P", "occu": 1}], "abc": [0.31823041, 0.52507548, 0.02698399000000007], "xyz": [1.99210677330991, 8.070269407371361, 1.3009482941534234], "label": "P", "properties": {}}, {"species": [{"element": "P", "occu": 1}], "abc": [0.15825985, 0.61299994, 0.24801217000000006], "xyz": [0.99069890626735, 9.42164479381608, 11.957127522311863], "label": "P", "properties": {}}, {"species": [{"element": "P", "occu": 1}], "abc": [0.84325479, 0.62170937, 0.15104828000000006], "xyz": [5.27873366591529, 9.555506398788841, 7.282318226504243], "label": "P", "properties": {}}, {"species": [{"element": "P", "occu": 1}], "abc": [0.65696787, 0.9822355, 0.22148369000000004], "xyz": [4.11258667477437, 15.096696395886001, 10.678140211596022], "label": "P", "properties": {}}, {"species": [{"element": "P", "occu": 1}], "abc": [0.33990007, 0.25174533, 0.17548563000000006], "xyz": [2.12775778309657, 3.86925825435156, 8.460488274600543], "label": "P", "properties": {}}, {"species": [{"element": "P", "occu": 1}], "abc": [0.15373101, 0.33558545, 0.39026811000000006], "xyz": [0.96234858978051, 5.1578584295994006, 18.815550701248384], "label": "P", "properties": {}}, {"species": [{"element": "P", "occu": 1}], "abc": [0.84917834, 0.34391863, 0.29345441000000005], "xyz": [5.31581479866134, 5.28593717290716, 14.147982344393782], "label": "P", "properties": {}}, {"species": [{"element": "P", "occu": 1}], "abc": [0.65899124, 0.70480436, 0.3658472900000001], "xyz": [4.12525287182924, 10.832654125631521, 17.638177595164823], "label": "P", "properties": {}}, {"species": [{"element": "P", "occu": 1}], "abc": [0.34502434, 0.97503968, 0.3195620700000001], "xyz": [2.15983546220734, 14.98609857096576, 15.406681141026064], "label": "P", "properties": {}}, {"species": [{"element": "P", "occu": 1}], "abc": [0.82508522, 0.06567825, 0.43997004000000006], "xyz": [5.16499304802422, 1.0094571007289999, 21.211773092734322], "label": "P", "properties": {}}, {"species": [{"element": "P", "occu": 1}], "abc": [0.67675726, 0.43100245, 0.51476977], "xyz": [4.2364672864942605, 6.6243921478434, 24.81800705393266], "label": "P", "properties": {}}, {"species": [{"element": "P", "occu": 1}], "abc": [0.34833008, 0.69264993, 0.46235521000000007], "xyz": [2.18052923262608, 10.64584379391876, 22.291003730080185], "label": "P", "properties": {}}, {"species": [{"element": "S", "occu": 1}], "abc": [0.26189522, 0.99771255, 0.07874815000000009], "xyz": [1.63945124433422, 15.334574506536601, 3.796594625562704], "label": "S", "properties": {}}, {"species": [{"element": "S", "occu": 1}], "abc": [0.76631792, 0.16413882, 0.10290014000000008], "xyz": [4.79711262962192, 2.52276967419624, 4.961006937860124], "label": "S", "properties": {}}, {"species": [{"element": "S", "occu": 1}], "abc": [0.24134563, 0.63456226, 0.0032656800000000702], "xyz": [1.51081181786413, 9.753051873514321, 0.15744450043344338], "label": "S", "properties": {}}, {"species": [{"element": "S", "occu": 1}], "abc": [0.18184333, 0.53738921, 0.06604666000000008], "xyz": [1.13833033547683, 8.259528137391719, 3.184232193294284], "label": "S", "properties": {}}, {"species": [{"element": "S", "occu": 1}], "abc": [0.75777804, 0.26339014, 0.038895290000000075], "xyz": [4.74365339927604, 4.04823586324248, 1.8752141983488235], "label": "S", "properties": {}}, {"species": [{"element": "S", "occu": 1}], "abc": [0.74704128, 0.63306182, 0.11002933000000008], "xyz": [4.67644180777728, 9.72999051283224, 5.304718433795144], "label": "S", "properties": {}}, {"species": [{"element": "S", "occu": 1}], "abc": [0.29613091, 0.88233257, 0.14052953000000004], "xyz": [1.8537649861854102, 13.56121513577124, 6.775189745166742], "label": "S", "properties": {}}, {"species": [{"element": "S", "occu": 1}], "abc": [0.29577856, 0.78010898, 0.08184429000000008], "xyz": [1.8515592924505602, 11.99006595339336, 3.945865287590824], "label": "S", "properties": {}}, {"species": [{"element": "S", "occu": 1}], "abc": [0.19936145, 0.41705928, 0.00866665000000007], "xyz": [1.24799290828895, 6.41008936171296, 0.4178352991357034], "label": "S", "properties": {}}, {"species": [{"element": "S", "occu": 1}], "abc": [0.76088884, 0.37681107, 0.09771831000000009], "xyz": [4.76312685484684, 5.791485160533241, 4.711181285719984], "label": "S", "properties": {}}, {"species": [{"element": "S", "occu": 1}], "abc": [0.84278411, 0.89320178, 0.10375278000000009], "xyz": [5.27578723217861, 13.72827198052296, 5.002114296465244], "label": "S", "properties": {}}, {"species": [{"element": "S", "occu": 1}], "abc": [0.3197939, 0.25403203, 0.07730047000000008], "xyz": [2.0018941440989, 3.9044042205159606, 3.7267992829732637], "label": "S", "properties": {}}, {"species": [{"element": "S", "occu": 1}], "abc": [0.64740885, 0.52715938, 0.03200183000000007], "xyz": [4.05274767796635, 8.10229839188616, 1.5428676837001434], "label": "S", "properties": {}}, {"species": [{"element": "S", "occu": 1}], "abc": [0.26387303, 0.72059285, 0.22644189000000006], "xyz": [1.65183223802153, 11.0753189856162, 10.917184245931622], "label": "S", "properties": {}}, {"species": [{"element": "S", "occu": 1}], "abc": [0.71063444, 0.51917476, 0.17195611000000005], "xyz": [4.44853677331244, 7.97957692236432, 8.290323557552382], "label": "S", "properties": {}}, {"species": [{"element": "S", "occu": 1}], "abc": [0.78401306, 0.87901533, 0.24290301000000006], "xyz": [4.90788333896006, 13.51023004599156, 11.710805425892582], "label": "S", "properties": {}}, {"species": [{"element": "S", "occu": 1}], "abc": [0.23484531, 0.36022929, 0.15416808000000004], "xyz": [1.47012013317981, 5.53662764585028, 7.432729581092642], "label": "S", "properties": {}}, {"species": [{"element": "S", "occu": 1}], "abc": [0.21054994, 0.23777791, 0.21428836000000004], "xyz": [1.3180323074529399, 3.6545827522201204, 10.331239983372882], "label": "S", "properties": {}}, {"species": [{"element": "S", "occu": 1}], "abc": [0.76583307, 0.99474584, 0.18118848000000004], "xyz": [4.79407749237957, 15.28897696891488, 8.735433268995841], "label": "S", "properties": {}}, {"species": [{"element": "S", "occu": 1}], "abc": [0.73485428, 0.35646835, 0.25345202000000006], "xyz": [4.60015178494028, 5.4788230059822, 12.219392798053162], "label": "S", "properties": {}}, {"species": [{"element": "S", "occu": 1}], "abc": [0.28753997, 0.60019668, 0.28691538000000005], "xyz": [1.79998612274147, 9.224862118889762, 13.832723558576042], "label": "S", "properties": {}}, {"species": [{"element": "S", "occu": 1}], "abc": [0.730006, 0.73335463, 0.17040845000000004], "xyz": [4.569801789706, 11.271464124059161, 8.215707993400102], "label": "S", "properties": {}}, {"species": [{"element": "S", "occu": 1}], "abc": [0.27330218, 0.50599146, 0.22584977000000006], "xyz": [1.7108582549931801, 7.7769531344887195, 10.888637040572663], "label": "S", "properties": {}}, {"species": [{"element": "S", "occu": 1}], "abc": [0.22404448, 0.14560279, 0.15300697000000005], "xyz": [1.40250746662048, 2.2378758607522804, 7.376750310650262], "label": "S", "properties": {}}, {"species": [{"element": "S", "occu": 1}], "abc": [0.77111372, 0.09218503, 0.24207745000000006], "xyz": [4.82713410262772, 1.41685920551196, 11.671003644402102], "label": "S", "properties": {}}, {"species": [{"element": "S", "occu": 1}], "abc": [0.83274621, 0.62073376, 0.2508564100000001], "xyz": [5.21295047003571, 9.540511534552321, 12.094253617309784], "label": "S", "properties": {}}, {"species": [{"element": "S", "occu": 1}], "abc": [0.16954031, 0.60866668, 0.15107133000000006], "xyz": [1.06131403312481, 9.355043748929761, 7.283429509831143], "label": "S", "properties": {}}, {"species": [{"element": "S", "occu": 1}], "abc": [0.33173785, 0.97086688, 0.22015636000000005], "xyz": [2.07666268584535, 14.921963753276161, 10.614147166116883], "label": "S", "properties": {}}, {"species": [{"element": "S", "occu": 1}], "abc": [0.66511095, 0.2605127, 0.17860320000000005], "xyz": [4.16356195656345, 4.0040103815964, 8.610792116745602], "label": "S", "properties": {}}, {"species": [{"element": "S", "occu": 1}], "abc": [0.28603776, 0.43855375, 0.3695222000000001], "xyz": [1.7905823617497598, 6.740453605095, 17.815351834247604], "label": "S", "properties": {}}, {"species": [{"element": "S", "occu": 1}], "abc": [0.72947172, 0.23777408, 0.3144884300000001], "xyz": [4.56645722308572, 3.6545238861465603, 15.162071529802944], "label": "S", "properties": {}}, {"species": [{"element": "S", "occu": 1}], "abc": [0.76324698, 0.59642168, 0.3872688100000001], "xyz": [4.77788869569798, 9.16684138058976, 18.670948875548984], "label": "S", "properties": {}}, {"species": [{"element": "S", "occu": 1}], "abc": [0.22989368, 0.0805216, 0.2978117700000001], "xyz": [1.43912317200968, 1.2375954122112, 14.358058765968664], "label": "S", "properties": {}}, {"species": [{"element": "S", "occu": 1}], "abc": [0.22389369, 0.96345641, 0.3593113300000001], "xyz": [1.40156352860919, 14.808066815382121, 17.323066819751144], "label": "S", "properties": {}}, {"species": [{"element": "S", "occu": 1}], "abc": [0.78947966, 0.7174987, 0.3269634900000001], "xyz": [4.94210398709666, 11.027762729348401, 15.763517351064424], "label": "S", "properties": {}}, {"species": [{"element": "S", "occu": 1}], "abc": [0.69879181, 0.07495618, 0.40062733000000006], "xyz": [4.3744024898013105, 1.15205639834376, 19.314987944879142], "label": "S", "properties": {}}, {"species": [{"element": "S", "occu": 1}], "abc": [0.24907742, 0.32415313, 0.4313356300000001], "xyz": [1.55921244440642, 4.982146735061161, 20.795492143900542], "label": "S", "properties": {}}, {"species": [{"element": "S", "occu": 1}], "abc": [0.731105, 0.45253415, 0.31468003000000005], "xyz": [4.576681475855, 6.955328606347801, 15.171308921795742], "label": "S", "properties": {}}, {"species": [{"element": "S", "occu": 1}], "abc": [0.26766726, 0.22402238, 0.37091931000000006], "xyz": [1.67558393190426, 3.44316394260216, 17.882709103177984], "label": "S", "properties": {}}, {"species": [{"element": "S", "occu": 1}], "abc": [0.23097142, 0.86604036, 0.29820299000000006], "xyz": [1.44586977160042, 13.31080823438352, 14.376920209055422], "label": "S", "properties": {}}, {"species": [{"element": "S", "occu": 1}], "abc": [0.77330316, 0.81150354, 0.3880615400000001], "xyz": [4.84083988974516, 12.472591926851281, 18.709167861741324], "label": "S", "properties": {}}, {"species": [{"element": "S", "occu": 1}], "abc": [0.82740275, 0.34781885, 0.3900041800000001], "xyz": [5.17950067226525, 5.3458825090482005, 18.802826145566446], "label": "S", "properties": {}}, {"species": [{"element": "S", "occu": 1}], "abc": [0.17297144, 0.336159, 0.29238920000000007], "xyz": [1.08279273879944, 5.166673739388, 14.096626591133603], "label": "S", "properties": {}}, {"species": [{"element": "S", "occu": 1}], "abc": [0.33397588, 0.69670425, 0.36251790000000006], "xyz": [2.09067264398188, 10.708157605761, 17.477661517258202], "label": "S", "properties": {}}, {"species": [{"element": "S", "occu": 1}], "abc": [0.66847767, 0.98246772, 0.3217103200000001], "xyz": [4.18463745879417, 15.100265555051042, 15.510252264974564], "label": "S", "properties": {}}, {"species": [{"element": "S", "occu": 1}], "abc": [0.73349086, 0.95890607, 0.4623488400000001], "xyz": [4.59161684254786, 14.738129309073242, 22.290696620544725], "label": "S", "properties": {}}, {"species": [{"element": "S", "occu": 1}], "abc": [0.75167163, 0.32147352, 0.5385986], "xyz": [4.70542757189013, 4.940961847496641, 25.9668392221988], "label": "S", "properties": {}}, {"species": [{"element": "S", "occu": 1}], "abc": [0.23076115, 0.79177615, 0.43804944000000007], "xyz": [1.44455349170365, 12.1693872294918, 21.119177398259524], "label": "S", "properties": {}}, {"species": [{"element": "S", "occu": 1}], "abc": [0.23587139, 0.6931985, 0.5021300900000001], "xyz": [1.47654334370189, 10.654275167802002, 24.208624596607223], "label": "S", "properties": {}}, {"species": [{"element": "S", "occu": 1}], "abc": [0.8148813, 0.41816206, 0.47583277000000007], "xyz": [5.1011170088163, 6.42703879476792, 22.940781938986664], "label": "S", "properties": {}}, {"species": [{"element": "S", "occu": 1}], "abc": [0.70183193, 0.17658457, 0.45937960000000005], "xyz": [4.39343349203543, 2.7140575162352403, 22.1475440432968], "label": "S", "properties": {}}, {"species": [{"element": "S", "occu": 1}], "abc": [0.23568908, 0.57903048, 0.44352467000000007], "xyz": [1.4754020920350799, 8.89954329743136, 21.38314840953686], "label": "S", "properties": {}}, {"species": [{"element": "S", "occu": 1}], "abc": [0.7952114, 0.53928652, 0.5329437], "xyz": [4.9779843986414, 8.28868928361264, 25.6942059863946], "label": "S", "properties": {}}, {"species": [{"element": "S", "occu": 1}], "abc": [0.1528784, 0.06270076, 0.43709100000000006], "xyz": [0.9570112929584, 0.96369387739632, 21.072969225078], "label": "S", "properties": {}}, {"species": [{"element": "S", "occu": 1}], "abc": [0.34771425, 0.42899208, 0.50952567], "xyz": [2.17667416700175, 6.59349329972256, 24.565179249394863], "label": "S", "properties": {}}, {"species": [{"element": "S", "occu": 1}], "abc": [0.67611691, 0.70161235, 0.46395414000000007], "xyz": [4.23245872687141, 10.7835937873902, 22.368091116192122], "label": "S", "properties": {}}]}, "formula": "(Li3PS4)14.0", "bandgap": 2.5903, "slab_thickness": 26.12012496776116}