{"miller": "011_0.06", "final_energy": -488.35557957, "gamma": 0.021667353173729982, "work_function": 4.51385488103878, "ionization_potentail": -4.77665488103878, "electron_affinity": -2.10715488103878, "is_stochiometric": true, "incar_parameters": {"SYSTEM": "unknown system", "LCOMPAT": false, "PREC": "normal", "ENMAX": 520.0, "ENAUG": 628.945, "EDIFF": 1e-05, "IALGO": 38, "IWAVPR": 11, "NBANDS": 324, "NBANDSLOW": -1, "NBANDSHIGH": -1, "NELECT": 532.0, "TURBO": 0, "IRESTART": 0, "NREBOOT": 0, "NMIN": 0, "EREF": 0.0, "ISMEAR": 0, "SIGMA": 0.05, "KSPACING": 0.5, "KGAMMA": true, "KBLOWUP": true, "LREAL": true, "ROPT": [-0.0005, -0.0005, -0.0005], "LMAXPAW": -100, "LMAXMIX": 2, "NLSPLINE": false, "ISTART": 0, "ICHARG": 2, "INIWAV": 1, "ISPIN": 1, "LNONCOLLINEAR": false, "MAGMOM": [0.6, 0.6, 0.6, 0.6, 0.6, 0.6, 0.6, 0.6, 0.6, 0.6, 0.6, 0.6, 0.6, 0.6, 0.6, 0.6, 0.6, 0.6, 0.6, 0.6, 0.6, 0.6, 0.6, 0.6, 0.6, 0.6, 0.6, 0.6, 0.6, 0.6, 0.6, 0.6, 0.6, 0.6, 0.6, 0.6, 0.6, 0.6, 0.6, 0.6, 0.6, 0.6, 0.6, 0.6, 0.6, 0.6, 0.6, 0.6, 0.6, 0.6, 0.6, 0.6, 0.6, 0.6, 0.6, 0.6, 0.6, 0.6, 0.6, 0.6, 0.6, 0.6, 0.6, 0.6, 0.6, 0.6, 0.6, 0.6, 0.6, 0.6, 0.6, 0.6, 0.6, 0.6, 0.6, 0.6, 0.6, 0.6, 0.6, 0.6, 0.6, 0.6, 0.6, 0.6, 0.6, 0.6, 0.6, 0.6, 0.6, 0.6, 0.6, 0.6, 0.6, 0.6, 0.6, 0.6, 0.6, 0.6, 0.6, 0.6, 0.6, 0.6, 0.6, 0.6, 0.6, 0.6, 0.6, 0.6, 0.6, 0.6, 0.6, 0.6], "NUPDOWN": -1.0, "LSORBIT": false, "SAXIS": [0.0, 0.0, 1.0], "LSPIRAL": false, "QSPIRAL": [0.0, 0.0, 0.0], "LZEROZ": false, "LASPH": false, "LMETAGGA": false, "NELM": 100, "NELMDL": -5, "NELMIN": 6, "ENINI": 520.0, "LDIAG": true, "LSUBROT": false, "WEIMIN": 0.001, "EBREAK": 1e-08, "DEPER": 0.3, "NRMM": 4, "TIME": 0.4, "AMIX": 0.4, "BMIX": 1.0, "AMIN": 0.1, "AMIX_MAG": 1.6, "BMIX_MAG": 1.0, "IMIX": 4, "MIXFIRST": false, "MAXMIX": -45, "WC": 100.0, "INIMIX": 1, "MIXPRE": 1, "MREMOVE": 5, "LDIPOL": false, "LMONO": false, "IDIPOL": 0, "EPSILON": 1.0, "DIPOL": [-100.0, -100.0, -100.0], "EFIELD": 0.0, "NGX": 36, "NGY": 90, "NGZ": 270, "NGXF": 72, "NGYF": 180, "NGZF": 540, "ADDGRID": false, "NSW": 150, "IBRION": 2, "MDALGO": 0, "ISIF": 2, "PSTRESS": 0.0, "EDIFFG": -0.01, "NFREE": 1, "POTIM": 0.5, "SMASS": -3.0, "SCALEE": 1.0, "TEBEG": 0.0001, "TEEND": 0.0001, "NBLOCK": 1, "KBLOCK": 150, "NPACO": 256, "APACO": 10.0, "ISYM": 0, "SYMPREC": 1e-05, "LORBIT": 11, "RWIGS": [-1.0, -1.0, -1.0], "NEDOS": 301, "EMIN": 10.0, "EMAX": -10.0, "EFERMI": 0.0, "NWRITE": 2, "LWAVE": false, "LDOWNSAMPLE": false, "LCHARG": false, "LPARD": false, "LVTOT": false, "LVHAR": false, "LELF": false, "LOPTICS": false, "STM": [0.0, 0.0, 0.0, 0.0, 0.0, 0.0, 0.0], "NPAR": 2, "NSIM": 4, "NBLK": -1, "LPLANE": true, "LSCALAPACK": true, "LSCAAWARE": false, "LSCALU": false, "LASYNC": false, "LORBITALREAL": false, "IDIOT": 3, "PHON_NSTRUCT": -1, "LMUSIC": false, "POMASS": [7.01, 30.974, 32.066], "DARWINR": [0.0, 0.0, 0.0], "DARWINV": [1.0, 1.0, 1.0], "LCORR": true, "GGA_COMPAT": true, "LBERRY": false, "ICORELEVEL": 0, "LDAU": false, "I_CONSTRAINED_M": 0, "GGA": "--", "VOSKOWN": 0, "LHFCALC": false, "PRECFOCK": "", "LSYMGRAD": false, "LHFONE": false, "LRHFCALC": false, "LTHOMAS": false, "LMODELHF": false, "LFOCKACE": false, "ENCUT4O": -1.0, "EXXOEP": 0, "FOURORBIT": 0, "AEXX": 0.0, "HFALPHA": 0.0, "MCALPHA": 0.0, "ALDAX": 1.0, "AGGAX": 1.0, "ALDAC": 1.0, "AGGAC": 1.0, "NKREDX": 1, "NKREDY": 1, "NKREDZ": 1, "SHIFTRED": false, "ODDONLY": false, "EVENONLY": false, "LMAXFOCK": 0, "NMAXFOCKAE": 0, "LFOCKAEDFT": false, "HFSCREEN": 0.0, "HFSCREENC": 0.0, "NBANDSGWLOW": 0, "LUSE_VDW": false, "Zab_VDW": -0.8491, "PARAM1": 0.1234, "PARAM2": 1.0, "PARAM3": 0.0, "MODEL_GW": 0, "MODEL_EPS0": 24.84988167, "MODEL_ALPHA": 1.0, "LEPSILON": false, "LRPA": false, "LNABLA": false, "LVEL": false, "CSHIFT": 0.1, "OMEGAMAX": -1.0, "DEG_THRESHOLD": 0.002, "RTIME": -0.1, "WPLASMAI": 0.0, "DFIELD": [0.0, 0.0, 0.0], "WPLASMA": [0.0, 0.0, 0.0, 0.0, 0.0, 0.0, 0.0, 0.0, 0.0], "NUCIND": false, "MAGPOS": [0.0, 0.0, 0.0], "LNICSALL": true, "ORBITALMAG": false, "LMAGBLOCH": false, "LCHIMAG": false, "LGAUGE": true, "MAGATOM": 0, "MAGDIPOL": [0.0, 0.0, 0.0], "AVECCONST": [0.0, 0.0, 0.0], "LFINITE_TEMPERATURE": false, "LADDER": false, "LRPAFORCE": false, "LFXC": false, "LHARTREE": true, "IBSE": 0, "KPOINT": [-1, 0, 0, 0], "LTCTC": false, "LTCTE": false, "LTETE": false, "LTRIPLET": false, "LFXCEPS": false, "LFXHEG": false, "NATURALO": 2, "LHOLEGF": false, "L2ORDER": false, "LDMP1": false, "LMP2LT": false, "LSMP2LT": false, "LGWLF": false, "ENCUTGW": -2.0, "ENCUTGWSOFT": -2.0, "ENCUTLF": -1.0, "LESF_SPLINES": false, "LMAXMP2": -1, "SCISSOR": 0.0, "NOMEGA": 0, "NOMEGAR": 0, "NBANDSGW": -1, "NBANDSO": -1, "NBANDSV": -1, "NELMGW": 1, "NELMHF": 1, "DIM": 3, "IESPILON": 4, "ANTIRES": 0, "OMEGAMIN": -30.0, "OMEGATL": -200.0, "OMEGAGRID": 0, "LSELFENERGY": false, "LSPECTRAL": false, "LSPECTRALGW": false, "LSINGLES": false, "LFERMIGW": false, "ODDONLYGW": false, "EVENONLYGW": false, "NKREDLFX": 1, "NKREDLFY": 1, "NKREDLFZ": 1, "MAXMEM": 2800, "TELESCOPE": 0, "NTAUPAR": -1, "NOMEGAPAR": -1, "DAMP_NEWTON": 0.80000001, "LAMBDA": 1.0, "OFIELD_KAPPA": 0.0, "OFIELD_K": [0.0, 0.0, 0.0], "OFIELD_Q6_NEAR": 0.0, "OFIELD_Q6_FAR": 0.0, "OFIELD_A": 0.0, "KPOINTS_OPT_MODE": 1, "LKPOINTS_OPT": false, "@module": "pymatgen.io.vasp.inputs", "@class": "Incar"}, "relaxed_structures": {"@module": "pymatgen.core.structure", "@class": "Structure", "charge": 0, "lattice": {"matrix": [[6.259951, 0.0, 0.0], [0.0, 15.369732, 0.0], [0.0, 0.0, 48.211858]], "a": 6.259951, "b": 15.369732, "c": 48.211858, "alpha": 90.0, "beta": 90.0, "gamma": 90.0, "volume": 4638.644578466173}, "sites": [{"species": [{"element": "Li", "occu": 1}], "abc": [0.13146971, 0.63878607, 0.10472047000000001], "xyz": [0.82299394258421, 9.817970701233241, 5.04876842933326], "label": "Li", "properties": {}}, {"species": [{"element": "Li", "occu": 1}], "abc": [0.40267655, 0.28375189, 0.031288909999999996], "xyz": [2.5207354718490502, 4.36119050379348, 1.5084964858947798], "label": "Li", "properties": {}}, {"species": [{"element": "Li", "occu": 1}], "abc": [0.57439034, 0.4924281, 0.08323951], "xyz": [3.59565538327334, 7.5684879262692, 4.01313143610958], "label": "Li", "properties": {}}, {"species": [{"element": "Li", "occu": 1}], "abc": [0.62384854, 0.61630969, 0.00010000000000000026], "xyz": [3.90526129182154, 9.472514764303082, 0.004821185800000013], "label": "Li", "properties": {}}, {"species": [{"element": "Li", "occu": 1}], "abc": [0.39162528, 0.1015202, 0.10662440000000001], "xyz": [2.45155506316128, 1.5603382665864, 5.1405604321352], "label": "Li", "properties": {}}, {"species": [{"element": "Li", "occu": 1}], "abc": [0.15649822, 0.66967031, 0.04709202], "xyz": [0.9796711887872199, 10.292653193056921, 2.27039378117316], "label": "Li", "properties": {}}, {"species": [{"element": "Li", "occu": 1}], "abc": [0.89060646, 0.01307243, 0.0810788], "xyz": [5.57515279988346, 0.20091974568876, 3.9089595924104], "label": "Li", "properties": {}}, {"species": [{"element": "Li", "occu": 1}], "abc": [0.57105408, 0.75605508, 0.12061321], "xyz": [3.57477055915008, 11.62036395683856, 5.81498695344418], "label": "Li", "properties": {}}, {"species": [{"element": "Li", "occu": 1}], "abc": [0.93615238, 0.38567428, 0.04827289], "xyz": [5.8602680273333805, 5.92771032289296, 2.32732571792962], "label": "Li", "properties": {}}, {"species": [{"element": "Li", "occu": 1}], "abc": [0.06004119, 0.24735409, 0.12027652], "xyz": [0.37585490738169003, 3.80176607240388, 5.79875450297416], "label": "Li", "properties": {}}, {"species": [{"element": "Li", "occu": 1}], "abc": [0.92477313, 0.85056432, 0.15519664], "xyz": [5.78903447991663, 13.072945647162241, 7.482318369757119], "label": "Li", "properties": {}}, {"species": [{"element": "Li", "occu": 1}], "abc": [0.12035127, 0.34773657, 0.24349439], "xyz": [0.7533930529877699, 5.344617887499241, 11.739316954476621], "label": "Li", "properties": {}}, {"species": [{"element": "Li", "occu": 1}], "abc": [0.38971057, 0.99069114, 0.17048555], "xyz": [2.4395690723820698, 15.226657316574482, 8.2194251276519], "label": "Li", "properties": {}}, {"species": [{"element": "Li", "occu": 1}], "abc": [0.58887413, 0.20997525, 0.22856478], "xyz": [3.68632319896763, 3.2272633191330002, 11.01953271716124], "label": "Li", "properties": {}}, {"species": [{"element": "Li", "occu": 1}], "abc": [0.62428379, 0.36528079, 0.1461236], "xyz": [3.90798593549429, 5.61426784704828, 7.044890253648799], "label": "Li", "properties": {}}, {"species": [{"element": "Li", "occu": 1}], "abc": [0.38849175, 0.83190827, 0.25186336], "xyz": [2.43193931890425, 12.786207158483641, 12.14280054772288], "label": "Li", "properties": {}}, {"species": [{"element": "Li", "occu": 1}], "abc": [0.08741493, 0.46201717, 0.18131893000000002], "xyz": [0.54721317846843, 7.10108008229844, 8.741722505871941], "label": "Li", "properties": {}}, {"species": [{"element": "Li", "occu": 1}], "abc": [0.87930901, 0.72560182, 0.21848710000000002], "xyz": [5.5044313164585095, 11.15230551211224, 10.533669040031802], "label": "Li", "properties": {}}, {"species": [{"element": "Li", "occu": 1}], "abc": [0.55095312, 0.47331276, 0.26663437], "xyz": [3.4489395344971197, 7.274690273380321, 12.85493838435946], "label": "Li", "properties": {}}, {"species": [{"element": "Li", "occu": 1}], "abc": [0.94952756, 0.11281755, 0.19447012], "xyz": [5.9439959987495605, 1.7339755083966002, 9.37576581068296], "label": "Li", "properties": {}}, {"species": [{"element": "Li", "occu": 1}], "abc": [0.97072101, 0.95728744, 0.27426483], "xyz": [6.07666595727051, 14.713251399766081, 13.22281703835414], "label": "Li", "properties": {}}, {"species": [{"element": "Li", "occu": 1}], "abc": [0.44045105, 0.60571017, 0.19247349], "xyz": [2.75720199089855, 9.309602982574441, 9.27950456864442], "label": "Li", "properties": {}}, {"species": [{"element": "Li", "occu": 1}], "abc": [0.90875831, 0.57065192, 0.30021842], "xyz": [5.68878249144281, 8.77076707568544, 14.47408783402436], "label": "Li", "properties": {}}, {"species": [{"element": "Li", "occu": 1}], "abc": [0.07771009, 0.06879386, 0.38676520000000003], "xyz": [0.48646135560558995, 1.05734319144552, 18.646668901741602], "label": "Li", "properties": {}}, {"species": [{"element": "Li", "occu": 1}], "abc": [0.41639591, 0.70937509, 0.31268334000000003], "xyz": [2.60661799320041, 10.902905020775881, 15.075044787045721], "label": "Li", "properties": {}}, {"species": [{"element": "Li", "occu": 1}], "abc": [0.61585966, 0.92898465, 0.37038313], "xyz": [3.8552512944766604, 14.2782451026138, 17.85685886915554], "label": "Li", "properties": {}}, {"species": [{"element": "Li", "occu": 1}], "abc": [0.59662568, 0.090004, 0.28922146], "xyz": [3.7348475221416804, 1.383337358928, 13.94390396007268], "label": "Li", "properties": {}}, {"species": [{"element": "Li", "occu": 1}], "abc": [0.37651759, 0.55558994, 0.39587774000000003], "xyz": [2.35698166403809, 8.53926847969608, 19.08600138624092], "label": "Li", "properties": {}}, {"species": [{"element": "Li", "occu": 1}], "abc": [0.10682552, 0.19254994, 0.32380951], "xyz": [0.66872252074952, 2.95944097441608, 15.611458115169581], "label": "Li", "properties": {}}, {"species": [{"element": "Li", "occu": 1}], "abc": [0.90410543, 0.45548061, 0.36026676], "xyz": [5.65965569063393, 7.00061490689652, 17.36912987524008], "label": "Li", "properties": {}}, {"species": [{"element": "Li", "occu": 1}], "abc": [0.43013289, 0.16538535, 0.41976629], "xyz": [2.69261081488839, 2.5419285062262, 20.23771276666682], "label": "Li", "properties": {}}, {"species": [{"element": "Li", "occu": 1}], "abc": [0.06062842, 0.80450725, 0.34801931], "xyz": [0.37953093840742, 12.365060824557, 16.778657554977983], "label": "Li", "properties": {}}, {"species": [{"element": "Li", "occu": 1}], "abc": [0.94013362, 0.67187334, 0.4218659], "xyz": [5.88519039465262, 10.32651317374488, 20.338938865842202], "label": "Li", "properties": {}}, {"species": [{"element": "Li", "occu": 1}], "abc": [0.5324854, 0.31771638, 0.34615492000000003], "xyz": [3.3333325122154, 4.883215612610161, 16.688771849041363], "label": "Li", "properties": {}}, {"species": [{"element": "Li", "occu": 1}], "abc": [0.86530759, 0.28249378, 0.43684253], "xyz": [5.41678311332809, 4.34185369026696, 21.06099002472074], "label": "Li", "properties": {}}, {"species": [{"element": "Li", "occu": 1}], "abc": [0.42465066, 0.42715992, 0.45825838], "xyz": [2.65829232371766, 6.565333491541441, 22.09348794387004], "label": "Li", "properties": {}}, {"species": [{"element": "Li", "occu": 1}], "abc": [0.59934911, 0.63593791, 0.51075578], "xyz": [3.75189606049361, 9.77419524534012, 24.62448513803924], "label": "Li", "properties": {}}, {"species": [{"element": "Li", "occu": 1}], "abc": [0.6064585, 0.81775067, 0.43484022], "xyz": [3.7964004935335, 12.568608640720441, 20.96445493932876], "label": "Li", "properties": {}}, {"species": [{"element": "Li", "occu": 1}], "abc": [0.37565355, 0.30219531, 0.54144266], "xyz": [2.35157281597605, 4.64466092635692, 26.10395663906228], "label": "Li", "properties": {}}, {"species": [{"element": "Li", "occu": 1}], "abc": [0.10358378, 0.90600702, 0.4601921], "xyz": [0.64842938719478, 13.92508508751864, 22.1867161779218], "label": "Li", "properties": {}}, {"species": [{"element": "Li", "occu": 1}], "abc": [0.8435089, 0.24956283, 0.49416672], "xyz": [5.2803243820639, 3.8357138142615606, 23.82469573296576], "label": "Li", "properties": {}}, {"species": [{"element": "Li", "occu": 1}], "abc": [0.06694748, 0.53342679, 0.49341323], "xyz": [0.41908794437348, 8.19862680392028, 23.78836858008134], "label": "Li", "properties": {}}, {"species": [{"element": "P", "occu": 1}], "abc": [0.17307503, 0.87239784, 0.10092853], "xyz": [1.08344120712353, 13.408520998178881, 4.86595195650874], "label": "P", "properties": {}}, {"species": [{"element": "P", "occu": 1}], "abc": [0.65348673, 0.24388697, 0.07904520000000001], "xyz": [4.0907949089502305, 3.74847736719204, 3.8109159579816003], "label": "P", "properties": {}}, {"species": [{"element": "P", "occu": 1}], "abc": [0.32607737, 0.50574763, 0.026748130000000002], "xyz": [2.04122835840887, 7.773205532735161, 1.2895770453255402], "label": "P", "properties": {}}, {"species": [{"element": "P", "occu": 1}], "abc": [0.15872542, 0.59361919, 0.24788874], "xyz": [0.99361335165442, 9.12376786035708, 11.95117673267892], "label": "P", "properties": {}}, {"species": [{"element": "P", "occu": 1}], "abc": [0.84303354, 0.60231886, 0.15096382], "xyz": [5.27734865175654, 9.257479456745521, 7.27824625297756], "label": "P", "properties": {}}, {"species": [{"element": "P", "occu": 1}], "abc": [0.65419456, 0.96309734, 0.22144408000000002], "xyz": [4.09522589006656, 14.80254800571288, 10.67623053990064], "label": "P", "properties": {}}, {"species": [{"element": "P", "occu": 1}], "abc": [0.3436975, 0.23344948, 0.17559105], "xyz": [2.1515295088225, 3.58805594313936, 8.465570768670899], "label": "P", "properties": {}}, {"species": [{"element": "P", "occu": 1}], "abc": [0.1520789, 0.31854014, 0.39088428000000003], "xyz": [0.9520064621338999, 4.89587658304248, 18.845257401792242], "label": "P", "properties": {}}, {"species": [{"element": "P", "occu": 1}], "abc": [0.84548818, 0.32472401, 0.29373653], "xyz": [5.29271457787918, 4.99092100766532, 14.16158387377274], "label": "P", "properties": {}}, {"species": [{"element": "P", "occu": 1}], "abc": [0.66020869, 0.68633657, 0.36602996], "xyz": [4.13287404917419, 10.548809142699241, 17.64698445526568], "label": "P", "properties": {}}, {"species": [{"element": "P", "occu": 1}], "abc": [0.3425938, 0.95597338, 0.31978135], "xyz": [2.1446204009038, 14.69305464973416, 15.417253037248301], "label": "P", "properties": {}}, {"species": [{"element": "P", "occu": 1}], "abc": [0.82492292, 0.04758789, 0.44021883], "xyz": [5.16397705797692, 0.7314131157454801, 21.22376772088614], "label": "P", "properties": {}}, {"species": [{"element": "P", "occu": 1}], "abc": [0.67490341, 0.41330448, 0.5148254699999999], "xyz": [4.22486227633291, 6.35237909199936, 24.820692454423256], "label": "P", "properties": {}}, {"species": [{"element": "P", "occu": 1}], "abc": [0.3469701, 0.67607174, 0.46291083], "xyz": [2.1720158244651, 10.391041456573682, 22.31779120262214], "label": "P", "properties": {}}, {"species": [{"element": "S", "occu": 1}], "abc": [0.26417084, 0.97872416, 0.07831616000000001], "xyz": [1.6536965140288402, 15.04272804112512, 3.7757675850252803], "label": "S", "properties": {}}, {"species": [{"element": "S", "occu": 1}], "abc": [0.77008539, 0.14454967, 0.10332223], "xyz": [4.82069680721589, 2.22168968858844, 4.98135668100334], "label": "S", "properties": {}}, {"species": [{"element": "S", "occu": 1}], "abc": [0.25140743, 0.61506233, 0.0028270300000000003], "xyz": [1.57379819283593, 9.45334317539556, 0.13629636892174002], "label": "S", "properties": {}}, {"species": [{"element": "S", "occu": 1}], "abc": [0.18847755, 0.5188185, 0.06570177], "xyz": [1.17986022760005, 7.9741013016419995, 3.1676044055886603], "label": "S", "properties": {}}, {"species": [{"element": "S", "occu": 1}], "abc": [0.76528518, 0.24322004, 0.0392352], "xyz": [4.7906477278261805, 3.73822683182928, 1.8916018910016], "label": "S", "properties": {}}, {"species": [{"element": "S", "occu": 1}], "abc": [0.74673182, 0.61367795, 0.10993006000000001], "xyz": [4.674504603340821, 9.4320656258094, 5.29993244265148], "label": "S", "properties": {}}, {"species": [{"element": "S", "occu": 1}], "abc": [0.29555987, 0.76106861, 0.08169405], "xyz": [1.85019030376637, 11.697420569312522, 3.9386219380449004], "label": "S", "properties": {}}, {"species": [{"element": "S", "occu": 1}], "abc": [0.20760909, 0.39746712, 0.00856484], "xyz": [1.29962273055459, 6.10896311321184, 0.41292684987272005], "label": "S", "properties": {}}, {"species": [{"element": "S", "occu": 1}], "abc": [0.76704783, 0.35749741, 0.09779219], "xyz": [4.80168183045633, 5.49463938239412, 4.71474317778902], "label": "S", "properties": {}}, {"species": [{"element": "S", "occu": 1}], "abc": [0.84555619, 0.87501868, 0.10399663], "xyz": [5.29314031714669, 13.44880260659376, 5.01387075803854], "label": "S", "properties": {}}, {"species": [{"element": "S", "occu": 1}], "abc": [0.32555343, 0.23509501, 0.07748997], "xyz": [2.03794851968193, 3.6133472982373203, 3.73593543006426], "label": "S", "properties": {}}, {"species": [{"element": "S", "occu": 1}], "abc": [0.65524949, 0.50737244, 0.03196846], "xyz": [4.10182970017499, 7.798178426986081, 1.5412588539986798], "label": "S", "properties": {}}, {"species": [{"element": "S", "occu": 1}], "abc": [0.2639558, 0.70119346, 0.22636864], "xyz": [1.6523503741658, 10.777155560352721, 10.91365272733312], "label": "S", "properties": {}}, {"species": [{"element": "S", "occu": 1}], "abc": [0.70947483, 0.50014262, 0.17184687], "xyz": [4.44127767153333, 7.68705803117784, 8.28505689418446], "label": "S", "properties": {}}, {"species": [{"element": "S", "occu": 1}], "abc": [0.77259213, 0.85816854, 0.24322256], "xyz": [4.83638887678563, 13.18982047063128, 11.72621152511648], "label": "S", "properties": {}}, {"species": [{"element": "S", "occu": 1}], "abc": [0.23898758, 0.34171193, 0.15411113], "xyz": [1.49605054040858, 5.2520207853027605, 7.42998391577954], "label": "S", "properties": {}}, {"species": [{"element": "S", "occu": 1}], "abc": [0.21242235, 0.21999924, 0.21435715], "xyz": [1.3297535023048501, 3.3813293590036806, 10.3345564770847], "label": "S", "properties": {}}, {"species": [{"element": "S", "occu": 1}], "abc": [0.77372946, 0.97522273, 0.18162641000000002], "xyz": [4.84350850685646, 14.988912000408362, 8.75654668796978], "label": "S", "properties": {}}, {"species": [{"element": "S", "occu": 1}], "abc": [0.73322386, 0.3368938, 0.2536886], "xyz": [4.5899454356308595, 5.1779674184616, 12.2307987594188], "label": "S", "properties": {}}, {"species": [{"element": "S", "occu": 1}], "abc": [0.30149827, 0.86435743, 0.14019387], "xyz": [1.8873643967847702, 13.28494205130876, 6.75900695291046], "label": "S", "properties": {}}, {"species": [{"element": "S", "occu": 1}], "abc": [0.73163984, 0.71423961, 0.17029117000000002], "xyz": [4.580029548047841, 10.97767138948452, 8.210053706693861], "label": "S", "properties": {}}, {"species": [{"element": "S", "occu": 1}], "abc": [0.27350977, 0.48662042, 0.2257829], "xyz": [1.71215775822127, 7.479225441127441, 10.8854131136282], "label": "S", "properties": {}}, {"species": [{"element": "S", "occu": 1}], "abc": [0.22862747, 0.12709833, 0.15316255], "xyz": [1.43119675945397, 1.9534672697475604, 7.384251111517901], "label": "S", "properties": {}}, {"species": [{"element": "S", "occu": 1}], "abc": [0.76770367, 0.07223722, 0.24272778], "xyz": [4.805787356720169, 1.1102667118250402, 11.70235726201524], "label": "S", "properties": {}}, {"species": [{"element": "S", "occu": 1}], "abc": [0.83303603, 0.60130904, 0.25078716], "xyz": [5.21476472903453, 9.24195879397728, 12.09091494614328], "label": "S", "properties": {}}, {"species": [{"element": "S", "occu": 1}], "abc": [0.16922456, 0.58860696, 0.15079647000000002], "xyz": [1.05933745359656, 9.046731228534721, 7.270177998541261], "label": "S", "properties": {}}, {"species": [{"element": "S", "occu": 1}], "abc": [0.33086568, 0.95411732, 0.21944903000000002], "xyz": [2.07120294438168, 14.664527504958242, 10.58004547259774], "label": "S", "properties": {}}, {"species": [{"element": "S", "occu": 1}], "abc": [0.66857845, 0.24215118, 0.17887348], "xyz": [4.18526833665595, 3.72179874008376, 8.62382281772584], "label": "S", "properties": {}}, {"species": [{"element": "S", "occu": 1}], "abc": [0.2835707, 0.42162028, 0.37009754], "xyz": [1.7751386870357, 6.480190709364961, 17.84309004462932], "label": "S", "properties": {}}, {"species": [{"element": "S", "occu": 1}], "abc": [0.72423371, 0.21902139, 0.31485113], "xyz": [4.53366753714821, 3.3663000665674803, 15.17955797069954], "label": "S", "properties": {}}, {"species": [{"element": "S", "occu": 1}], "abc": [0.76316103, 0.57815277, 0.38758609], "xyz": [4.77735065290953, 8.88605312995764, 18.68624553385522], "label": "S", "properties": {}}, {"species": [{"element": "S", "occu": 1}], "abc": [0.2169167, 0.05980384, 0.29845140000000003], "xyz": [1.3578879130816999, 0.91916899337088, 14.388896516701202], "label": "S", "properties": {}}, {"species": [{"element": "S", "occu": 1}], "abc": [0.23178819, 0.94399252, 0.35999965], "xyz": [1.45098271177869, 14.50891204240464, 17.3562520058497], "label": "S", "properties": {}}, {"species": [{"element": "S", "occu": 1}], "abc": [0.79282085, 0.69950467, 0.32730465000000003], "xyz": [4.96301967277835, 10.751199310648442, 15.779965308539701], "label": "S", "properties": {}}, {"species": [{"element": "S", "occu": 1}], "abc": [0.69963326, 0.055546, 0.40076757], "xyz": [4.37966992557026, 0.853727133672, 19.32174917584506], "label": "S", "properties": {}}, {"species": [{"element": "S", "occu": 1}], "abc": [0.28731715, 0.58081455, 0.28688221], "xyz": [1.7985912804596502, 8.926963975200602, 13.831124371246181], "label": "S", "properties": {}}, {"species": [{"element": "S", "occu": 1}], "abc": [0.72840124, 0.43389837, 0.31478414], "xyz": [4.5597560707392395, 6.66890166213684, 15.17632825833212], "label": "S", "properties": {}}, {"species": [{"element": "S", "occu": 1}], "abc": [0.26522461, 0.20680918, 0.37140756], "xyz": [1.6602930625941101, 3.1786016717397603, 17.90624854284648], "label": "S", "properties": {}}, {"species": [{"element": "S", "occu": 1}], "abc": [0.22912969, 0.84581022, 0.29912011], "xyz": [1.43434063204519, 12.99987640426104, 14.42113626826438], "label": "S", "properties": {}}, {"species": [{"element": "S", "occu": 1}], "abc": [0.77352824, 0.79284999, 0.3884459], "xyz": [4.84224887951624, 12.18589186250268, 18.7276985714822], "label": "S", "properties": {}}, {"species": [{"element": "S", "occu": 1}], "abc": [0.82596579, 0.33011925, 0.39057476], "xyz": [5.17050537307629, 5.073844400541, 18.83033486750408], "label": "S", "properties": {}}, {"species": [{"element": "S", "occu": 1}], "abc": [0.16936973, 0.31656566, 0.29290072], "xyz": [1.06024621068323, 4.865529354603121, 14.12128792073776], "label": "S", "properties": {}}, {"species": [{"element": "S", "occu": 1}], "abc": [0.33515139, 0.67750114, 0.3624353], "xyz": [2.09803127898189, 10.41301095149448, 17.4736792177874], "label": "S", "properties": {}}, {"species": [{"element": "S", "occu": 1}], "abc": [0.66753115, 0.96651025, 0.3209977], "xyz": [4.1787122899736495, 14.855003517753001, 15.4758955307266], "label": "S", "properties": {}}, {"species": [{"element": "S", "occu": 1}], "abc": [0.73145546, 0.94146216, 0.46282005], "xyz": [4.57887533828246, 14.470021087341122, 22.313414530152897], "label": "S", "properties": {}}, {"species": [{"element": "S", "occu": 1}], "abc": [0.74876263, 0.30346385, 0.5385521799999999], "xyz": [4.68721737443113, 4.6641580461881995, 25.964601227750435], "label": "S", "properties": {}}, {"species": [{"element": "S", "occu": 1}], "abc": [0.2293324, 0.77480678, 0.43846343], "xyz": [1.4356095867124, 11.90857256038296, 21.13913662535294], "label": "S", "properties": {}}, {"species": [{"element": "S", "occu": 1}], "abc": [0.23602444, 0.67693358, 0.50273191], "xyz": [1.47750142920244, 10.404287706400561, 24.237639456988777], "label": "S", "properties": {}}, {"species": [{"element": "S", "occu": 1}], "abc": [0.81205563, 0.40082972, 0.47585532], "xyz": [5.08342845307413, 6.16064537403504, 22.94186911638456], "label": "S", "properties": {}}, {"species": [{"element": "S", "occu": 1}], "abc": [0.2501022, 0.3067417, 0.43182392], "xyz": [1.5656275169922, 4.7145377222244, 20.81903351204336], "label": "S", "properties": {}}, {"species": [{"element": "S", "occu": 1}], "abc": [0.70141917, 0.15893941, 0.45931158], "xyz": [4.39084963466067, 2.4428561359381202, 22.14426467271564], "label": "S", "properties": {}}, {"species": [{"element": "S", "occu": 1}], "abc": [0.23334802, 0.56244226, 0.44416244], "xyz": [1.46074717114702, 8.64458680167432, 21.41389648621352], "label": "S", "properties": {}}, {"species": [{"element": "S", "occu": 1}], "abc": [0.79436736, 0.52130569, 0.53310381], "xyz": [4.97270074959936, 8.01232874537508, 25.70192518697898], "label": "S", "properties": {}}, {"species": [{"element": "S", "occu": 1}], "abc": [0.15272734, 0.04491795, 0.4376586], "xyz": [0.9560656647603399, 0.6903768534894, 21.1003342756788], "label": "S", "properties": {}}, {"species": [{"element": "S", "occu": 1}], "abc": [0.34560428, 0.41183402, 0.5097033099999999], "xyz": [2.16346585819028, 6.329778515882641, 24.573743603849977], "label": "S", "properties": {}}, {"species": [{"element": "S", "occu": 1}], "abc": [0.67493551, 0.6850346, 0.46438988000000003], "xyz": [4.22506322076001, 10.528798212727201, 22.38909895119704], "label": "S", "properties": {}}]}, "formula": "(Li3PS4)14.0", "bandgap": 2.6695, "slab_thickness": 26.099135453262278}