{"miller": "012_0.09", "final_energy": -699.90628668, "gamma": 0.014199014711019866, "work_function": "Not calculated", "ionization_potentail": "Not calculated", "electron_affinity": "Not calculated", "is_stochiometric": true, "incar_parameters": {"SYSTEM": "unknown system", "LCOMPAT": false, "PREC": "normal", "ENMAX": 520.0, "ENAUG": 628.945, "EDIFF": 1e-05, "IALGO": 38, "IWAVPR": 11, "NBANDS": 462, "NBANDSLOW": -1, "NBANDSHIGH": -1, "NELECT": 760.0, "TURBO": 0, "IRESTART": 0, "NREBOOT": 0, "NMIN": 0, "EREF": 0.0, "ISMEAR": 0, "SIGMA": 0.05, "KSPACING": 0.5, "KGAMMA": true, "KBLOWUP": true, "LREAL": true, "ROPT": [-0.0005, -0.0005, -0.0005], "LMAXPAW": -100, "LMAXMIX": 2, "NLSPLINE": false, "ISTART": 0, "ICHARG": 2, "INIWAV": 1, "ISPIN": 1, "LNONCOLLINEAR": false, "MAGMOM": [0.6, 0.6, 0.6, 0.6, 0.6, 0.6, 0.6, 0.6, 0.6, 0.6, 0.6, 0.6, 0.6, 0.6, 0.6, 0.6, 0.6, 0.6, 0.6, 0.6, 0.6, 0.6, 0.6, 0.6, 0.6, 0.6, 0.6, 0.6, 0.6, 0.6, 0.6, 0.6, 0.6, 0.6, 0.6, 0.6, 0.6, 0.6, 0.6, 0.6, 0.6, 0.6, 0.6, 0.6, 0.6, 0.6, 0.6, 0.6, 0.6, 0.6, 0.6, 0.6, 0.6, 0.6, 0.6, 0.6, 0.6, 0.6, 0.6, 0.6, 0.6, 0.6, 0.6, 0.6, 0.6, 0.6, 0.6, 0.6, 0.6, 0.6, 0.6, 0.6, 0.6, 0.6, 0.6, 0.6, 0.6, 0.6, 0.6, 0.6, 0.6, 0.6, 0.6, 0.6, 0.6, 0.6, 0.6, 0.6, 0.6, 0.6, 0.6, 0.6, 0.6, 0.6, 0.6, 0.6, 0.6, 0.6, 0.6, 0.6, 0.6, 0.6, 0.6, 0.6, 0.6, 0.6, 0.6, 0.6, 0.6, 0.6, 0.6, 0.6, 0.6, 0.6, 0.6, 0.6, 0.6, 0.6, 0.6, 0.6, 0.6, 0.6, 0.6, 0.6, 0.6, 0.6, 0.6, 0.6, 0.6, 0.6, 0.6, 0.6, 0.6, 0.6, 0.6, 0.6, 0.6, 0.6, 0.6, 0.6, 0.6, 0.6, 0.6, 0.6, 0.6, 0.6, 0.6, 0.6, 0.6, 0.6, 0.6, 0.6, 0.6, 0.6, 0.6, 0.6, 0.6, 0.6, 0.6, 0.6], "NUPDOWN": -1.0, "LSORBIT": false, "SAXIS": [0.0, 0.0, 1.0], "LSPIRAL": false, "QSPIRAL": [0.0, 0.0, 0.0], "LZEROZ": false, "LASPH": false, "LMETAGGA": false, "NELM": 100, "NELMDL": -5, "NELMIN": 6, "ENINI": 520.0, "LDIAG": true, "LSUBROT": false, "WEIMIN": 0.001, "EBREAK": 1e-08, "DEPER": 0.3, "NRMM": 4, "TIME": 0.4, "AMIX": 0.4, "BMIX": 1.0, "AMIN": 0.1, "AMIX_MAG": 1.6, "BMIX_MAG": 1.0, "IMIX": 4, "MIXFIRST": false, "MAXMIX": -45, "WC": 100.0, "INIMIX": 1, "MIXPRE": 1, "MREMOVE": 5, "LDIPOL": false, "LMONO": false, "IDIPOL": 0, "EPSILON": 1.0, "DIPOL": [-100.0, -100.0, -100.0], "EFIELD": 0.0, "NGX": 36, "NGY": 120, "NGZ": 288, "NGXF": 72, "NGYF": 240, "NGZF": 576, "ADDGRID": false, "NSW": 150, "IBRION": 2, "MDALGO": 0, "ISIF": 2, "PSTRESS": 0.0, "EDIFFG": -0.01, "NFREE": 1, "POTIM": 0.5, "SMASS": -3.0, "SCALEE": 1.0, "TEBEG": 0.0001, "TEEND": 0.0001, "NBLOCK": 1, "KBLOCK": 150, "NPACO": 256, "APACO": 10.0, "ISYM": 0, "SYMPREC": 1e-05, "LORBIT": 11, "RWIGS": [-1.0, -1.0, -1.0], "NEDOS": 301, "EMIN": 10.0, "EMAX": -10.0, "EFERMI": 0.0, "NWRITE": 2, "LWAVE": false, "LDOWNSAMPLE": false, "LCHARG": false, "LPARD": false, "LVTOT": false, "LVHAR": false, "LELF": false, "LOPTICS": false, "STM": [0.0, 0.0, 0.0, 0.0, 0.0, 0.0, 0.0], "NPAR": 2, "NSIM": 4, "NBLK": -1, "LPLANE": true, "LSCALAPACK": true, "LSCAAWARE": false, "LSCALU": false, "LASYNC": false, "LORBITALREAL": false, "IDIOT": 3, "PHON_NSTRUCT": -1, "LMUSIC": false, "POMASS": [7.01, 30.974, 32.066], "DARWINR": [0.0, 0.0, 0.0], "DARWINV": [1.0, 1.0, 1.0], "LCORR": true, "GGA_COMPAT": true, "LBERRY": false, "ICORELEVEL": 0, "LDAU": false, "I_CONSTRAINED_M": 0, "GGA": "--", "VOSKOWN": 0, "LHFCALC": false, "PRECFOCK": "", "LSYMGRAD": false, "LHFONE": false, "LRHFCALC": false, "LTHOMAS": false, "LMODELHF": false, "LFOCKACE": false, "ENCUT4O": -1.0, "EXXOEP": 0, "FOURORBIT": 0, "AEXX": 0.0, "HFALPHA": 0.0, "MCALPHA": 0.0, "ALDAX": 1.0, "AGGAX": 1.0, "ALDAC": 1.0, "AGGAC": 1.0, "NKREDX": 1, "NKREDY": 1, "NKREDZ": 1, "SHIFTRED": false, "ODDONLY": false, "EVENONLY": false, "LMAXFOCK": 0, "NMAXFOCKAE": 0, "LFOCKAEDFT": false, "HFSCREEN": 0.0, "HFSCREENC": 0.0, "NBANDSGWLOW": 0, "LUSE_VDW": false, "Zab_VDW": -0.8491, "PARAM1": 0.1234, "PARAM2": 1.0, "PARAM3": 0.0, "MODEL_GW": 0, "MODEL_EPS0": 24.84988316, "MODEL_ALPHA": 1.0, "LEPSILON": false, "LRPA": false, "LNABLA": false, "LVEL": false, "CSHIFT": 0.1, "OMEGAMAX": -1.0, "DEG_THRESHOLD": 0.002, "RTIME": -0.1, "WPLASMAI": 0.0, "DFIELD": [0.0, 0.0, 0.0], "WPLASMA": [0.0, 0.0, 0.0, 0.0, 0.0, 0.0, 0.0, 0.0, 0.0], "NUCIND": false, "MAGPOS": [0.0, 0.0, 0.0], "LNICSALL": true, "ORBITALMAG": false, "LMAGBLOCH": false, "LCHIMAG": false, "LGAUGE": true, "MAGATOM": 0, "MAGDIPOL": [0.0, 0.0, 0.0], "AVECCONST": [0.0, 0.0, 0.0], "LFINITE_TEMPERATURE": false, "LADDER": false, "LRPAFORCE": false, "LFXC": false, "LHARTREE": true, "IBSE": 0, "KPOINT": [-1, 0, 0, 0], "LTCTC": false, "LTCTE": false, "LTETE": false, "LTRIPLET": false, "LFXCEPS": false, "LFXHEG": false, "NATURALO": 2, "LHOLEGF": false, "L2ORDER": false, "LDMP1": false, "LMP2LT": false, "LSMP2LT": false, "LGWLF": false, "ENCUTGW": -2.0, "ENCUTGWSOFT": -2.0, "ENCUTLF": -1.0, "LESF_SPLINES": false, "LMAXMP2": -1, "SCISSOR": 0.0, "NOMEGA": 0, "NOMEGAR": 0, "NBANDSGW": -1, "NBANDSO": -1, "NBANDSV": -1, "NELMGW": 1, "NELMHF": 1, "DIM": 3, "IESPILON": 4, "ANTIRES": 0, "OMEGAMIN": -30.0, "OMEGATL": -200.0, "OMEGAGRID": 0, "LSELFENERGY": false, "LSPECTRAL": false, "LSPECTRALGW": false, "LSINGLES": false, "LFERMIGW": false, "ODDONLYGW": false, "EVENONLYGW": false, "NKREDLFX": 1, "NKREDLFY": 1, "NKREDLFZ": 1, "MAXMEM": 2800, "TELESCOPE": 0, "NTAUPAR": -1, "NOMEGAPAR": -1, "DAMP_NEWTON": 0.80000001, "LAMBDA": 1.0, "OFIELD_KAPPA": 0.0, "OFIELD_K": [0.0, 0.0, 0.0], "OFIELD_Q6_NEAR": 0.0, "OFIELD_Q6_FAR": 0.0, "OFIELD_A": 0.0, "KPOINTS_OPT_MODE": 1, "LKPOINTS_OPT": false, "@module": "pymatgen.io.vasp.inputs", "@class": "Incar"}, "relaxed_structures": {"@module": "pymatgen.core.structure", "@class": "Structure", "charge": 0, "lattice": {"matrix": [[6.259951, 0.0, 0.0], [0.0, 20.817994, 0.0], [0.0, 0.0, 50.8491]], "a": 6.259951, "b": 20.817994, "c": 50.8491, "alpha": 90.0, "beta": 90.0, "gamma": 90.0, "volume": 6626.6355092591275}, "sites": [{"species": [{"element": "Li", "occu": 1}], "abc": [0.88070276, 0.72034904, 0.07649097], "xyz": [5.513156123164761, 14.99622199262576, 3.889496982627], "label": "Li", "properties": {}}, {"species": [{"element": "Li", "occu": 1}], "abc": [0.07504643, 0.30297659, 0.10150195000000001], "xyz": [0.46978697452493, 6.3073648327604594, 5.161282805745], "label": "Li", "properties": {}}, {"species": [{"element": "Li", "occu": 1}], "abc": [0.06414193, 0.61404056, 0.00763896], "xyz": [0.40152533884543, 12.783092693836638, 0.388434240936], "label": "Li", "properties": {}}, {"species": [{"element": "Li", "occu": 1}], "abc": [0.40869298, 0.12240481, 0.011212070000000005], "xyz": [2.55839802884398, 2.54822260015114, 0.5701236686370003], "label": "Li", "properties": {}}, {"species": [{"element": "Li", "occu": 1}], "abc": [0.37485027, 0.80130277, 0.10647649000000001], "xyz": [2.34654432253677, 16.68151625804338, 5.414233687659], "label": "Li", "properties": {}}, {"species": [{"element": "Li", "occu": 1}], "abc": [0.56929772, 0.2209225, 0.07637797], "xyz": [3.56377583161172, 4.5991632794649995, 3.883751034327], "label": "Li", "properties": {}}, {"species": [{"element": "Li", "occu": 1}], "abc": [0.61967364, 0.38671297, 0.025427210000000006], "xyz": [3.8791266223916403, 8.05058828918218, 1.2929507440110002], "label": "Li", "properties": {}}, {"species": [{"element": "Li", "occu": 1}], "abc": [0.62511662, 0.0838429, 0.12080357], "xyz": [3.9131994104856203, 1.7454409891426, 6.142752811287], "label": "Li", "properties": {}}, {"species": [{"element": "Li", "occu": 1}], "abc": [0.42257039, 0.93334598, 0.06248909], "xyz": [2.64526993545089, 19.43039101156412, 3.177513986319], "label": "Li", "properties": {}}, {"species": [{"element": "Li", "occu": 1}], "abc": [0.13862081, 0.43356695, 0.058904410000000004], "xyz": [0.8677594781803101, 9.0259941636983, 2.995236234531], "label": "Li", "properties": {}}, {"species": [{"element": "Li", "occu": 1}], "abc": [0.92088328, 0.58913362, 0.12208344000000002], "xyz": [5.76468420951928, 12.26458016635828, 6.207833048904001], "label": "Li", "properties": {}}, {"species": [{"element": "Li", "occu": 1}], "abc": [0.96735179, 0.90517803, 0.028413030000000006], "xyz": [6.055574805162291, 18.843990797471818, 1.4447770037730003], "label": "Li", "properties": {}}, {"species": [{"element": "Li", "occu": 1}], "abc": [0.43023114, 0.34048349, 0.14395688], "xyz": [2.69322585507414, 7.08818325191906, 7.3200777868080005], "label": "Li", "properties": {}}, {"species": [{"element": "Li", "occu": 1}], "abc": [0.43930388, 0.63667954, 0.047819150000000005], "xyz": [2.75002076290988, 13.25439084364276, 2.431560740265], "label": "Li", "properties": {}}, {"species": [{"element": "Li", "occu": 1}], "abc": [0.9344602, 0.18490311, 0.03201044], "xyz": [5.8496750634502, 3.84931183456134, 1.6277020646040001], "label": "Li", "properties": {}}, {"species": [{"element": "Li", "occu": 1}], "abc": [0.93403984, 0.87658619, 0.13784180000000001], "xyz": [5.84704363044784, 18.248766043902858, 7.009131472380001], "label": "Li", "properties": {}}, {"species": [{"element": "Li", "occu": 1}], "abc": [0.07110087, 0.03328834, 0.08433142], "xyz": [0.44508796225736996, 0.6929964623899599, 4.2881768087220005], "label": "Li", "properties": {}}, {"species": [{"element": "Li", "occu": 1}], "abc": [0.56861223, 0.49509227, 0.09918614], "xyz": [3.5594846978007304, 10.30682790630638, 5.043525951474001], "label": "Li", "properties": {}}, {"species": [{"element": "Li", "occu": 1}], "abc": [0.56828666, 0.77917657, 0.004370070000000004], "xyz": [3.5574466455536604, 16.22089315920058, 0.2222141264370002], "label": "Li", "properties": {}}, {"species": [{"element": "Li", "occu": 1}], "abc": [0.89424163, 0.11176381, 0.27927674999999996], "xyz": [5.59790878596013, 2.32669832599714, 14.200971388424998], "label": "Li", "properties": {}}, {"species": [{"element": "Li", "occu": 1}], "abc": [0.87781725, 0.41374111, 0.17746361], "xyz": [5.49509297195475, 8.61325994553334, 9.023864851251], "label": "Li", "properties": {}}, {"species": [{"element": "Li", "occu": 1}], "abc": [0.12246954, 0.69656732, 0.30671475000000004], "xyz": [0.76665331939254, 14.501134288356079, 15.596168994225001], "label": "Li", "properties": {}}, {"species": [{"element": "Li", "occu": 1}], "abc": [0.1078831, 0.99904176, 0.20481062], "xyz": [0.6753429197281, 20.798045365429438, 10.414435697442], "label": "Li", "properties": {}}, {"species": [{"element": "Li", "occu": 1}], "abc": [0.39020926, 0.49826005, 0.20536199], "xyz": [2.44269084734626, 10.3727747313397, 10.442472365709], "label": "Li", "properties": {}}, {"species": [{"element": "Li", "occu": 1}], "abc": [0.41285475, 0.19724608, 0.3043745], "xyz": [2.58445050511725, 4.10626770996352, 15.47716938795], "label": "Li", "properties": {}}, {"species": [{"element": "Li", "occu": 1}], "abc": [0.58671643, 0.9128138, 0.179592], "xyz": [3.6728161026949295, 19.0029522115172, 9.1320915672], "label": "Li", "properties": {}}, {"species": [{"element": "Li", "occu": 1}], "abc": [0.60752144, 0.61194015, 0.27920255000000005], "xyz": [3.80305444584944, 12.7393663710591, 14.197198385205002], "label": "Li", "properties": {}}, {"species": [{"element": "Li", "occu": 1}], "abc": [0.62482429, 0.77932948, 0.22198401999999998], "xyz": [3.9113694390097895, 16.22407643866312, 11.287687631382], "label": "Li", "properties": {}}, {"species": [{"element": "Li", "occu": 1}], "abc": [0.58191598, 0.48376312, 0.32235718], "xyz": [3.64276552091698, 10.07097772958128, 16.391572481538002], "label": "Li", "properties": {}}, {"species": [{"element": "Li", "occu": 1}], "abc": [0.41666166, 0.62658664, 0.16266607], "xyz": [2.60828157517866, 13.044276912000159, 8.271423260037], "label": "Li", "properties": {}}, {"species": [{"element": "Li", "occu": 1}], "abc": [0.37641519, 0.33043259, 0.26233651], "xyz": [2.35634064505569, 6.87894367602446, 13.339575430641002], "label": "Li", "properties": {}}, {"species": [{"element": "Li", "occu": 1}], "abc": [0.09727529, 0.82461573, 0.26200749999999995], "xyz": [0.60893854891079, 17.16684531944562, 13.322845568249997], "label": "Li", "properties": {}}, {"species": [{"element": "Li", "occu": 1}], "abc": [0.1238541, 0.13418729, 0.16115547], "xyz": [0.7753205971491, 2.7935101980962598, 8.194610609577], "label": "Li", "properties": {}}, {"species": [{"element": "Li", "occu": 1}], "abc": [0.87629432, 0.97630931, 0.32299564999999997], "xyz": [5.48555950477832, 20.324801357724137, 16.424038106414997], "label": "Li", "properties": {}}, {"species": [{"element": "Li", "occu": 1}], "abc": [0.89952021, 0.28521183, 0.22211791], "xyz": [5.63095243810971, 5.93753816566902, 11.294495817381], "label": "Li", "properties": {}}, {"species": [{"element": "Li", "occu": 1}], "abc": [0.56955077, 0.77083697, 0.33998284999999995], "xyz": [3.56535991221227, 16.04727941643818, 17.287821937934996], "label": "Li", "properties": {}}, {"species": [{"element": "Li", "occu": 1}], "abc": [0.50550025, 0.05607731, 0.24194915000000003], "xyz": [3.16440679548775, 1.16741710311614, 12.302896523265002], "label": "Li", "properties": {}}, {"species": [{"element": "Li", "occu": 1}], "abc": [0.99427735, 0.55602562, 0.24205579000000002], "xyz": [6.22412749140985, 11.57533802100628, 12.308319071289], "label": "Li", "properties": {}}, {"species": [{"element": "Li", "occu": 1}], "abc": [0.06698734, 0.2333286, 0.34603013000000005], "xyz": [0.41933746602034006, 4.8574333948284, 17.595320683383], "label": "Li", "properties": {}}, {"species": [{"element": "Li", "occu": 1}], "abc": [0.05724168, 0.7162267, 0.18696358], "xyz": [0.35833011195768, 14.9104031432398, 9.506929775778], "label": "Li", "properties": {}}, {"species": [{"element": "Li", "occu": 1}], "abc": [0.94017896, 0.39511751, 0.29757330000000004], "xyz": [5.88547422083096, 8.22555395247494, 15.131334489030001], "label": "Li", "properties": {}}, {"species": [{"element": "Li", "occu": 1}], "abc": [0.44344418, 0.91236818, 0.28707665000000004], "xyz": [2.77593883803518, 18.99367529703092, 14.597589283515003], "label": "Li", "properties": {}}, {"species": [{"element": "Li", "occu": 1}], "abc": [0.54953024, 0.19892656, 0.19652562], "xyz": [3.4400323754182396, 4.14125193252064, 9.993150903942], "label": "Li", "properties": {}}, {"species": [{"element": "Li", "occu": 1}], "abc": [0.94232737, 0.49576062, 0.47688328], "xyz": [5.89892316215887, 10.32074161259628, 24.249085593048], "label": "Li", "properties": {}}, {"species": [{"element": "Li", "occu": 1}], "abc": [0.92481255, 0.80714575, 0.38245430999999996], "xyz": [5.78928124718505, 16.803155380625498, 19.447457454621], "label": "Li", "properties": {}}, {"species": [{"element": "Li", "occu": 1}], "abc": [0.12444958, 0.38965078, 0.40771388], "xyz": [0.7790482727705801, 8.111747600135319, 20.731883855508], "label": "Li", "properties": {}}, {"species": [{"element": "Li", "occu": 1}], "abc": [0.42905229, 0.88997372, 0.40764754000000003], "xyz": [2.68584631183779, 18.52746756311768, 20.728510526214002], "label": "Li", "properties": {}}, {"species": [{"element": "Li", "occu": 1}], "abc": [0.625026, 0.3083841, 0.37748391000000003], "xyz": [3.912632133726, 6.419938343495399, 19.194717087981], "label": "Li", "properties": {}}, {"species": [{"element": "Li", "occu": 1}], "abc": [0.58716826, 0.98718867, 0.47236908999999994], "xyz": [3.67564453635526, 20.551287808927977, 24.019543094318998], "label": "Li", "properties": {}}, {"species": [{"element": "Li", "occu": 1}], "abc": [0.57692825, 0.17808373, 0.42152645], "xyz": [3.61154257551575, 3.7073460226376196, 21.434240608695], "label": "Li", "properties": {}}, {"species": [{"element": "Li", "occu": 1}], "abc": [0.37308311, 0.02656981, 0.36267671], "xyz": [2.33548198752761, 0.5531301451611399, 18.441784294461], "label": "Li", "properties": {}}, {"species": [{"element": "Li", "occu": 1}], "abc": [0.38313984, 0.72445502, 0.45833252999999996], "xyz": [2.39843662454784, 15.081700259629878, 23.305796651222998], "label": "Li", "properties": {}}, {"species": [{"element": "Li", "occu": 1}], "abc": [0.03629266, 0.20534999, 0.45563049], "xyz": [0.22719027325965999, 4.27497485972006, 23.168400349059], "label": "Li", "properties": {}}, {"species": [{"element": "Li", "occu": 1}], "abc": [0.08015413, 0.52110046, 0.36247492000000003], "xyz": [0.50176092624763, 10.84826624967724, 18.431523454572], "label": "Li", "properties": {}}, {"species": [{"element": "Li", "occu": 1}], "abc": [0.8615793, 0.67519312, 0.42498460000000005], "xyz": [5.3934442006143, 14.056166321001278, 21.610084423860002], "label": "Li", "properties": {}}, {"species": [{"element": "Li", "occu": 1}], "abc": [0.56493423, 0.47261155, 0.4362678], "xyz": [3.53646059802273, 9.8388244122307, 22.18382498898], "label": "Li", "properties": {}}, {"species": [{"element": "Li", "occu": 1}], "abc": [0.06428077, 0.92621387, 0.45162489000000006], "xyz": [0.40239447044227, 19.281914788376778, 22.964719194099004], "label": "Li", "properties": {}}, {"species": [{"element": "Li", "occu": 1}], "abc": [0.9268259, 0.0780585, 0.39963448], "xyz": [5.8018847195309, 1.625021384649, 20.321053636968], "label": "Li", "properties": {}}, {"species": [{"element": "Li", "occu": 1}], "abc": [0.43579014, 0.33047687, 0.47988595999999994], "xyz": [2.72802492268314, 6.87986549679878, 24.401769168635997], "label": "Li", "properties": {}}, {"species": [{"element": "Li", "occu": 1}], "abc": [0.43055507, 0.61508938, 0.38494297], "xyz": [2.6952536410015697, 12.804927022303719, 19.574003575827], "label": "Li", "properties": {}}, {"species": [{"element": "P", "occu": 1}], "abc": [0.16067709, 0.46909747, 0.13422083], "xyz": [1.00583071022259, 9.76566831587518, 6.825008406753001], "label": "P", "properties": {}}, {"species": [{"element": "P", "occu": 1}], "abc": [0.17217618, 0.77425996, 0.03198111000000001], "xyz": [1.07781445016718, 16.11853920172024, 1.6262106605010003], "label": "P", "properties": {}}, {"species": [{"element": "P", "occu": 1}], "abc": [0.84273845, 0.55178954, 0.0489415], "xyz": [5.275501402815951, 11.48715133298276, 2.48863122765], "label": "P", "properties": {}}, {"species": [{"element": "P", "occu": 1}], "abc": [0.83672396, 0.24691721, 0.14811039], "xyz": [5.237850990125961, 5.140320996276739, 7.5312800321490005], "label": "P", "properties": {}}, {"species": [{"element": "P", "occu": 1}], "abc": [0.65978833, 0.74655139, 0.1487916], "xyz": [4.13024261617183, 15.54170235771166, 7.56591894756], "label": "P", "properties": {}}, {"species": [{"element": "P", "occu": 1}], "abc": [0.66503091, 0.05303567, 0.048968700000000004], "xyz": [4.16306091008541, 1.10409625984598, 2.49001432317], "label": "P", "properties": {}}, {"species": [{"element": "P", "occu": 1}], "abc": [0.3254143, 0.27563993, 0.029770320000000003], "xyz": [2.0370775726993, 5.738270408900419, 1.513793978712], "label": "P", "properties": {}}, {"species": [{"element": "P", "occu": 1}], "abc": [0.34310747, 0.96852362, 0.13436611], "xyz": [2.1478359499339703, 20.16271891001828, 6.832395764001], "label": "P", "properties": {}}, {"species": [{"element": "P", "occu": 1}], "abc": [0.16190176, 0.86330293, 0.33591704], "xyz": [1.01349708441376, 17.97223521692242, 17.081079158664], "label": "P", "properties": {}}, {"species": [{"element": "P", "occu": 1}], "abc": [0.15755399, 0.16679828, 0.23465322000000002], "xyz": [0.9862802572544901, 3.4724055922503196, 11.931905049102001], "label": "P", "properties": {}}, {"species": [{"element": "P", "occu": 1}], "abc": [0.84172611, 0.94330059, 0.24952744000000002], "xyz": [5.26916420402061, 19.63762602281646, 12.688245749304], "label": "P", "properties": {}}, {"species": [{"element": "P", "occu": 1}], "abc": [0.83938793, 0.64164457, 0.3500436], "xyz": [5.25452731179143, 13.35775280839258, 17.79940202076], "label": "P", "properties": {}}, {"species": [{"element": "P", "occu": 1}], "abc": [0.65567884, 0.14163748, 0.34956310999999995], "xyz": [4.10451741013684, 2.94860820881512, 17.774969536700997], "label": "P", "properties": {}}, {"species": [{"element": "P", "occu": 1}], "abc": [0.64909139, 0.4439743, 0.24929826000000002], "xyz": [4.06328029592189, 9.2426543135542, 12.676592152566002], "label": "P", "properties": {}}, {"species": [{"element": "P", "occu": 1}], "abc": [0.34885135, 0.66591333, 0.23510315], "xyz": [2.18379235728385, 13.862979708460019, 11.954783584665], "label": "P", "properties": {}}, {"species": [{"element": "P", "occu": 1}], "abc": [0.33880398, 0.36336694, 0.33553749], "xyz": [2.12089631340498, 7.5645707767183605, 17.061779382759], "label": "P", "properties": {}}, {"species": [{"element": "P", "occu": 1}], "abc": [0.16011768, 0.55805324, 0.43529395000000004], "xyz": [1.00232883103368, 11.61754900200056, 22.134305592945], "label": "P", "properties": {}}, {"species": [{"element": "P", "occu": 1}], "abc": [0.83119311, 0.33617339, 0.45204831999999995], "xyz": [5.20322814013761, 6.99845561597966, 22.986250228512], "label": "P", "properties": {}}, {"species": [{"element": "P", "occu": 1}], "abc": [0.67498799, 0.83515862, 0.45402173999999995], "xyz": [4.2253917429884895, 17.386327140208277, 23.086596859433996], "label": "P", "properties": {}}, {"species": [{"element": "P", "occu": 1}], "abc": [0.33393878, 0.05794447, 0.43472034000000004], "xyz": [2.09044039979978, 1.2062876287931799, 22.105138040694], "label": "P", "properties": {}}, {"species": [{"element": "S", "occu": 1}], "abc": [0.29596453, 0.5568968, 0.12599393], "xyz": [1.85272345553803, 11.593474241019198, 6.4066779459630006], "label": "S", "properties": {}}, {"species": [{"element": "S", "occu": 1}], "abc": [0.32533323, 0.86026851, 0.024024260000000006], "xyz": [2.0365700784717298, 17.90906467956894, 1.2216119991660004], "label": "S", "properties": {}}, {"species": [{"element": "S", "occu": 1}], "abc": [0.74915155, 0.46028237, 0.058868180000000006], "xyz": [4.68965199457405, 9.58215561696578, 2.9933939716380005], "label": "S", "properties": {}}, {"species": [{"element": "S", "occu": 1}], "abc": [0.73641056, 0.15547191, 0.15733274], "xyz": [4.60989402148256, 3.2366132895485396, 8.000228229534], "label": "S", "properties": {}}, {"species": [{"element": "S", "occu": 1}], "abc": [0.79264311, 0.65897026, 0.15749673], "xyz": [4.96190702908761, 13.718438918858439, 8.008566973443001], "label": "S", "properties": {}}, {"species": [{"element": "S", "occu": 1}], "abc": [0.79261754, 0.96587916, 0.06087775000000001], "xyz": [4.9617469621405395, 20.10766655760504, 3.0955787975250004], "label": "S", "properties": {}}, {"species": [{"element": "S", "occu": 1}], "abc": [0.24236262, 0.36898231, 0.02151533], "xyz": [1.5171781254316201, 7.681471515686139, 1.094035166703], "label": "S", "properties": {}}, {"species": [{"element": "S", "occu": 1}], "abc": [0.2403336, 0.06032319, 0.12594465], "xyz": [1.5044765596536, 1.2558078074808599, 6.404172102314999], "label": "S", "properties": {}}, {"species": [{"element": "S", "occu": 1}], "abc": [0.19336026, 0.23917337, 0.06421335], "xyz": [1.21042575294726, 4.97910978161978, 3.2651910554850003], "label": "S", "properties": {}}, {"species": [{"element": "S", "occu": 1}], "abc": [0.76126438, 0.78676292, 0.11374381], "xyz": [4.76547771684538, 16.37882574798248, 5.783770369071], "label": "S", "properties": {}}, {"species": [{"element": "S", "occu": 1}], "abc": [0.7751156, 0.08369365, 0.013513009999999999], "xyz": [4.8521856753356, 1.7423339035380998, 0.6871243967909999], "label": "S", "properties": {}}, {"species": [{"element": "S", "occu": 1}], "abc": [0.70117621, 0.58744991, 0.015785850000000004], "xyz": [4.38932871696571, 12.22952870168054, 0.8026962652350002], "label": "S", "properties": {}}, {"species": [{"element": "S", "occu": 1}], "abc": [0.70064134, 0.28568364, 0.11498531000000001], "xyz": [4.38598045697434, 5.94736030341816, 5.846899526721001], "label": "S", "properties": {}}, {"species": [{"element": "S", "occu": 1}], "abc": [0.26851461, 0.73335158, 0.06678755], "xyz": [1.6808883013841098, 15.266908792330518, 3.3960868087050002], "label": "S", "properties": {}}, {"species": [{"element": "S", "occu": 1}], "abc": [0.7395664, 0.61005608, 0.07981156], "xyz": [4.6296494252463996, 12.70014381310352, 4.058345995596], "label": "S", "properties": {}}, {"species": [{"element": "S", "occu": 1}], "abc": [0.26914188, 0.40827505, 0.10457491], "xyz": [1.68481498084788, 8.499467541249698, 5.3175400560809996], "label": "S", "properties": {}}, {"species": [{"element": "S", "occu": 1}], "abc": [0.25162381, 0.71479444, 0.0011685100000000045], "xyz": [1.57515272103331, 14.880586363153359, 0.05941768184100023], "label": "S", "properties": {}}, {"species": [{"element": "S", "occu": 1}], "abc": [0.22144168, 0.21734389, 0.00010000000000000286], "xyz": [1.38621406615768, 4.52466379795666, 0.0050849100000001455], "label": "S", "properties": {}}, {"species": [{"element": "S", "occu": 1}], "abc": [0.23175323, 0.91105702, 0.10372023999999999], "xyz": [1.45076386389173, 18.96637957601788, 5.274080855784], "label": "S", "properties": {}}, {"species": [{"element": "S", "occu": 1}], "abc": [0.76443071, 0.11667698, 0.07782414], "xyz": [4.7852987874952095, 2.4289806695781198, 3.957287477274], "label": "S", "properties": {}}, {"species": [{"element": "S", "occu": 1}], "abc": [0.83559831, 0.47908291, 0.13713614], "xyz": [5.23080447628281, 9.97354514588254, 6.973249296473999], "label": "S", "properties": {}}, {"species": [{"element": "S", "occu": 1}], "abc": [0.85038909, 0.79370997, 0.03578175], "xyz": [5.32339403433459, 16.523449393200178, 1.819469783925], "label": "S", "properties": {}}, {"species": [{"element": "S", "occu": 1}], "abc": [0.16853518, 0.54794054, 0.04337300000000001], "xyz": [1.0550219685761801, 11.40702287407676, 2.2054780143000006], "label": "S", "properties": {}}, {"species": [{"element": "S", "occu": 1}], "abc": [0.16158063, 0.24386199, 0.14344054], "xyz": [1.0114868263491301, 5.07671744464806, 7.293822362514001], "label": "S", "properties": {}}, {"species": [{"element": "S", "occu": 1}], "abc": [0.3346, 0.73731117, 0.14675269], "xyz": [2.0945796046000003, 15.34933951319298, 7.462242209078999], "label": "S", "properties": {}}, {"species": [{"element": "S", "occu": 1}], "abc": [0.33788934, 0.04245639, 0.04585117], "xyz": [2.1151707118223397, 0.8838568722816599, 2.3314907284469997], "label": "S", "properties": {}}, {"species": [{"element": "S", "occu": 1}], "abc": [0.65456639, 0.27543487, 0.03499291], "xyz": [4.09755352764689, 5.73400147105078, 1.7793579798810002], "label": "S", "properties": {}}, {"species": [{"element": "S", "occu": 1}], "abc": [0.66778939, 0.97295842, 0.13872725], "xyz": [4.18032885971989, 20.255042549809477, 7.0541558079749995], "label": "S", "properties": {}}, {"species": [{"element": "S", "occu": 1}], "abc": [0.26204031, 0.95482124, 0.32667808], "xyz": [1.64035950062481, 19.87746284539256, 16.611286357727998], "label": "S", "properties": {}}, {"species": [{"element": "S", "occu": 1}], "abc": [0.27801192, 0.25587945, 0.22593096], "xyz": [1.7403409966159202, 5.3268968548233, 11.488385978136], "label": "S", "properties": {}}, {"species": [{"element": "S", "occu": 1}], "abc": [0.71959241, 0.85451335, 0.25835376], "xyz": [4.50461322657191, 17.7892537932199, 13.137056177616], "label": "S", "properties": {}}, {"species": [{"element": "S", "occu": 1}], "abc": [0.70508717, 0.55379754, 0.35847468000000005], "xyz": [4.41381113492867, 11.52895386493476, 18.228114850788003], "label": "S", "properties": {}}, {"species": [{"element": "S", "occu": 1}], "abc": [0.75826553, 0.04993687, 0.35801176999999995], "xyz": [4.7467050627890295, 1.03958546003878, 18.204576293906996], "label": "S", "properties": {}}, {"species": [{"element": "S", "occu": 1}], "abc": [0.76104232, 0.35305964, 0.25791345], "xyz": [4.76408763212632, 7.34999346716216, 13.114666810394999], "label": "S", "properties": {}}, {"species": [{"element": "S", "occu": 1}], "abc": [0.23970943, 0.75714869, 0.22648717], "xyz": [1.50056928603793, 15.762316885527857, 11.516668756047], "label": "S", "properties": {}}, {"species": [{"element": "S", "occu": 1}], "abc": [0.20524759, 0.45100321, 0.32707348], "xyz": [1.28483985626809, 9.388982119760739, 16.631392091868], "label": "S", "properties": {}}, {"species": [{"element": "S", "occu": 1}], "abc": [0.22513649, 0.62755527, 0.26914828999999996], "xyz": [1.40934339571199, 13.064441845528378, 13.685948313038997], "label": "S", "properties": {}}, {"species": [{"element": "S", "occu": 1}], "abc": [0.20974767, 0.92927274, 0.16761044], "xyz": [1.31301013656417, 19.34559432568356, 8.522840024604], "label": "S", "properties": {}}, {"species": [{"element": "S", "occu": 1}], "abc": [0.7889361, 0.18117483, 0.31637331999999996], "xyz": [4.9387013281311, 3.77169652389102, 16.087298586011997], "label": "S", "properties": {}}, {"species": [{"element": "S", "occu": 1}], "abc": [0.77241277, 0.48240804, 0.21520641], "xyz": [4.83526609197427, 10.042767682271759, 10.943052262731], "label": "S", "properties": {}}, {"species": [{"element": "S", "occu": 1}], "abc": [0.72816017, 0.98238342, 0.21502343], "xyz": [4.55824698435167, 20.451252143259477, 10.933747894412999], "label": "S", "properties": {}}, {"species": [{"element": "S", "occu": 1}], "abc": [0.73604407, 0.68181982, 0.31528687], "xyz": [4.60759981204057, 14.194120921841078, 16.032053581317], "label": "S", "properties": {}}, {"species": [{"element": "S", "occu": 1}], "abc": [0.26398204, 0.42877861, 0.168923], "xyz": [1.65251463528004, 8.92631053030834, 8.589582519299999], "label": "S", "properties": {}}, {"species": [{"element": "S", "occu": 1}], "abc": [0.27269582, 0.12751593, 0.26902358000000004], "xyz": [1.70706247110482, 2.65462586564442, 13.679606921778001], "label": "S", "properties": {}}, {"species": [{"element": "S", "occu": 1}], "abc": [0.7252747, 0.00364653, 0.27909954000000003], "xyz": [4.5401840835397005, 0.07591343966082, 14.191960419414002], "label": "S", "properties": {}}, {"species": [{"element": "S", "occu": 1}], "abc": [0.7246544, 0.304169, 0.17894138], "xyz": [4.5363010359344, 6.332188416986, 9.099008125758], "label": "S", "properties": {}}, {"species": [{"element": "S", "occu": 1}], "abc": [0.27339772, 0.8061837, 0.30504699], "xyz": [1.71145633071172, 16.7831274294978, 15.511364899209001], "label": "S", "properties": {}}, {"species": [{"element": "S", "occu": 1}], "abc": [0.27536811, 0.10695746, 0.20498637], "xyz": [1.72379087556261, 2.22663976053524, 10.423372426767001], "label": "S", "properties": {}}, {"species": [{"element": "S", "occu": 1}], "abc": [0.23045841, 0.60789791, 0.20489694], "xyz": [1.44265835413791, 12.65521504299254, 10.418824991754], "label": "S", "properties": {}}, {"species": [{"element": "S", "occu": 1}], "abc": [0.22630759, 0.30220332, 0.30627684], "xyz": [1.41667442432809, 6.291266902540079, 15.573901664844], "label": "S", "properties": {}}, {"species": [{"element": "S", "occu": 1}], "abc": [0.77258084, 0.8080181, 0.17796028], "xyz": [4.83631820193884, 16.821315957691397, 9.049120073748], "label": "S", "properties": {}}, {"species": [{"element": "S", "occu": 1}], "abc": [0.76590947, 0.50232, 0.27954148999999995], "xyz": [4.79455575263597, 10.457294746079999, 14.214433179158997], "label": "S", "properties": {}}, {"species": [{"element": "S", "occu": 1}], "abc": [0.837164, 0.86663133, 0.34059185999999997], "xyz": [5.2406056189640005, 18.041525828152018, 17.318789548326], "label": "S", "properties": {}}, {"species": [{"element": "S", "occu": 1}], "abc": [0.8310159, 0.17195306, 0.23738811], "xyz": [5.2021188142209, 3.5797177713616395, 12.070971744201001], "label": "S", "properties": {}}, {"species": [{"element": "S", "occu": 1}], "abc": [0.1681305, 0.93776159, 0.24667064000000002], "xyz": [1.0524886916054998, 19.52231515405046, 12.542980040424002], "label": "S", "properties": {}}, {"species": [{"element": "S", "occu": 1}], "abc": [0.16436432, 0.63154635, 0.34712944999999995], "xyz": [1.02891258934832, 13.1475281250219, 17.651220115995], "label": "S", "properties": {}}, {"species": [{"element": "S", "occu": 1}], "abc": [0.33098186, 0.13726739, 0.34515151], "xyz": [2.07193022548886, 2.85763170141566, 17.550643647141], "label": "S", "properties": {}}, {"species": [{"element": "S", "occu": 1}], "abc": [0.32480636, 0.44051755, 0.2466636], "xyz": [2.03327189808836, 9.1706917127947, 12.542622062760001], "label": "S", "properties": {}}, {"species": [{"element": "S", "occu": 1}], "abc": [0.67359172, 0.66901484, 0.23772288], "xyz": [4.2166511612057205, 13.92754692503096, 12.087994497408], "label": "S", "properties": {}}, {"species": [{"element": "S", "occu": 1}], "abc": [0.66395011, 0.37309965, 0.33762083], "xyz": [4.15629515504461, 7.7671862751021, 17.167715346753], "label": "S", "properties": {}}, {"species": [{"element": "S", "occu": 1}], "abc": [0.25243649, 0.64968064, 0.42534996999999997], "xyz": [1.5802400580119902, 13.52504766543616, 21.628663159526997], "label": "S", "properties": {}}, {"species": [{"element": "S", "occu": 1}], "abc": [0.67893524, 0.24999829, 0.46005619], "xyz": [4.25010133457324, 5.20446290123026, 23.393443210929], "label": "S", "properties": {}}, {"species": [{"element": "S", "occu": 1}], "abc": [0.75906047, 0.74180329, 0.4620731], "xyz": [4.7516813482369695, 15.44285644040026, 23.49600126921], "label": "S", "properties": {}}, {"species": [{"element": "S", "occu": 1}], "abc": [0.2067904, 0.14507926, 0.42269791], "xyz": [1.2944977712704, 3.0202591642044396, 21.493808295381], "label": "S", "properties": {}}, {"species": [{"element": "S", "occu": 1}], "abc": [0.22292464, 0.02733308, 0.47015412999999995], "xyz": [1.39549732309264, 0.56901989544152, 23.906914371782996], "label": "S", "properties": {}}, {"species": [{"element": "S", "occu": 1}], "abc": [0.23846412, 0.3225427, 0.37047189], "xyz": [1.4927737064581201, 6.7146919933438, 18.838162181799003], "label": "S", "properties": {}}, {"species": [{"element": "S", "occu": 1}], "abc": [0.80539497, 0.87204976, 0.41955704000000005], "xyz": [5.041733047846471, 18.15432667138144, 21.334097882664004], "label": "S", "properties": {}}, {"species": [{"element": "S", "occu": 1}], "abc": [0.73567024, 0.37644868, 0.41711577], "xyz": [4.60525965455824, 7.8369063615479195, 21.209961500307], "label": "S", "properties": {}}, {"species": [{"element": "S", "occu": 1}], "abc": [0.29860007, 0.8247301, 0.36903525000000004], "xyz": [1.86922180679657, 17.1692262734194, 18.765110330775002], "label": "S", "properties": {}}, {"species": [{"element": "S", "occu": 1}], "abc": [0.30365777, 0.5225304, 0.46834102999999994], "xyz": [1.90088276096927, 10.878034732017598, 23.814719868572997], "label": "S", "properties": {}}, {"species": [{"element": "S", "occu": 1}], "abc": [0.74977139, 0.39581277, 0.48273102999999995], "xyz": [4.69353216260189, 8.24002787098338, 24.546438417572997], "label": "S", "properties": {}}, {"species": [{"element": "S", "occu": 1}], "abc": [0.73083503, 0.7023995, 0.37962883000000003], "xyz": [4.574991476883531, 14.622548576602998, 19.303784339553], "label": "S", "properties": {}}, {"species": [{"element": "S", "occu": 1}], "abc": [0.26363016, 0.49996439, 0.404362], "xyz": [1.65031188372216, 10.40825567123366, 20.5614437742], "label": "S", "properties": {}}, {"species": [{"element": "S", "occu": 1}], "abc": [0.23417047, 0.99409774, 0.40594348], "xyz": [1.46589566784697, 20.695120786733558, 20.641860608868], "label": "S", "properties": {}}, {"species": [{"element": "S", "occu": 1}], "abc": [0.7672247, 0.19896074, 0.38019948000000003], "xyz": [4.8027890279897, 4.141963491555559, 19.332801378468], "label": "S", "properties": {}}, {"species": [{"element": "S", "occu": 1}], "abc": [0.77902564, 0.8932418, 0.4837461599999999], "xyz": [4.8766623341436395, 18.5955024329492, 24.598056864455994], "label": "S", "properties": {}}, {"species": [{"element": "S", "occu": 1}], "abc": [0.83452455, 0.56150849, 0.441009], "xyz": [5.22408279129705, 11.68948037576906, 22.4249107419], "label": "S", "properties": {}}, {"species": [{"element": "S", "occu": 1}], "abc": [0.15332081, 0.31701588, 0.44851982999999995], "xyz": [0.95978075788031, 6.59963468774472, 22.806829687652996], "label": "S", "properties": {}}, {"species": [{"element": "S", "occu": 1}], "abc": [0.34542651, 0.83554355, 0.44902255999999996], "xyz": [2.1623530267010103, 17.3943406106387, 22.832393055696], "label": "S", "properties": {}}, {"species": [{"element": "S", "occu": 1}], "abc": [0.66081564, 0.06848757, 0.4380699], "xyz": [4.13667352643364, 1.4257738213345799, 22.27546015209], "label": "S", "properties": {}}]}, "formula": "(Li3PS4)20.0", "bandgap": 2.358, "slab_thickness": 24.592971954455994}