{"miller": "012_0.03", "final_energy": -699.90708798, "gamma": 0.014195940346678048, "work_function": "Not calculated", "ionization_potentail": "Not calculated", "electron_affinity": "Not calculated", "is_stochiometric": true, "incar_parameters": {"SYSTEM": "unknown system", "LCOMPAT": false, "PREC": "normal", "ENMAX": 520.0, "ENAUG": 628.945, "EDIFF": 1e-05, "IALGO": 38, "IWAVPR": 11, "NBANDS": 462, "NBANDSLOW": -1, "NBANDSHIGH": -1, "NELECT": 760.0, "TURBO": 0, "IRESTART": 0, "NREBOOT": 0, "NMIN": 0, "EREF": 0.0, "ISMEAR": 0, "SIGMA": 0.05, "KSPACING": 0.5, "KGAMMA": true, "KBLOWUP": true, "LREAL": true, "ROPT": [-0.0005, -0.0005, -0.0005], "LMAXPAW": -100, "LMAXMIX": 2, "NLSPLINE": false, "ISTART": 0, "ICHARG": 2, "INIWAV": 1, "ISPIN": 1, "LNONCOLLINEAR": false, "MAGMOM": [0.6, 0.6, 0.6, 0.6, 0.6, 0.6, 0.6, 0.6, 0.6, 0.6, 0.6, 0.6, 0.6, 0.6, 0.6, 0.6, 0.6, 0.6, 0.6, 0.6, 0.6, 0.6, 0.6, 0.6, 0.6, 0.6, 0.6, 0.6, 0.6, 0.6, 0.6, 0.6, 0.6, 0.6, 0.6, 0.6, 0.6, 0.6, 0.6, 0.6, 0.6, 0.6, 0.6, 0.6, 0.6, 0.6, 0.6, 0.6, 0.6, 0.6, 0.6, 0.6, 0.6, 0.6, 0.6, 0.6, 0.6, 0.6, 0.6, 0.6, 0.6, 0.6, 0.6, 0.6, 0.6, 0.6, 0.6, 0.6, 0.6, 0.6, 0.6, 0.6, 0.6, 0.6, 0.6, 0.6, 0.6, 0.6, 0.6, 0.6, 0.6, 0.6, 0.6, 0.6, 0.6, 0.6, 0.6, 0.6, 0.6, 0.6, 0.6, 0.6, 0.6, 0.6, 0.6, 0.6, 0.6, 0.6, 0.6, 0.6, 0.6, 0.6, 0.6, 0.6, 0.6, 0.6, 0.6, 0.6, 0.6, 0.6, 0.6, 0.6, 0.6, 0.6, 0.6, 0.6, 0.6, 0.6, 0.6, 0.6, 0.6, 0.6, 0.6, 0.6, 0.6, 0.6, 0.6, 0.6, 0.6, 0.6, 0.6, 0.6, 0.6, 0.6, 0.6, 0.6, 0.6, 0.6, 0.6, 0.6, 0.6, 0.6, 0.6, 0.6, 0.6, 0.6, 0.6, 0.6, 0.6, 0.6, 0.6, 0.6, 0.6, 0.6, 0.6, 0.6, 0.6, 0.6, 0.6, 0.6], "NUPDOWN": -1.0, "LSORBIT": false, "SAXIS": [0.0, 0.0, 1.0], "LSPIRAL": false, "QSPIRAL": [0.0, 0.0, 0.0], "LZEROZ": false, "LASPH": false, "LMETAGGA": false, "NELM": 100, "NELMDL": -5, "NELMIN": 6, "ENINI": 520.0, "LDIAG": true, "LSUBROT": false, "WEIMIN": 0.001, "EBREAK": 1e-08, "DEPER": 0.3, "NRMM": 4, "TIME": 0.4, "AMIX": 0.4, "BMIX": 1.0, "AMIN": 0.1, "AMIX_MAG": 1.6, "BMIX_MAG": 1.0, "IMIX": 4, "MIXFIRST": false, "MAXMIX": -45, "WC": 100.0, "INIMIX": 1, "MIXPRE": 1, "MREMOVE": 5, "LDIPOL": false, "LMONO": false, "IDIPOL": 0, "EPSILON": 1.0, "DIPOL": [-100.0, -100.0, -100.0], "EFIELD": 0.0, "NGX": 36, "NGY": 120, "NGZ": 288, "NGXF": 72, "NGYF": 240, "NGZF": 576, "ADDGRID": false, "NSW": 150, "IBRION": 2, "MDALGO": 0, "ISIF": 2, "PSTRESS": 0.0, "EDIFFG": -0.01, "NFREE": 1, "POTIM": 0.5, "SMASS": -3.0, "SCALEE": 1.0, "TEBEG": 0.0001, "TEEND": 0.0001, "NBLOCK": 1, "KBLOCK": 150, "NPACO": 256, "APACO": 10.0, "ISYM": 0, "SYMPREC": 1e-05, "LORBIT": 11, "RWIGS": [-1.0, -1.0, -1.0], "NEDOS": 301, "EMIN": 10.0, "EMAX": -10.0, "EFERMI": 0.0, "NWRITE": 2, "LWAVE": false, "LDOWNSAMPLE": false, "LCHARG": false, "LPARD": false, "LVTOT": false, "LVHAR": false, "LELF": false, "LOPTICS": false, "STM": [0.0, 0.0, 0.0, 0.0, 0.0, 0.0, 0.0], "NPAR": 2, "NSIM": 4, "NBLK": -1, "LPLANE": true, "LSCALAPACK": true, "LSCAAWARE": false, "LSCALU": false, "LASYNC": false, "LORBITALREAL": false, "IDIOT": 3, "PHON_NSTRUCT": -1, "LMUSIC": false, "POMASS": [7.01, 30.974, 32.066], "DARWINR": [0.0, 0.0, 0.0], "DARWINV": [1.0, 1.0, 1.0], "LCORR": true, "GGA_COMPAT": true, "LBERRY": false, "ICORELEVEL": 0, "LDAU": false, "I_CONSTRAINED_M": 0, "GGA": "--", "VOSKOWN": 0, "LHFCALC": false, "PRECFOCK": "", "LSYMGRAD": false, "LHFONE": false, "LRHFCALC": false, "LTHOMAS": false, "LMODELHF": false, "LFOCKACE": false, "ENCUT4O": -1.0, "EXXOEP": 0, "FOURORBIT": 0, "AEXX": 0.0, "HFALPHA": 0.0, "MCALPHA": 0.0, "ALDAX": 1.0, "AGGAX": 1.0, "ALDAC": 1.0, "AGGAC": 1.0, "NKREDX": 1, "NKREDY": 1, "NKREDZ": 1, "SHIFTRED": false, "ODDONLY": false, "EVENONLY": false, "LMAXFOCK": 0, "NMAXFOCKAE": 0, "LFOCKAEDFT": false, "HFSCREEN": 0.0, "HFSCREENC": 0.0, "NBANDSGWLOW": 0, "LUSE_VDW": false, "Zab_VDW": -0.8491, "PARAM1": 0.1234, "PARAM2": 1.0, "PARAM3": 0.0, "MODEL_GW": 0, "MODEL_EPS0": 24.84988316, "MODEL_ALPHA": 1.0, "LEPSILON": false, "LRPA": false, "LNABLA": false, "LVEL": false, "CSHIFT": 0.1, "OMEGAMAX": -1.0, "DEG_THRESHOLD": 0.002, "RTIME": -0.1, "WPLASMAI": 0.0, "DFIELD": [0.0, 0.0, 0.0], "WPLASMA": [0.0, 0.0, 0.0, 0.0, 0.0, 0.0, 0.0, 0.0, 0.0], "NUCIND": false, "MAGPOS": [0.0, 0.0, 0.0], "LNICSALL": true, "ORBITALMAG": false, "LMAGBLOCH": false, "LCHIMAG": false, "LGAUGE": true, "MAGATOM": 0, "MAGDIPOL": [0.0, 0.0, 0.0], "AVECCONST": [0.0, 0.0, 0.0], "LFINITE_TEMPERATURE": false, "LADDER": false, "LRPAFORCE": false, "LFXC": false, "LHARTREE": true, "IBSE": 0, "KPOINT": [-1, 0, 0, 0], "LTCTC": false, "LTCTE": false, "LTETE": false, "LTRIPLET": false, "LFXCEPS": false, "LFXHEG": false, "NATURALO": 2, "LHOLEGF": false, "L2ORDER": false, "LDMP1": false, "LMP2LT": false, "LSMP2LT": false, "LGWLF": false, "ENCUTGW": -2.0, "ENCUTGWSOFT": -2.0, "ENCUTLF": -1.0, "LESF_SPLINES": false, "LMAXMP2": -1, "SCISSOR": 0.0, "NOMEGA": 0, "NOMEGAR": 0, "NBANDSGW": -1, "NBANDSO": -1, "NBANDSV": -1, "NELMGW": 1, "NELMHF": 1, "DIM": 3, "IESPILON": 4, "ANTIRES": 0, "OMEGAMIN": -30.0, "OMEGATL": -200.0, "OMEGAGRID": 0, "LSELFENERGY": false, "LSPECTRAL": false, "LSPECTRALGW": false, "LSINGLES": false, "LFERMIGW": false, "ODDONLYGW": false, "EVENONLYGW": false, "NKREDLFX": 1, "NKREDLFY": 1, "NKREDLFZ": 1, "MAXMEM": 2800, "TELESCOPE": 0, "NTAUPAR": -1, "NOMEGAPAR": -1, "DAMP_NEWTON": 0.80000001, "LAMBDA": 1.0, "OFIELD_KAPPA": 0.0, "OFIELD_K": [0.0, 0.0, 0.0], "OFIELD_Q6_NEAR": 0.0, "OFIELD_Q6_FAR": 0.0, "OFIELD_A": 0.0, "KPOINTS_OPT_MODE": 1, "LKPOINTS_OPT": false, "@module": "pymatgen.io.vasp.inputs", "@class": "Incar"}, "relaxed_structures": {"@module": "pymatgen.core.structure", "@class": "Structure", "charge": 0, "lattice": {"matrix": [[6.259951, 0.0, 0.0], [0.0, 20.817994, 0.0], [0.0, 0.0, 50.8491]], "a": 6.259951, "b": 20.817994, "c": 50.8491, "alpha": 90.0, "beta": 90.0, "gamma": 90.0, "volume": 6626.6355092591275}, "sites": [{"species": [{"element": "Li", "occu": 1}], "abc": [0.87544907, 0.74378189, 0.07611796000000001], "xyz": [5.4802682811955705, 15.484046923328657, 3.8705297598360007], "label": "Li", "properties": {}}, {"species": [{"element": "Li", "occu": 1}], "abc": [0.07450329, 0.32630344, 0.10147323], "xyz": [0.46638694473879, 6.792983056099359, 5.159822419593], "label": "Li", "properties": {}}, {"species": [{"element": "Li", "occu": 1}], "abc": [0.05630453, 0.63791734, 0.0071209600000000026], "xyz": [0.35246359887802997, 13.28015935661596, 0.3620944071360001], "label": "Li", "properties": {}}, {"species": [{"element": "Li", "occu": 1}], "abc": [0.41268098, 0.14705013, 0.01143257000000001], "xyz": [2.58336271343198, 3.06128872403922, 0.5813358951870005], "label": "Li", "properties": {}}, {"species": [{"element": "Li", "occu": 1}], "abc": [0.37451984, 0.82502387, 0.10629035], "xyz": [2.34447584692784, 17.17534197551678, 5.4047686361850005], "label": "Li", "properties": {}}, {"species": [{"element": "Li", "occu": 1}], "abc": [0.56888939, 0.2437398, 0.07620648000000002], "xyz": [3.5612197058198904, 5.0741736939612, 3.8750309221680013], "label": "Li", "properties": {}}, {"species": [{"element": "Li", "occu": 1}], "abc": [0.6167632, 0.40894674, 0.025475130000000006], "xyz": [3.8609074106031995, 8.513450779639559, 1.2953874328830002], "label": "Li", "properties": {}}, {"species": [{"element": "Li", "occu": 1}], "abc": [0.62502342, 0.10740152, 0.12078869], "xyz": [3.91261598305242, 2.2358841989508798, 6.141996176679], "label": "Li", "properties": {}}, {"species": [{"element": "Li", "occu": 1}], "abc": [0.42263345, 0.95566354, 0.06229022], "xyz": [2.64566468796095, 19.894997841738757, 3.167401625802], "label": "Li", "properties": {}}, {"species": [{"element": "Li", "occu": 1}], "abc": [0.13821776, 0.45825486, 0.05881109], "xyz": [0.86523640492976, 9.539946925950838, 2.990490996519], "label": "Li", "properties": {}}, {"species": [{"element": "Li", "occu": 1}], "abc": [0.91964369, 0.61245766, 0.12133968], "xyz": [5.75692443685919, 12.75013989113404, 6.170013522288], "label": "Li", "properties": {}}, {"species": [{"element": "Li", "occu": 1}], "abc": [0.96295695, 0.92868358, 0.027935309999999998], "xyz": [6.028063322109451, 19.333329196338518, 1.420485371721], "label": "Li", "properties": {}}, {"species": [{"element": "Li", "occu": 1}], "abc": [0.42998896, 0.36260196, 0.14381579], "xyz": [2.69170982014096, 7.54864542766824, 7.312903487289], "label": "Li", "properties": {}}, {"species": [{"element": "Li", "occu": 1}], "abc": [0.43469063, 0.6607656, 0.04754788000000001], "xyz": [2.72114204395913, 13.755814296206399, 2.4177669049080004], "label": "Li", "properties": {}}, {"species": [{"element": "Li", "occu": 1}], "abc": [0.93477391, 0.20721663, 0.03225430000000001], "xyz": [5.85163887267841, 4.31383456004022, 1.6401021261300004], "label": "Li", "properties": {}}, {"species": [{"element": "Li", "occu": 1}], "abc": [0.93212069, 0.90039953, 0.13766558], "xyz": [5.83502984548619, 18.744512013142817, 7.000170843978], "label": "Li", "properties": {}}, {"species": [{"element": "Li", "occu": 1}], "abc": [0.07229994, 0.0553531, 0.08409258], "xyz": [0.45259408170293997, 1.1523405036814, 4.276032009678], "label": "Li", "properties": {}}, {"species": [{"element": "Li", "occu": 1}], "abc": [0.56938477, 0.51767476, 0.09915715], "xyz": [3.56432076034627, 10.77695004763144, 5.042051836065], "label": "Li", "properties": {}}, {"species": [{"element": "Li", "occu": 1}], "abc": [0.5642017, 0.80290445, 0.004047170000000003], "xyz": [3.5318749961167004, 16.7148600226733, 0.20579495204700013], "label": "Li", "properties": {}}, {"species": [{"element": "Li", "occu": 1}], "abc": [0.89122558, 0.13507373, 0.27894653], "xyz": [5.57902846074658, 2.8119641006976197, 14.184179998623001], "label": "Li", "properties": {}}, {"species": [{"element": "Li", "occu": 1}], "abc": [0.87645233, 0.43697937, 0.17711301000000002], "xyz": [5.48654863963583, 9.09703390278378, 9.006037156791], "label": "Li", "properties": {}}, {"species": [{"element": "Li", "occu": 1}], "abc": [0.12297188, 0.72013406, 0.3062443], "xyz": [0.7697979431778801, 14.99174654027564, 15.572247035130001], "label": "Li", "properties": {}}, {"species": [{"element": "Li", "occu": 1}], "abc": [0.10554003, 0.02166497, 0.20452649], "xyz": [0.66067541633853, 0.4510212154701799, 10.399987942659001], "label": "Li", "properties": {}}, {"species": [{"element": "Li", "occu": 1}], "abc": [0.39046709, 0.52152115, 0.20472618000000004], "xyz": [2.44430485051259, 10.8570241715731, 10.410141999438002], "label": "Li", "properties": {}}, {"species": [{"element": "Li", "occu": 1}], "abc": [0.41300289, 0.22081385, 0.30412507], "xyz": [2.58537785425839, 4.5969014044169, 15.464486096937], "label": "Li", "properties": {}}, {"species": [{"element": "Li", "occu": 1}], "abc": [0.58516896, 0.93675842, 0.1794843], "xyz": [3.6631290163209598, 19.50143116700948, 9.126615119130001], "label": "Li", "properties": {}}, {"species": [{"element": "Li", "occu": 1}], "abc": [0.60959206, 0.63526886, 0.27844458], "xyz": [3.81601642558906, 13.22502331586684, 14.158656292878], "label": "Li", "properties": {}}, {"species": [{"element": "Li", "occu": 1}], "abc": [0.62339487, 0.80359863, 0.22150095000000003], "xyz": [3.9024213398513705, 16.729311457748217, 11.263123956645002], "label": "Li", "properties": {}}, {"species": [{"element": "Li", "occu": 1}], "abc": [0.58370536, 0.50775835, 0.32104306], "xyz": [3.6539669520373597, 10.5705102837499, 16.324750662246], "label": "Li", "properties": {}}, {"species": [{"element": "Li", "occu": 1}], "abc": [0.41696738, 0.64988579, 0.16133356000000001], "xyz": [2.61019536739838, 13.52931847690526, 8.203666325796], "label": "Li", "properties": {}}, {"species": [{"element": "Li", "occu": 1}], "abc": [0.37514201, 0.35413186, 0.26177564000000003], "xyz": [2.3483706006415104, 7.37231493668884, 13.311055695924], "label": "Li", "properties": {}}, {"species": [{"element": "Li", "occu": 1}], "abc": [0.09696759, 0.84833869, 0.26159144], "xyz": [0.60701236198809, 17.660709758387856, 13.301689291704001], "label": "Li", "properties": {}}, {"species": [{"element": "Li", "occu": 1}], "abc": [0.12101828, 0.15713658, 0.16071503], "xyz": [0.75756850290428, 3.27126837962052, 8.172214631973], "label": "Li", "properties": {}}, {"species": [{"element": "Li", "occu": 1}], "abc": [0.8747621, 0.99948004, 0.32272511000000004], "xyz": [5.4759678826571, 20.80716947583976, 16.410281390901], "label": "Li", "properties": {}}, {"species": [{"element": "Li", "occu": 1}], "abc": [0.90184587, 0.30879641, 0.22175888], "xyz": [5.64551095575237, 6.4285218106015405, 11.276239465008], "label": "Li", "properties": {}}, {"species": [{"element": "Li", "occu": 1}], "abc": [0.56973145, 0.79413818, 0.33962976], "xyz": [3.56649096015895, 16.53236386641092, 17.269867629216], "label": "Li", "properties": {}}, {"species": [{"element": "Li", "occu": 1}], "abc": [0.49923011, 0.07906265, 0.24179428000000003], "xyz": [3.12515602632461, 1.6459257733241, 12.295021523148002], "label": "Li", "properties": {}}, {"species": [{"element": "Li", "occu": 1}], "abc": [0.99994869, 0.57911886, 0.24166056000000002], "xyz": [6.25962980191419, 12.05609295276684, 12.288221981496001], "label": "Li", "properties": {}}, {"species": [{"element": "Li", "occu": 1}], "abc": [0.06725983, 0.25712369, 0.34587364000000004], "xyz": [0.42104324006833005, 5.35279943567786, 17.587363307724], "label": "Li", "properties": {}}, {"species": [{"element": "Li", "occu": 1}], "abc": [0.06012821, 0.73889977, 0.18619852], "xyz": [0.37639964831771, 15.382410978461378, 9.468027163332], "label": "Li", "properties": {}}, {"species": [{"element": "Li", "occu": 1}], "abc": [0.94244908, 0.41731207, 0.29678332], "xyz": [5.89968506079508, 8.68760016938758, 15.091164717012001], "label": "Li", "properties": {}}, {"species": [{"element": "Li", "occu": 1}], "abc": [0.44056498, 0.93677812, 0.28681329], "xyz": [2.75791518711598, 19.50184128149128, 14.584197664539], "label": "Li", "properties": {}}, {"species": [{"element": "Li", "occu": 1}], "abc": [0.55434569, 0.22129056, 0.1966542], "xyz": [3.47017685646119, 4.60682555033664, 9.99968908122], "label": "Li", "properties": {}}, {"species": [{"element": "Li", "occu": 1}], "abc": [0.93984528, 0.51992065, 0.47621173], "xyz": [5.88338540038128, 10.823704972176099, 24.214937879943], "label": "Li", "properties": {}}, {"species": [{"element": "Li", "occu": 1}], "abc": [0.92486878, 0.83059182, 0.38227947], "xyz": [5.78963324422978, 17.291255525209078, 19.438566997977002], "label": "Li", "properties": {}}, {"species": [{"element": "Li", "occu": 1}], "abc": [0.12209722, 0.41361488, 0.40705548], "xyz": [0.7643226144362201, 8.61063209015072, 20.698404808068002], "label": "Li", "properties": {}}, {"species": [{"element": "Li", "occu": 1}], "abc": [0.43031684, 0.91256691, 0.40759818000000003], "xyz": [2.6937623328748397, 18.99781245697854, 20.726000614638], "label": "Li", "properties": {}}, {"species": [{"element": "Li", "occu": 1}], "abc": [0.62625263, 0.33230038, 0.37713818], "xyz": [3.92031077742113, 6.91782731703772, 19.177137028638], "label": "Li", "properties": {}}, {"species": [{"element": "Li", "occu": 1}], "abc": [0.59159781, 0.0110667, 0.47257885000000005], "xyz": [3.70337330230731, 0.2303864941998, 24.030209201535], "label": "Li", "properties": {}}, {"species": [{"element": "Li", "occu": 1}], "abc": [0.58008342, 0.20078202, 0.42150719000000003], "xyz": [3.6312937851124203, 4.17987888766788, 21.433261255029002], "label": "Li", "properties": {}}, {"species": [{"element": "Li", "occu": 1}], "abc": [0.37461907, 0.05011176, 0.36309213], "xyz": [2.34509702186557, 1.04322631900944, 18.462908027583], "label": "Li", "properties": {}}, {"species": [{"element": "Li", "occu": 1}], "abc": [0.38752413, 0.7469849, 0.45841177000000005], "xyz": [2.42588206511763, 15.550727166290597, 23.309825933907003], "label": "Li", "properties": {}}, {"species": [{"element": "Li", "occu": 1}], "abc": [0.04031572, 0.22919989, 0.45597589], "xyz": [0.25237443172972, 4.77148193482066, 23.185963628199], "label": "Li", "properties": {}}, {"species": [{"element": "Li", "occu": 1}], "abc": [0.08268493, 0.5453439, 0.36142321], "xyz": [0.51760361023843, 11.3529660381366, 18.378044947611], "label": "Li", "properties": {}}, {"species": [{"element": "Li", "occu": 1}], "abc": [0.86660018, 0.69996362, 0.42470995], "xyz": [5.42487466339118, 14.57183844137828, 21.596118718545], "label": "Li", "properties": {}}, {"species": [{"element": "Li", "occu": 1}], "abc": [0.56506592, 0.49712899, 0.43562671000000003], "xyz": [3.53728497096992, 10.34922833104606, 22.151226139461002], "label": "Li", "properties": {}}, {"species": [{"element": "Li", "occu": 1}], "abc": [0.06760191, 0.94966038, 0.45119581000000003], "xyz": [0.42318464410641, 19.77002409287772, 22.942900862271003], "label": "Li", "properties": {}}, {"species": [{"element": "Li", "occu": 1}], "abc": [0.92884168, 0.1023456, 0.39947118000000004], "xyz": [5.81450340355768, 2.1306300867264, 20.312749978938], "label": "Li", "properties": {}}, {"species": [{"element": "Li", "occu": 1}], "abc": [0.43496272, 0.35472804, 0.47919678000000004], "xyz": [2.72284531402672, 7.38472620835176, 24.366724985898003], "label": "Li", "properties": {}}, {"species": [{"element": "Li", "occu": 1}], "abc": [0.43470938, 0.63839597, 0.3845997], "xyz": [2.72125941804038, 13.29012347308418, 19.55654860527], "label": "Li", "properties": {}}, {"species": [{"element": "P", "occu": 1}], "abc": [0.15951342, 0.49183464, 0.13381743000000001], "xyz": [0.99854619304242, 10.23901058451216, 6.804495879813], "label": "P", "properties": {}}, {"species": [{"element": "P", "occu": 1}], "abc": [0.1680102, 0.79754785, 0.03176923], "xyz": [1.0517356195002, 16.6033463560129, 1.615436753193], "label": "P", "properties": {}}, {"species": [{"element": "P", "occu": 1}], "abc": [0.83880101, 0.57541377, 0.04862281000000001], "xyz": [5.25085322135051, 11.97896041137738, 2.4724261279710005], "label": "P", "properties": {}}, {"species": [{"element": "P", "occu": 1}], "abc": [0.66473282, 0.07577421, 0.04898235], "xyz": [4.16119488129182, 1.5774670491347398, 2.490708413385], "label": "P", "properties": {}}, {"species": [{"element": "P", "occu": 1}], "abc": [0.32319008, 0.29865059, 0.029795300000000004], "xyz": [2.02315406448608, 6.217306190716459, 1.51506418923], "label": "P", "properties": {}}, {"species": [{"element": "P", "occu": 1}], "abc": [0.34302999, 0.99205017, 0.13414916000000002], "xyz": [2.14735092893049, 20.65249448675898, 6.821364051756001], "label": "P", "properties": {}}, {"species": [{"element": "P", "occu": 1}], "abc": [0.1622374, 0.88696421, 0.33572652000000003], "xyz": [1.0155981743674, 18.46481560199474, 17.071391388132003], "label": "P", "properties": {}}, {"species": [{"element": "P", "occu": 1}], "abc": [0.15689412, 0.19018099, 0.23419242], "xyz": [0.98214950338812, 3.9591867087340598, 11.908473783822], "label": "P", "properties": {}}, {"species": [{"element": "P", "occu": 1}], "abc": [0.84024188, 0.96722953, 0.24925996], "xyz": [5.25987299694788, 20.13577855216282, 12.674644632036], "label": "P", "properties": {}}, {"species": [{"element": "P", "occu": 1}], "abc": [0.83632834, 0.27020304, 0.14786683], "xyz": [5.23537442831134, 5.62508526550176, 7.518895225353], "label": "P", "properties": {}}, {"species": [{"element": "P", "occu": 1}], "abc": [0.66026989, 0.77038694, 0.14832320000000002], "xyz": [4.1332571581753905, 16.03791069459836, 7.542101229120001], "label": "P", "properties": {}}, {"species": [{"element": "P", "occu": 1}], "abc": [0.6502818, 0.4678265, 0.24864944], "xyz": [4.0707322041918, 9.739209270040998, 12.643600239504], "label": "P", "properties": {}}, {"species": [{"element": "P", "occu": 1}], "abc": [0.35058446, 0.68972177, 0.23447078], "xyz": [2.19464154096146, 14.35862366952938, 11.922628139298], "label": "P", "properties": {}}, {"species": [{"element": "P", "occu": 1}], "abc": [0.34104826, 0.38731209, 0.33485915], "xyz": [2.13494539623526, 8.06306076574746, 17.027286404265], "label": "P", "properties": {}}, {"species": [{"element": "P", "occu": 1}], "abc": [0.16124108, 0.58187376, 0.43480866], "xyz": [1.00936125998708, 12.11344444443744, 22.109629033206], "label": "P", "properties": {}}, {"species": [{"element": "P", "occu": 1}], "abc": [0.83151476, 0.35994617, 0.45175409000000005], "xyz": [5.20524165337676, 7.49335720738298, 22.971288897819004], "label": "P", "properties": {}}, {"species": [{"element": "P", "occu": 1}], "abc": [0.84105758, 0.66513566, 0.34950257], "xyz": [5.2649792389785794, 13.846790179066039, 17.771891132187], "label": "P", "properties": {}}, {"species": [{"element": "P", "occu": 1}], "abc": [0.65674426, 0.16508217, 0.34938443], "xyz": [4.11118688713126, 3.4366796245669797, 17.765883819513], "label": "P", "properties": {}}, {"species": [{"element": "P", "occu": 1}], "abc": [0.67750503, 0.8585742, 0.45380982], "xyz": [4.24114829005353, 17.8737925441548, 23.075820918161998], "label": "P", "properties": {}}, {"species": [{"element": "P", "occu": 1}], "abc": [0.33626529, 0.0813704, 0.43503712], "xyz": [2.10500423840079, 1.6939684989775998, 22.121246018592], "label": "P", "properties": {}}, {"species": [{"element": "S", "occu": 1}], "abc": [0.29442951, 0.57956675, 0.12532905], "xyz": [1.84311430555401, 12.0654171240995, 6.372869396355], "label": "S", "properties": {}}, {"species": [{"element": "S", "occu": 1}], "abc": [0.32042163, 0.88368918, 0.02376013000000001], "xyz": [2.00582370314013, 18.396636047104916, 1.2081812263830005], "label": "S", "properties": {}}, {"species": [{"element": "S", "occu": 1}], "abc": [0.74690391, 0.48376368, 0.05857533], "xyz": [4.67558187830841, 10.070989387657919, 2.978502812703], "label": "S", "properties": {}}, {"species": [{"element": "S", "occu": 1}], "abc": [0.79190931, 0.98862989, 0.06095796], "xyz": [4.95731347704381, 20.58129111824066, 3.099657403836], "label": "S", "properties": {}}, {"species": [{"element": "S", "occu": 1}], "abc": [0.24032583, 0.39207042, 0.02170059], "xyz": [1.50442791983433, 8.162119651137479, 1.1034554709689999], "label": "S", "properties": {}}, {"species": [{"element": "S", "occu": 1}], "abc": [0.24008599, 0.08373954, 0.12565373000000002], "xyz": [1.50292653318649, 1.7432892412827599, 6.389379082143001], "label": "S", "properties": {}}, {"species": [{"element": "S", "occu": 1}], "abc": [0.1925421, 0.26197302, 0.06427993000000001], "xyz": [1.2053041114371, 5.45375275852188, 3.2685765885630005], "label": "S", "properties": {}}, {"species": [{"element": "S", "occu": 1}], "abc": [0.76091078, 0.8110129, 0.11334937], "xyz": [4.76326419817178, 16.8836616861226, 5.763713450067001], "label": "S", "properties": {}}, {"species": [{"element": "S", "occu": 1}], "abc": [0.77580835, 0.10629794, 0.01354594], "xyz": [4.85652225639085, 2.21290987713236, 0.688798857654], "label": "S", "properties": {}}, {"species": [{"element": "S", "occu": 1}], "abc": [0.69505106, 0.61078279, 0.015541569999999998], "xyz": [4.350985578098061, 12.715272457523259, 0.7902748470869999], "label": "S", "properties": {}}, {"species": [{"element": "S", "occu": 1}], "abc": [0.70034899, 0.30891966, 0.11473622], "xyz": [4.38415036029949, 6.4310876283620395, 5.834233524402], "label": "S", "properties": {}}, {"species": [{"element": "S", "occu": 1}], "abc": [0.26406953, 0.75702704, 0.06664673000000002], "xyz": [1.65306231839303, 15.759784376557759, 3.3889262384430006], "label": "S", "properties": {}}, {"species": [{"element": "S", "occu": 1}], "abc": [0.73571349, 0.63360178, 0.07951679], "xyz": [4.60553039743899, 13.19031805442932, 4.043357206389], "label": "S", "properties": {}}, {"species": [{"element": "S", "occu": 1}], "abc": [0.26766146, 0.43103628, 0.10422309000000002], "xyz": [1.6755476241884601, 8.97331069082232, 5.299650325719001], "label": "S", "properties": {}}, {"species": [{"element": "S", "occu": 1}], "abc": [0.24830145, 0.7380606, 0.0009934900000000066], "xyz": [1.55435491022895, 15.364941142436399, 0.050518072359000334], "label": "S", "properties": {}}, {"species": [{"element": "S", "occu": 1}], "abc": [0.21846416, 0.24059972, 0.00010000000000000286], "xyz": [1.36757493685616, 5.008803527361679, 0.0050849100000001455], "label": "S", "properties": {}}, {"species": [{"element": "S", "occu": 1}], "abc": [0.23174377, 0.93462696, 0.10352523000000002], "xyz": [1.4507046447552698, 19.45705844551824, 5.264164772793001], "label": "S", "properties": {}}, {"species": [{"element": "S", "occu": 1}], "abc": [0.76491581, 0.13964934, 0.07773060000000001], "xyz": [4.78833548972531, 2.90721912222396, 3.9525310524600004], "label": "S", "properties": {}}, {"species": [{"element": "S", "occu": 1}], "abc": [0.83457346, 0.50223456, 0.1368271], "xyz": [5.22438896550046, 10.45551605667264, 6.957534890610001], "label": "S", "properties": {}}, {"species": [{"element": "S", "occu": 1}], "abc": [0.84610833, 0.8168439, 0.03544695], "xyz": [5.29659668649183, 17.0050514091366, 1.802445505245], "label": "S", "properties": {}}, {"species": [{"element": "S", "occu": 1}], "abc": [0.16434975, 0.57208669, 0.04284947000000001], "xyz": [1.02882138186225, 11.90969727989986, 2.1788569849770005], "label": "S", "properties": {}}, {"species": [{"element": "S", "occu": 1}], "abc": [0.16115404, 0.26682053, 0.14325565], "xyz": [1.00881639385204, 5.55466819261682, 7.284420872415001], "label": "S", "properties": {}}, {"species": [{"element": "S", "occu": 1}], "abc": [0.33504025, 0.76066171, 0.14620133000000002], "xyz": [2.09733554802775, 15.83545091480974, 7.434206049303001], "label": "S", "properties": {}}, {"species": [{"element": "S", "occu": 1}], "abc": [0.33784078, 0.06537079, 0.04569984], "xyz": [2.11486672860178, 1.36088871399526, 2.323795734144], "label": "S", "properties": {}}, {"species": [{"element": "S", "occu": 1}], "abc": [0.65268829, 0.29787977, 0.034781650000000004], "xyz": [4.08579671367379, 6.201259264581379, 1.7686155990150003], "label": "S", "properties": {}}, {"species": [{"element": "S", "occu": 1}], "abc": [0.66755065, 0.99649616, 0.13859894], "xyz": [4.1788343590181505, 20.74505107990304, 7.047631359954], "label": "S", "properties": {}}, {"species": [{"element": "S", "occu": 1}], "abc": [0.26186846, 0.97862543, 0.32662381], "xyz": [1.6392837280454602, 20.37301832998742, 16.608526777071], "label": "S", "properties": {}}, {"species": [{"element": "S", "occu": 1}], "abc": [0.27903853, 0.27898901, 0.22540423000000004], "xyz": [1.74676752491203, 5.80799153624594, 11.461602231693002], "label": "S", "properties": {}}, {"species": [{"element": "S", "occu": 1}], "abc": [0.71829667, 0.87843317, 0.25799689000000003], "xyz": [4.4965019576631695, 18.28721646246098, 13.118909659299002], "label": "S", "properties": {}}, {"species": [{"element": "S", "occu": 1}], "abc": [0.73503491, 0.17876319, 0.15700495], "xyz": [4.60128251988941, 3.7214910168408597, 7.983560403045], "label": "S", "properties": {}}, {"species": [{"element": "S", "occu": 1}], "abc": [0.7940671, 0.6827946, 0.15676602], "xyz": [4.9708211367121, 14.2144138860324, 7.9714110275820005], "label": "S", "properties": {}}, {"species": [{"element": "S", "occu": 1}], "abc": [0.7600283, 0.37662651, 0.25725119], "xyz": [4.7577399166133, 7.84060842542094, 13.080991485429001], "label": "S", "properties": {}}, {"species": [{"element": "S", "occu": 1}], "abc": [0.23921627, 0.78076211, 0.22588457], "xyz": [1.49748212860277, 16.25390092140734, 11.486027088387], "label": "S", "properties": {}}, {"species": [{"element": "S", "occu": 1}], "abc": [0.20768787, 0.47477555, 0.32610503], "xyz": [1.30011588949437, 9.883874551246699, 16.582147280973], "label": "S", "properties": {}}, {"species": [{"element": "S", "occu": 1}], "abc": [0.22726725, 0.65136112, 0.26856837], "xyz": [1.4226818489047501, 13.56003188799328, 13.656459902967], "label": "S", "properties": {}}, {"species": [{"element": "S", "occu": 1}], "abc": [0.20920783, 0.95256279, 0.16731556], "xyz": [1.30963076461633, 19.830446446843258, 8.507845641996001], "label": "S", "properties": {}}, {"species": [{"element": "S", "occu": 1}], "abc": [0.78994984, 0.20451956, 0.31615949], "xyz": [4.94504729085784, 4.25768697296264, 16.076425522959], "label": "S", "properties": {}}, {"species": [{"element": "S", "occu": 1}], "abc": [0.77323354, 0.50618618, 0.21455957000000003], "xyz": [4.84040407195654, 10.53778085812292, 10.910161030887002], "label": "S", "properties": {}}, {"species": [{"element": "S", "occu": 1}], "abc": [0.72639268, 0.00654149, 0.21481656], "xyz": [4.54718258355868, 0.13618069957106, 10.923228741095999], "label": "S", "properties": {}}, {"species": [{"element": "S", "occu": 1}], "abc": [0.73678566, 0.7052775, 0.31480349], "xyz": [4.61224212910266, 14.682462763335, 16.007474143359], "label": "S", "properties": {}}, {"species": [{"element": "S", "occu": 1}], "abc": [0.2627193, 0.4516198, 0.16855995000000001], "xyz": [1.6446099447543, 9.4018182866812, 8.571121753545], "label": "S", "properties": {}}, {"species": [{"element": "S", "occu": 1}], "abc": [0.27070808, 0.15118822, 0.268692], "xyz": [1.6946193161040801, 3.14743545683068, 13.6627463772], "label": "S", "properties": {}}, {"species": [{"element": "S", "occu": 1}], "abc": [0.72342104, 0.02728808, 0.27890507000000003], "xyz": [4.52858026276904, 0.56808308571152, 14.182071794937002], "label": "S", "properties": {}}, {"species": [{"element": "S", "occu": 1}], "abc": [0.72504749, 0.32732133, 0.1787435], "xyz": [4.53876176007299, 6.81417348401202, 9.08894610585], "label": "S", "properties": {}}, {"species": [{"element": "S", "occu": 1}], "abc": [0.2732582, 0.83014346, 0.30472887], "xyz": [1.7105829423482, 17.28192156941924, 15.495188783517], "label": "S", "properties": {}}, {"species": [{"element": "S", "occu": 1}], "abc": [0.27304754, 0.12993524, 0.20459742000000003], "xyz": [1.7092642210705398, 2.70499104670856, 10.403594669322002], "label": "S", "properties": {}}, {"species": [{"element": "S", "occu": 1}], "abc": [0.23335854, 0.63148099, 0.20424242000000004], "xyz": [1.46081302583154, 13.146167460934059, 10.385543238822002], "label": "S", "properties": {}}, {"species": [{"element": "S", "occu": 1}], "abc": [0.2278816, 0.32570091, 0.30575366000000004], "xyz": [1.4265276498016, 6.78043959017454, 15.547298432706002], "label": "S", "properties": {}}, {"species": [{"element": "S", "occu": 1}], "abc": [0.77228339, 0.83171691, 0.17754078], "xyz": [4.83445617951389, 17.31467764207854, 9.027788876298], "label": "S", "properties": {}}, {"species": [{"element": "S", "occu": 1}], "abc": [0.76942729, 0.52596594, 0.27879965], "xyz": [4.81657713346279, 10.949555783124358, 14.176711282815], "label": "S", "properties": {}}, {"species": [{"element": "S", "occu": 1}], "abc": [0.83753163, 0.89004105, 0.34048652], "xyz": [5.24290696475013, 18.528869238653698, 17.313433104132002], "label": "S", "properties": {}}, {"species": [{"element": "S", "occu": 1}], "abc": [0.83035168, 0.19588964, 0.23706087000000003], "xyz": [5.1979608295676805, 4.07802935018216, 12.054331884717001], "label": "S", "properties": {}}, {"species": [{"element": "S", "occu": 1}], "abc": [0.16678585, 0.96171912, 0.24640731999999999], "xyz": [1.04407124849335, 20.02106286984528, 12.529590455411999], "label": "S", "properties": {}}, {"species": [{"element": "S", "occu": 1}], "abc": [0.16629087, 0.65564821, 0.34664059], "xyz": [1.0409726979473701, 13.649280501890738, 17.626362024969], "label": "S", "properties": {}}, {"species": [{"element": "S", "occu": 1}], "abc": [0.33202848, 0.16066664, 0.34499349], "xyz": [2.07848201540448, 3.3447571475201596, 17.542608472359], "label": "S", "properties": {}}, {"species": [{"element": "S", "occu": 1}], "abc": [0.32560893, 0.46470317, 0.24621825000000003], "xyz": [2.03829594696243, 9.67418780484098, 12.519976416075002], "label": "S", "properties": {}}, {"species": [{"element": "S", "occu": 1}], "abc": [0.67501736, 0.69315161, 0.23708973], "xyz": [4.22557559774936, 14.43002605807034, 12.055799389743], "label": "S", "properties": {}}, {"species": [{"element": "S", "occu": 1}], "abc": [0.66603754, 0.39676673, 0.33696319], "xyz": [4.16936236456054, 8.25988740453962, 17.134274944629002], "label": "S", "properties": {}}, {"species": [{"element": "S", "occu": 1}], "abc": [0.25585258, 0.67340954, 0.42504535], "xyz": [1.60162461402358, 14.019035763262758, 21.613173506684998], "label": "S", "properties": {}}, {"species": [{"element": "S", "occu": 1}], "abc": [0.68045399, 0.27372982, 0.45995243], "xyz": [4.25960863515449, 5.69850575038108, 23.388167108313002], "label": "S", "properties": {}}, {"species": [{"element": "S", "occu": 1}], "abc": [0.70728397, 0.5770784, 0.35767996], "xyz": [4.42756299528547, 12.013614668729598, 18.187704054036], "label": "S", "properties": {}}, {"species": [{"element": "S", "occu": 1}], "abc": [0.75966878, 0.07343391, 0.357937], "xyz": [4.75548933902978, 1.52874669777654, 18.2007743067], "label": "S", "properties": {}}, {"species": [{"element": "S", "occu": 1}], "abc": [0.76330771, 0.76534152, 0.46184803999999996], "xyz": [4.77826886252221, 15.93287517131088, 23.484557170764], "label": "S", "properties": {}}, {"species": [{"element": "S", "occu": 1}], "abc": [0.20929924, 0.16862373, 0.42310919], "xyz": [1.31020298673724, 3.51040779939762, 21.514721513229002], "label": "S", "properties": {}}, {"species": [{"element": "S", "occu": 1}], "abc": [0.22606827, 0.05047166, 0.4704375], "xyz": [1.41517629285477, 1.0507187150500399, 23.92132348125], "label": "S", "properties": {}}, {"species": [{"element": "S", "occu": 1}], "abc": [0.2400042, 0.3469815, 0.3698959], "xyz": [1.5024145317942, 7.223458785110999, 18.80887360869], "label": "S", "properties": {}}, {"species": [{"element": "S", "occu": 1}], "abc": [0.80664558, 0.89549167, 0.41928752], "xyz": [5.04956180516658, 18.64234021310998, 21.320393033232], "label": "S", "properties": {}}, {"species": [{"element": "S", "occu": 1}], "abc": [0.73393545, 0.40018027, 0.41686804], "xyz": [4.5943999541629506, 8.33095045977838, 21.197364652764], "label": "S", "properties": {}}, {"species": [{"element": "S", "occu": 1}], "abc": [0.29906465, 0.848077, 0.36877067], "xyz": [1.87213005483215, 17.655261897537997, 18.751656675897003], "label": "S", "properties": {}}, {"species": [{"element": "S", "occu": 1}], "abc": [0.3030679, 0.5458407, 0.46787631999999996], "xyz": [1.8971902036729, 11.363308417555798, 23.791089783311996], "label": "S", "properties": {}}, {"species": [{"element": "S", "occu": 1}], "abc": [0.75091542, 0.41956388, 0.48246081999999996], "xyz": [4.70069373434442, 8.73447833645672, 24.532698482262], "label": "S", "properties": {}}, {"species": [{"element": "S", "occu": 1}], "abc": [0.73199361, 0.72558207, 0.37920905], "xyz": [4.58224413091311, 15.105163179767578, 19.282438904355], "label": "S", "properties": {}}, {"species": [{"element": "S", "occu": 1}], "abc": [0.26372599, 0.52393399, 0.4037748], "xyz": [1.65091177482649, 10.907254660216058, 20.53158518268], "label": "S", "properties": {}}, {"species": [{"element": "S", "occu": 1}], "abc": [0.23598344, 0.01764952, 0.40621208000000003], "xyz": [1.47724477121144, 0.36742760146287995, 20.655518677128], "label": "S", "properties": {}}, {"species": [{"element": "S", "occu": 1}], "abc": [0.76848024, 0.22260475, 0.38000054], "xyz": [4.81064864686824, 4.634184349871499, 19.322685458513998], "label": "S", "properties": {}}, {"species": [{"element": "S", "occu": 1}], "abc": [0.78201095, 0.91666267, 0.48349517000000003], "xyz": [4.89535022846345, 19.08307796408398, 24.585294248847003], "label": "S", "properties": {}}, {"species": [{"element": "S", "occu": 1}], "abc": [0.83541416, 0.58583295, 0.44034442], "xyz": [5.22965170630616, 12.1958668381023, 22.391117447022], "label": "S", "properties": {}}, {"species": [{"element": "S", "occu": 1}], "abc": [0.153437, 0.34098787, 0.44783686000000006], "xyz": [0.960508101587, 7.0986834317327805, 22.772101277826003], "label": "S", "properties": {}}, {"species": [{"element": "S", "occu": 1}], "abc": [0.34779217, 0.85829672, 0.44900265], "xyz": [2.17716194238367, 17.86801596717968, 22.831380650115], "label": "S", "properties": {}}, {"species": [{"element": "S", "occu": 1}], "abc": [0.66339452, 0.09189791, 0.43817668], "xyz": [4.15281718886852, 1.91313013899254, 22.280889818987998], "label": "S", "properties": {}}]}, "formula": "(Li3PS4)20.0", "bandgap": 2.3619, "slab_thickness": 24.580209338847002}