{"miller": "012_0.06", "final_energy": -699.9094524, "gamma": 0.01418686872738869, "work_function": "Not calculated", "ionization_potentail": "Not calculated", "electron_affinity": "Not calculated", "is_stochiometric": true, "incar_parameters": {"SYSTEM": "unknown system", "LCOMPAT": false, "PREC": "normal", "ENMAX": 520.0, "ENAUG": 628.945, "EDIFF": 1e-05, "IALGO": 38, "IWAVPR": 11, "NBANDS": 462, "NBANDSLOW": -1, "NBANDSHIGH": -1, "NELECT": 760.0, "TURBO": 0, "IRESTART": 0, "NREBOOT": 0, "NMIN": 0, "EREF": 0.0, "ISMEAR": 0, "SIGMA": 0.05, "KSPACING": 0.5, "KGAMMA": true, "KBLOWUP": true, "LREAL": true, "ROPT": [-0.0005, -0.0005, -0.0005], "LMAXPAW": -100, "LMAXMIX": 2, "NLSPLINE": false, "ISTART": 0, "ICHARG": 2, "INIWAV": 1, "ISPIN": 1, "LNONCOLLINEAR": false, "MAGMOM": [0.6, 0.6, 0.6, 0.6, 0.6, 0.6, 0.6, 0.6, 0.6, 0.6, 0.6, 0.6, 0.6, 0.6, 0.6, 0.6, 0.6, 0.6, 0.6, 0.6, 0.6, 0.6, 0.6, 0.6, 0.6, 0.6, 0.6, 0.6, 0.6, 0.6, 0.6, 0.6, 0.6, 0.6, 0.6, 0.6, 0.6, 0.6, 0.6, 0.6, 0.6, 0.6, 0.6, 0.6, 0.6, 0.6, 0.6, 0.6, 0.6, 0.6, 0.6, 0.6, 0.6, 0.6, 0.6, 0.6, 0.6, 0.6, 0.6, 0.6, 0.6, 0.6, 0.6, 0.6, 0.6, 0.6, 0.6, 0.6, 0.6, 0.6, 0.6, 0.6, 0.6, 0.6, 0.6, 0.6, 0.6, 0.6, 0.6, 0.6, 0.6, 0.6, 0.6, 0.6, 0.6, 0.6, 0.6, 0.6, 0.6, 0.6, 0.6, 0.6, 0.6, 0.6, 0.6, 0.6, 0.6, 0.6, 0.6, 0.6, 0.6, 0.6, 0.6, 0.6, 0.6, 0.6, 0.6, 0.6, 0.6, 0.6, 0.6, 0.6, 0.6, 0.6, 0.6, 0.6, 0.6, 0.6, 0.6, 0.6, 0.6, 0.6, 0.6, 0.6, 0.6, 0.6, 0.6, 0.6, 0.6, 0.6, 0.6, 0.6, 0.6, 0.6, 0.6, 0.6, 0.6, 0.6, 0.6, 0.6, 0.6, 0.6, 0.6, 0.6, 0.6, 0.6, 0.6, 0.6, 0.6, 0.6, 0.6, 0.6, 0.6, 0.6, 0.6, 0.6, 0.6, 0.6, 0.6, 0.6], "NUPDOWN": -1.0, "LSORBIT": false, "SAXIS": [0.0, 0.0, 1.0], "LSPIRAL": false, "QSPIRAL": [0.0, 0.0, 0.0], "LZEROZ": false, "LASPH": false, "LMETAGGA": false, "NELM": 100, "NELMDL": -5, "NELMIN": 6, "ENINI": 520.0, "LDIAG": true, "LSUBROT": false, "WEIMIN": 0.001, "EBREAK": 1e-08, "DEPER": 0.3, "NRMM": 4, "TIME": 0.4, "AMIX": 0.4, "BMIX": 1.0, "AMIN": 0.1, "AMIX_MAG": 1.6, "BMIX_MAG": 1.0, "IMIX": 4, "MIXFIRST": false, "MAXMIX": -45, "WC": 100.0, "INIMIX": 1, "MIXPRE": 1, "MREMOVE": 5, "LDIPOL": false, "LMONO": false, "IDIPOL": 0, "EPSILON": 1.0, "DIPOL": [-100.0, -100.0, -100.0], "EFIELD": 0.0, "NGX": 36, "NGY": 120, "NGZ": 288, "NGXF": 72, "NGYF": 240, "NGZF": 576, "ADDGRID": false, "NSW": 150, "IBRION": 2, "MDALGO": 0, "ISIF": 2, "PSTRESS": 0.0, "EDIFFG": -0.01, "NFREE": 1, "POTIM": 0.5, "SMASS": -3.0, "SCALEE": 1.0, "TEBEG": 0.0001, "TEEND": 0.0001, "NBLOCK": 1, "KBLOCK": 150, "NPACO": 256, "APACO": 10.0, "ISYM": 0, "SYMPREC": 1e-05, "LORBIT": 11, "RWIGS": [-1.0, -1.0, -1.0], "NEDOS": 301, "EMIN": 10.0, "EMAX": -10.0, "EFERMI": 0.0, "NWRITE": 2, "LWAVE": false, "LDOWNSAMPLE": false, "LCHARG": false, "LPARD": false, "LVTOT": false, "LVHAR": false, "LELF": false, "LOPTICS": false, "STM": [0.0, 0.0, 0.0, 0.0, 0.0, 0.0, 0.0], "NPAR": 2, "NSIM": 4, "NBLK": -1, "LPLANE": true, "LSCALAPACK": true, "LSCAAWARE": false, "LSCALU": false, "LASYNC": false, "LORBITALREAL": false, "IDIOT": 3, "PHON_NSTRUCT": -1, "LMUSIC": false, "POMASS": [7.01, 30.974, 32.066], "DARWINR": [0.0, 0.0, 0.0], "DARWINV": [1.0, 1.0, 1.0], "LCORR": true, "GGA_COMPAT": true, "LBERRY": false, "ICORELEVEL": 0, "LDAU": false, "I_CONSTRAINED_M": 0, "GGA": "--", "VOSKOWN": 0, "LHFCALC": false, "PRECFOCK": "", "LSYMGRAD": false, "LHFONE": false, "LRHFCALC": false, "LTHOMAS": false, "LMODELHF": false, "LFOCKACE": false, "ENCUT4O": -1.0, "EXXOEP": 0, "FOURORBIT": 0, "AEXX": 0.0, "HFALPHA": 0.0, "MCALPHA": 0.0, "ALDAX": 1.0, "AGGAX": 1.0, "ALDAC": 1.0, "AGGAC": 1.0, "NKREDX": 1, "NKREDY": 1, "NKREDZ": 1, "SHIFTRED": false, "ODDONLY": false, "EVENONLY": false, "LMAXFOCK": 0, "NMAXFOCKAE": 0, "LFOCKAEDFT": false, "HFSCREEN": 0.0, "HFSCREENC": 0.0, "NBANDSGWLOW": 0, "LUSE_VDW": false, "Zab_VDW": -0.8491, "PARAM1": 0.1234, "PARAM2": 1.0, "PARAM3": 0.0, "MODEL_GW": 0, "MODEL_EPS0": 24.84988316, "MODEL_ALPHA": 1.0, "LEPSILON": false, "LRPA": false, "LNABLA": false, "LVEL": false, "CSHIFT": 0.1, "OMEGAMAX": -1.0, "DEG_THRESHOLD": 0.002, "RTIME": -0.1, "WPLASMAI": 0.0, "DFIELD": [0.0, 0.0, 0.0], "WPLASMA": [0.0, 0.0, 0.0, 0.0, 0.0, 0.0, 0.0, 0.0, 0.0], "NUCIND": false, "MAGPOS": [0.0, 0.0, 0.0], "LNICSALL": true, "ORBITALMAG": false, "LMAGBLOCH": false, "LCHIMAG": false, "LGAUGE": true, "MAGATOM": 0, "MAGDIPOL": [0.0, 0.0, 0.0], "AVECCONST": [0.0, 0.0, 0.0], "LFINITE_TEMPERATURE": false, "LADDER": false, "LRPAFORCE": false, "LFXC": false, "LHARTREE": true, "IBSE": 0, "KPOINT": [-1, 0, 0, 0], "LTCTC": false, "LTCTE": false, "LTETE": false, "LTRIPLET": false, "LFXCEPS": false, "LFXHEG": false, "NATURALO": 2, "LHOLEGF": false, "L2ORDER": false, "LDMP1": false, "LMP2LT": false, "LSMP2LT": false, "LGWLF": false, "ENCUTGW": -2.0, "ENCUTGWSOFT": -2.0, "ENCUTLF": -1.0, "LESF_SPLINES": false, "LMAXMP2": -1, "SCISSOR": 0.0, "NOMEGA": 0, "NOMEGAR": 0, "NBANDSGW": -1, "NBANDSO": -1, "NBANDSV": -1, "NELMGW": 1, "NELMHF": 1, "DIM": 3, "IESPILON": 4, "ANTIRES": 0, "OMEGAMIN": -30.0, "OMEGATL": -200.0, "OMEGAGRID": 0, "LSELFENERGY": false, "LSPECTRAL": false, "LSPECTRALGW": false, "LSINGLES": false, "LFERMIGW": false, "ODDONLYGW": false, "EVENONLYGW": false, "NKREDLFX": 1, "NKREDLFY": 1, "NKREDLFZ": 1, "MAXMEM": 2800, "TELESCOPE": 0, "NTAUPAR": -1, "NOMEGAPAR": -1, "DAMP_NEWTON": 0.80000001, "LAMBDA": 1.0, "OFIELD_KAPPA": 0.0, "OFIELD_K": [0.0, 0.0, 0.0], "OFIELD_Q6_NEAR": 0.0, "OFIELD_Q6_FAR": 0.0, "OFIELD_A": 0.0, "KPOINTS_OPT_MODE": 1, "LKPOINTS_OPT": false, "@module": "pymatgen.io.vasp.inputs", "@class": "Incar"}, "relaxed_structures": {"@module": "pymatgen.core.structure", "@class": "Structure", "charge": 0, "lattice": {"matrix": [[6.259951, 0.0, 0.0], [0.0, 20.817994, 0.0], [0.0, 0.0, 50.8491]], "a": 6.259951, "b": 20.817994, "c": 50.8491, "alpha": 90.0, "beta": 90.0, "gamma": 90.0, "volume": 6626.6355092591275}, "sites": [{"species": [{"element": "Li", "occu": 1}], "abc": [0.8819388, 0.73333405, 0.07641313000000001], "xyz": [5.5208936729988, 15.266543852895698, 3.8855388886830005], "label": "Li", "properties": {}}, {"species": [{"element": "Li", "occu": 1}], "abc": [0.08193574, 0.31602388, 0.10115748000000001], "xyz": [0.51291371754874, 6.578983237696719, 5.143766816268], "label": "Li", "properties": {}}, {"species": [{"element": "Li", "occu": 1}], "abc": [0.05954285, 0.62790934, 0.007420340000000004], "xyz": [0.37273532340035004, 13.071812872663958, 0.3773176106940002], "label": "Li", "properties": {}}, {"species": [{"element": "Li", "occu": 1}], "abc": [0.41658933, 0.13690196, 0.011723380000000005], "xyz": [2.60782879292283, 2.8500241818682395, 0.5961233219580003], "label": "Li", "properties": {}}, {"species": [{"element": "Li", "occu": 1}], "abc": [0.37667671, 0.81499636, 0.10602906], "xyz": [2.3579777474412102, 16.96658933250184, 5.391482274846], "label": "Li", "properties": {}}, {"species": [{"element": "Li", "occu": 1}], "abc": [0.57703114, 0.23341046, 0.07633156], "xyz": [3.61218666187414, 4.85913755581724, 3.8813911275960002], "label": "Li", "properties": {}}, {"species": [{"element": "Li", "occu": 1}], "abc": [0.62034805, 0.39852764, 0.02517865000000001], "xyz": [3.8833483959455504, 8.29654601835416, 1.2803116917150006], "label": "Li", "properties": {}}, {"species": [{"element": "Li", "occu": 1}], "abc": [0.62868142, 0.09687966, 0.12101154000000001], "xyz": [3.9355148838104204, 2.01684018060204, 6.153327898614001], "label": "Li", "properties": {}}, {"species": [{"element": "Li", "occu": 1}], "abc": [0.42457248, 0.94640429, 0.06226226], "xyz": [2.65780292074848, 19.70223883079426, 3.165979884966], "label": "Li", "properties": {}}, {"species": [{"element": "Li", "occu": 1}], "abc": [0.13545619, 0.44722924, 0.05888816000000001], "xyz": [0.84794911204669, 9.310415634944558, 2.9944099366560004], "label": "Li", "properties": {}}, {"species": [{"element": "Li", "occu": 1}], "abc": [0.91874512, 0.60103943, 0.12175063000000001], "xyz": [5.75129943268912, 12.51243524750342, 6.190909959933], "label": "Li", "properties": {}}, {"species": [{"element": "Li", "occu": 1}], "abc": [0.96586998, 0.91795714, 0.02753163], "xyz": [6.04629874717098, 19.11002623277716, 1.3999586070330001], "label": "Li", "properties": {}}, {"species": [{"element": "Li", "occu": 1}], "abc": [0.43231826, 0.35284574, 0.14377563], "xyz": [2.70629112400526, 7.34554049824556, 7.3108613874329995], "label": "Li", "properties": {}}, {"species": [{"element": "Li", "occu": 1}], "abc": [0.43449116, 0.64962687, 0.04755611000000001], "xyz": [2.71989337153316, 13.523928281898778, 2.4181853930010004], "label": "Li", "properties": {}}, {"species": [{"element": "Li", "occu": 1}], "abc": [0.93998927, 0.1968534, 0.03223146], "xyz": [5.88428677072577, 4.0980929000796, 1.6389407326860002], "label": "Li", "properties": {}}, {"species": [{"element": "Li", "occu": 1}], "abc": [0.93979625, 0.8884842, 0.13802125999999998], "xyz": [5.88307847498375, 18.4964587446948, 7.018256851865999], "label": "Li", "properties": {}}, {"species": [{"element": "Li", "occu": 1}], "abc": [0.07433002, 0.04419986, 0.08440677], "xyz": [0.46530228302902, 0.92015242028084, 4.2920082884070005], "label": "Li", "properties": {}}, {"species": [{"element": "Li", "occu": 1}], "abc": [0.569022, 0.5078174, 0.09888793], "xyz": [3.5620498379220003, 10.5717395862956, 5.028362241363], "label": "Li", "properties": {}}, {"species": [{"element": "Li", "occu": 1}], "abc": [0.56933727, 0.7916876, 0.004570930000000008], "xyz": [3.56402341267377, 16.4813477066744, 0.2324276766630004], "label": "Li", "properties": {}}, {"species": [{"element": "Li", "occu": 1}], "abc": [0.89076161, 0.12502897, 0.27948765], "xyz": [5.57612403128111, 2.6028523472861798, 14.211695463615], "label": "Li", "properties": {}}, {"species": [{"element": "Li", "occu": 1}], "abc": [0.87865372, 0.42721691, 0.17724552999999998], "xyz": [5.50032923316772, 8.89379906907854, 9.012775679523], "label": "Li", "properties": {}}, {"species": [{"element": "Li", "occu": 1}], "abc": [0.12407488, 0.70813843, 0.30649345], "xyz": [0.77670266913088, 14.742021586909418, 15.584916088395], "label": "Li", "properties": {}}, {"species": [{"element": "Li", "occu": 1}], "abc": [0.11504158, 0.01127127, 0.20532383999999998], "xyz": [0.72015465376258, 0.23464523123237999, 10.440532472544], "label": "Li", "properties": {}}, {"species": [{"element": "Li", "occu": 1}], "abc": [0.40576607, 0.51259236, 0.20394252000000002], "xyz": [2.54007571566257, 10.671144674925838, 10.370293593732], "label": "Li", "properties": {}}, {"species": [{"element": "Li", "occu": 1}], "abc": [0.40829289, 0.21064385, 0.30446523999999997], "xyz": [2.55589348504839, 4.3851824054368995, 15.481783435284], "label": "Li", "properties": {}}, {"species": [{"element": "Li", "occu": 1}], "abc": [0.59422214, 0.9267222, 0.17909824000000002], "xyz": [3.71980147951514, 19.2924971992668, 9.106984315584], "label": "Li", "properties": {}}, {"species": [{"element": "Li", "occu": 1}], "abc": [0.62025894, 0.62560447, 0.27731984], "xyz": [3.8827905717119404, 13.023830102833179, 14.101464276143998], "label": "Li", "properties": {}}, {"species": [{"element": "Li", "occu": 1}], "abc": [0.61106833, 0.79489715, 0.22115512999999998], "xyz": [3.8252578034518305, 16.5481640993171, 11.245539320883], "label": "Li", "properties": {}}, {"species": [{"element": "Li", "occu": 1}], "abc": [0.57842508, 0.49687972, 0.3220384], "xyz": [3.6209126579710804, 10.34403902968168, 16.375362805440002], "label": "Li", "properties": {}}, {"species": [{"element": "Li", "occu": 1}], "abc": [0.40732304, 0.64123677, 0.16195613000000003], "xyz": [2.54982227157104, 13.34926323043938, 8.235323449983001], "label": "Li", "properties": {}}, {"species": [{"element": "Li", "occu": 1}], "abc": [0.3725143, 0.34333673, 0.26214565], "xyz": [2.3319212647993, 7.147581985119619, 13.329870371415], "label": "Li", "properties": {}}, {"species": [{"element": "Li", "occu": 1}], "abc": [0.09117998, 0.83748935, 0.26194518], "xyz": [0.5707822069809799, 17.4348482633639, 13.319676652338], "label": "Li", "properties": {}}, {"species": [{"element": "Li", "occu": 1}], "abc": [0.12430665, 0.14693674, 0.16087954999999998], "xyz": [0.77815353797415, 3.05892817169956, 8.180580325905], "label": "Li", "properties": {}}, {"species": [{"element": "Li", "occu": 1}], "abc": [0.87761686, 0.98856941, 0.32239207], "xyz": [5.4938385403738605, 20.580032045963538, 16.393346606637], "label": "Li", "properties": {}}, {"species": [{"element": "Li", "occu": 1}], "abc": [0.89868885, 0.29850734, 0.22186051], "xyz": [5.62574816524635, 6.21432401307596, 11.281407259041], "label": "Li", "properties": {}}, {"species": [{"element": "Li", "occu": 1}], "abc": [0.5694325, 0.783444, 0.33917128], "xyz": [3.5646195478075002, 16.309732491336, 17.246554333848], "label": "Li", "properties": {}}, {"species": [{"element": "Li", "occu": 1}], "abc": [0.52717919, 0.07515504, 0.2412068], "xyz": [3.30011589761969, 1.56457717178976, 12.26514869388], "label": "Li", "properties": {}}, {"species": [{"element": "Li", "occu": 1}], "abc": [0.05093953, 0.55456161, 0.24397669], "xyz": [0.31887896176303, 11.54486026961034, 12.405995107478999], "label": "Li", "properties": {}}, {"species": [{"element": "Li", "occu": 1}], "abc": [0.06401616, 0.24611377, 0.34637786], "xyz": [0.40073802480816, 5.12359498717738, 17.613002440926], "label": "Li", "properties": {}}, {"species": [{"element": "Li", "occu": 1}], "abc": [0.03865343, 0.72614498, 0.18788522000000002], "xyz": [0.24196857778193, 15.116881836770121, 9.553794340302002], "label": "Li", "properties": {}}, {"species": [{"element": "Li", "occu": 1}], "abc": [0.93184549, 0.40545826, 0.29809573], "xyz": [5.833307106970991, 8.44082762393044, 15.157899584343], "label": "Li", "properties": {}}, {"species": [{"element": "Li", "occu": 1}], "abc": [0.44322738, 0.92511098, 0.28663112], "xyz": [2.77458168065838, 19.25895483097412, 14.574934483992001], "label": "Li", "properties": {}}, {"species": [{"element": "Li", "occu": 1}], "abc": [0.54990588, 0.21263103, 0.19614234000000003], "xyz": [3.4423838634118797, 4.42655150675382, 9.973661460894002], "label": "Li", "properties": {}}, {"species": [{"element": "Li", "occu": 1}], "abc": [0.93752363, 0.50827208, 0.47655354999999994], "xyz": [5.868851985142131, 10.58120511180752, 24.232319119304996], "label": "Li", "properties": {}}, {"species": [{"element": "Li", "occu": 1}], "abc": [0.92130158, 0.81970383, 0.38224508], "xyz": [5.76730274702258, 17.06458941471702, 19.436818297428], "label": "Li", "properties": {}}, {"species": [{"element": "Li", "occu": 1}], "abc": [0.11713803, 0.40300604, 0.4079042], "xyz": [0.73327832803653, 8.38977732268376, 20.74156145622], "label": "Li", "properties": {}}, {"species": [{"element": "Li", "occu": 1}], "abc": [0.42806702, 0.90146425, 0.40717059], "xyz": [2.67967856991602, 18.7666773477145, 20.704258047969], "label": "Li", "properties": {}}, {"species": [{"element": "Li", "occu": 1}], "abc": [0.62102781, 0.32122378, 0.37758551], "xyz": [3.8876036602373096, 6.68723472469732, 19.199883356541], "label": "Li", "properties": {}}, {"species": [{"element": "Li", "occu": 1}], "abc": [0.58423919, 0.99898156, 0.47218694], "xyz": [3.6573087016796904, 20.796792122190638, 24.010280930754], "label": "Li", "properties": {}}, {"species": [{"element": "Li", "occu": 1}], "abc": [0.57341016, 0.18918356, 0.42119154], "xyz": [3.58951950450216, 3.9384222169786396, 21.417210736614], "label": "Li", "properties": {}}, {"species": [{"element": "Li", "occu": 1}], "abc": [0.3743751, 0.03913427, 0.36260803999999996], "xyz": [2.3435697816201, 0.8146969980543799, 18.438292486764], "label": "Li", "properties": {}}, {"species": [{"element": "Li", "occu": 1}], "abc": [0.3807378, 0.73680662, 0.45836852999999994], "xyz": [2.3833999718478003, 15.338835794320278, 23.307627218822997], "label": "Li", "properties": {}}, {"species": [{"element": "Li", "occu": 1}], "abc": [0.02793034, 0.21668248, 0.45507563], "xyz": [0.17484255981334001, 4.51089456854512, 23.140186217433], "label": "Li", "properties": {}}, {"species": [{"element": "Li", "occu": 1}], "abc": [0.08187103, 0.53355908, 0.36264872], "xyz": [0.51250863611953, 11.107629726085518, 18.440361028151997], "label": "Li", "properties": {}}, {"species": [{"element": "Li", "occu": 1}], "abc": [0.86133414, 0.68811276, 0.42461269], "xyz": [5.39190951102714, 14.325127309003438, 21.591173135079], "label": "Li", "properties": {}}, {"species": [{"element": "Li", "occu": 1}], "abc": [0.56332915, 0.48592276, 0.43651578], "xyz": [3.5264128758716495, 10.11593710214344, 22.196434548798003], "label": "Li", "properties": {}}, {"species": [{"element": "Li", "occu": 1}], "abc": [0.06148593, 0.93806411, 0.45142606], "xyz": [0.38489890898943, 19.52861301359534, 22.954608867546], "label": "Li", "properties": {}}, {"species": [{"element": "Li", "occu": 1}], "abc": [0.9252482, 0.09010369, 0.39929789], "xyz": [5.7920083948381995, 1.8757780777978599, 20.303938338399], "label": "Li", "properties": {}}, {"species": [{"element": "Li", "occu": 1}], "abc": [0.42829479, 0.34253394, 0.47983994999999996], "xyz": [2.68110439895529, 7.130869507716359, 24.399429601545], "label": "Li", "properties": {}}, {"species": [{"element": "Li", "occu": 1}], "abc": [0.43119815, 0.6286952, 0.38464681], "xyz": [2.69927929029065, 13.0881729014288, 19.558944106371], "label": "Li", "properties": {}}, {"species": [{"element": "P", "occu": 1}], "abc": [0.16176015, 0.48151975, 0.13388745000000002], "xyz": [1.01261061275265, 10.0242752663815, 6.808056333795001], "label": "P", "properties": {}}, {"species": [{"element": "P", "occu": 1}], "abc": [0.17234607, 0.78724984, 0.03193221], "xyz": [1.0788779532425699, 16.388962445620958, 1.623724139511], "label": "P", "properties": {}}, {"species": [{"element": "P", "occu": 1}], "abc": [0.83998043, 0.56507781, 0.04859980000000001], "xyz": [5.25823633275893, 11.76378645811314, 2.4712560901800007], "label": "P", "properties": {}}, {"species": [{"element": "P", "occu": 1}], "abc": [0.84066035, 0.26043788, 0.14796873], "xyz": [5.26249259864285, 5.42179422321272, 7.524076748643], "label": "P", "properties": {}}, {"species": [{"element": "P", "occu": 1}], "abc": [0.65727097, 0.75980808, 0.14829834000000003], "xyz": [4.11448406592247, 15.81768005059152, 7.540837120494001], "label": "P", "properties": {}}, {"species": [{"element": "P", "occu": 1}], "abc": [0.66899936, 0.06548459, 0.048926700000000004], "xyz": [4.18790321263136, 1.36325780171246, 2.4878786609700003], "label": "P", "properties": {}}, {"species": [{"element": "P", "occu": 1}], "abc": [0.32901749, 0.28801588, 0.02987658], "xyz": [2.0596333655429904, 5.99591286174472, 1.519197204078], "label": "P", "properties": {}}, {"species": [{"element": "P", "occu": 1}], "abc": [0.34713709, 0.98198488, 0.13435215], "xyz": [2.1730611736825898, 20.442955339930716, 6.8316859105650005], "label": "P", "properties": {}}, {"species": [{"element": "P", "occu": 1}], "abc": [0.16114405, 0.87541892, 0.33571112999999997], "xyz": [1.0087538569415502, 18.22446582404648, 17.070608820483], "label": "P", "properties": {}}, {"species": [{"element": "P", "occu": 1}], "abc": [0.15755024, 0.17950574, 0.23444521000000001], "xyz": [0.9862567824382401, 3.7369494182855596, 11.921327927811001], "label": "P", "properties": {}}, {"species": [{"element": "P", "occu": 1}], "abc": [0.84126105, 0.95686319, 0.24923473000000002], "xyz": [5.26625295120855, 19.91997214824086, 12.673361709243], "label": "P", "properties": {}}, {"species": [{"element": "P", "occu": 1}], "abc": [0.83904981, 0.65382267, 0.34966843], "xyz": [5.25241069715931, 13.61127642112398, 17.780324963913], "label": "P", "properties": {}}, {"species": [{"element": "P", "occu": 1}], "abc": [0.65313835, 0.15469527, 0.3493391], "xyz": [4.08861406722085, 3.2204452026883796, 17.76357882981], "label": "P", "properties": {}}, {"species": [{"element": "P", "occu": 1}], "abc": [0.65272656, 0.45725309, 0.24902114999999997], "xyz": [4.08603628199856, 9.519092084101459, 12.662501358464999], "label": "P", "properties": {}}, {"species": [{"element": "P", "occu": 1}], "abc": [0.34831724, 0.6791123, 0.23450928999999998], "xyz": [2.1804488548552396, 14.1377557867262, 11.924586338139], "label": "P", "properties": {}}, {"species": [{"element": "P", "occu": 1}], "abc": [0.33553633, 0.37665378, 0.33545663], "xyz": [2.10044098451983, 7.84117613211732, 17.057667724532998], "label": "P", "properties": {}}, {"species": [{"element": "P", "occu": 1}], "abc": [0.15898387, 0.57083748, 0.43526676999999997], "xyz": [0.99523123599037, 11.883691233615119, 22.132923514406997], "label": "P", "properties": {}}, {"species": [{"element": "P", "occu": 1}], "abc": [0.82419981, 0.34829627, 0.45197007], "xyz": [5.15945042480931, 7.25082965908238, 22.982271286437], "label": "P", "properties": {}}, {"species": [{"element": "P", "occu": 1}], "abc": [0.6723956, 0.84726998, 0.45385676999999996], "xyz": [4.2091635086156, 17.63846136002012, 23.078208283406997], "label": "P", "properties": {}}, {"species": [{"element": "P", "occu": 1}], "abc": [0.33164235, 0.06972326, 0.43450639], "xyz": [2.0760648605248497, 1.4514984083404399, 22.094258875749002], "label": "P", "properties": {}}, {"species": [{"element": "S", "occu": 1}], "abc": [0.29536828, 0.56944391, 0.12559275000000003], "xyz": [1.84899095975428, 11.85467990171654, 6.3862783040250015], "label": "S", "properties": {}}, {"species": [{"element": "S", "occu": 1}], "abc": [0.32499503, 0.87322875, 0.02380362000000001], "xyz": [2.03445296304353, 18.178870878127498, 1.2103926537420007], "label": "S", "properties": {}}, {"species": [{"element": "S", "occu": 1}], "abc": [0.74624027, 0.47352187, 0.05844262], "xyz": [4.67142752442677, 9.85777544852878, 2.971754628642], "label": "S", "properties": {}}, {"species": [{"element": "S", "occu": 1}], "abc": [0.79520738, 0.97791436, 0.06051706000000001], "xyz": [4.97795923363838, 20.35821527899384, 3.0772380356460007], "label": "S", "properties": {}}, {"species": [{"element": "S", "occu": 1}], "abc": [0.24385642, 0.38133626, 0.02192854000000001], "xyz": [1.52652924023542, 7.938655972662439, 1.1150465233140006], "label": "S", "properties": {}}, {"species": [{"element": "S", "occu": 1}], "abc": [0.24399992, 0.07366996, 0.12589743000000003], "xyz": [1.5274275432039202, 1.53366078526024, 6.401771007813002], "label": "S", "properties": {}}, {"species": [{"element": "S", "occu": 1}], "abc": [0.19973018, 0.25077997, 0.06434035], "xyz": [1.25030114002118, 5.2207359107801805, 3.2716488911850004], "label": "S", "properties": {}}, {"species": [{"element": "S", "occu": 1}], "abc": [0.76248073, 0.80019884, 0.11345787], "xyz": [4.77309200824423, 16.65853464992696, 5.769230577417], "label": "S", "properties": {}}, {"species": [{"element": "S", "occu": 1}], "abc": [0.77956871, 0.09639483, 0.01353900000000001], "xyz": [4.8800619257332105, 2.0067469925710197, 0.6884459649000004], "label": "S", "properties": {}}, {"species": [{"element": "S", "occu": 1}], "abc": [0.69769388, 0.60090331, 0.015525920000000006], "xyz": [4.36752950179988, 12.50960150216014, 0.7894790586720003], "label": "S", "properties": {}}, {"species": [{"element": "S", "occu": 1}], "abc": [0.70632789, 0.29927467, 0.11477959], "xyz": [4.42157798133339, 6.23029828441198, 5.836438849869], "label": "S", "properties": {}}, {"species": [{"element": "S", "occu": 1}], "abc": [0.26921941, 0.74667097, 0.06676775], "xyz": [1.6853003148489099, 15.54419177343418, 3.3950799965250003], "label": "S", "properties": {}}, {"species": [{"element": "S", "occu": 1}], "abc": [0.73846875, 0.62328602, 0.07953942000000001], "xyz": [4.62277819003125, 12.975564624643878, 4.044507921522], "label": "S", "properties": {}}, {"species": [{"element": "S", "occu": 1}], "abc": [0.27141202, 0.42104964, 0.10422186000000001], "xyz": [1.69902594601102, 8.765408879222159, 5.299587781326001], "label": "S", "properties": {}}, {"species": [{"element": "S", "occu": 1}], "abc": [0.25228571, 0.72747916, 0.0012063400000000071], "xyz": [1.57929618260021, 15.14465678800504, 0.061341303294000366], "label": "S", "properties": {}}, {"species": [{"element": "S", "occu": 1}], "abc": [0.22426059, 0.23028283, 0.00010000000000000286], "xyz": [1.40386030463109, 4.79402657324302, 0.0050849100000001455], "label": "S", "properties": {}}, {"species": [{"element": "S", "occu": 1}], "abc": [0.23419157, 0.92479286, 0.10369194], "xyz": [1.4660277528130699, 19.25233221072284, 5.272641826254], "label": "S", "properties": {}}, {"species": [{"element": "S", "occu": 1}], "abc": [0.7700159, 0.12874361, 0.07787035], "xyz": [4.8202618032209, 2.68018370051834, 3.9596372141850003], "label": "S", "properties": {}}, {"species": [{"element": "S", "occu": 1}], "abc": [0.83649006, 0.49094695, 0.13675656000000003], "xyz": [5.23638678758706, 10.2205306594183, 6.9539479950960015], "label": "S", "properties": {}}, {"species": [{"element": "S", "occu": 1}], "abc": [0.85075123, 0.80654926, 0.03572573000000001], "xyz": [5.3256610129897295, 16.79073765538444, 1.8166212173430005], "label": "S", "properties": {}}, {"species": [{"element": "S", "occu": 1}], "abc": [0.16565535, 0.56091913, 0.04287098], "xyz": [1.03699437388785, 11.67721108282522, 2.1799507491180004], "label": "S", "properties": {}}, {"species": [{"element": "S", "occu": 1}], "abc": [0.16553551, 0.25688132, 0.14351271], "xyz": [1.03624418136001, 5.3477537784720806, 7.2974921420609995], "label": "S", "properties": {}}, {"species": [{"element": "S", "occu": 1}], "abc": [0.33222224, 0.75168473, 0.14632411], "xyz": [2.07969494351024, 15.648568199031619, 7.440449301801], "label": "S", "properties": {}}, {"species": [{"element": "S", "occu": 1}], "abc": [0.34160103, 0.05566799, 0.04587503000000001], "xyz": [2.1384057093495303, 1.15889588181206, 2.3327039879730007], "label": "S", "properties": {}}, {"species": [{"element": "S", "occu": 1}], "abc": [0.65883687, 0.28776484, 0.03480195000000001], "xyz": [4.12428652319337, 5.99068671253096, 1.7696478357450005], "label": "S", "properties": {}}, {"species": [{"element": "S", "occu": 1}], "abc": [0.67230888, 0.98603176, 0.13830695999999998], "xyz": [4.20862064566488, 20.52720326348944, 7.032784439735999], "label": "S", "properties": {}}, {"species": [{"element": "S", "occu": 1}], "abc": [0.26311935, 0.96682688, 0.32654869999999997], "xyz": [1.6471142381518498, 20.12739618687872, 16.604707501169997], "label": "S", "properties": {}}, {"species": [{"element": "S", "occu": 1}], "abc": [0.27662948, 0.26882154, 0.22575977999999997], "xyz": [1.7316869899554799, 5.59632520679076, 11.479681629197998], "label": "S", "properties": {}}, {"species": [{"element": "S", "occu": 1}], "abc": [0.71424266, 0.86846928, 0.25773628], "xyz": [4.47112405370966, 18.07978826022432, 13.105657875348], "label": "S", "properties": {}}, {"species": [{"element": "S", "occu": 1}], "abc": [0.73900982, 0.16907864, 0.15721675000000002], "xyz": [4.62616526171882, 3.51987811304816, 7.994330242425001], "label": "S", "properties": {}}, {"species": [{"element": "S", "occu": 1}], "abc": [0.78662052, 0.6716066, 0.15685124], "xyz": [4.92420591079452, 13.9815021691604, 7.975744387884], "label": "S", "properties": {}}, {"species": [{"element": "S", "occu": 1}], "abc": [0.75662141, 0.36553224, 0.25776309], "xyz": [4.736412952150911, 7.60964797912656, 13.107021139718999], "label": "S", "properties": {}}, {"species": [{"element": "S", "occu": 1}], "abc": [0.22806888, 0.76928768, 0.2262902], "xyz": [1.42770001342488, 16.01502630651392, 11.506653008819999], "label": "S", "properties": {}}, {"species": [{"element": "S", "occu": 1}], "abc": [0.20210942, 0.46407498, 0.32682668], "xyz": [1.2651950658384201, 9.66111014919012, 16.618842533987998], "label": "S", "properties": {}}, {"species": [{"element": "S", "occu": 1}], "abc": [0.23420583, 0.63971378, 0.26898038], "xyz": [1.46611701971433, 13.31755763375732, 13.677410240658], "label": "S", "properties": {}}, {"species": [{"element": "S", "occu": 1}], "abc": [0.21538548, 0.942544, 0.16763793], "xyz": [1.3483025509114799, 19.621875336736, 8.524237866363], "label": "S", "properties": {}}, {"species": [{"element": "S", "occu": 1}], "abc": [0.78540907, 0.19490084, 0.31624212], "xyz": [4.91662229315557, 4.057444517714959, 16.080627184092002], "label": "S", "properties": {}}, {"species": [{"element": "S", "occu": 1}], "abc": [0.78354941, 0.49554912, 0.21548805999999998], "xyz": [4.90498091267891, 10.31633860686528, 10.957373911745998], "label": "S", "properties": {}}, {"species": [{"element": "S", "occu": 1}], "abc": [0.73238761, 0.99670658, 0.21463499999999996], "xyz": [4.58471055160711, 20.74943160220052, 10.913996578499999], "label": "S", "properties": {}}, {"species": [{"element": "S", "occu": 1}], "abc": [0.73653853, 0.69389109, 0.31489169], "xyz": [4.61069510741203, 14.44542054827346, 16.011959033979], "label": "S", "properties": {}}, {"species": [{"element": "S", "occu": 1}], "abc": [0.26540694, 0.44167127, 0.16868274], "xyz": [1.6614344394599398, 9.19470984883238, 8.577365514534], "label": "S", "properties": {}}, {"species": [{"element": "S", "occu": 1}], "abc": [0.27184222, 0.14040778, 0.26882143999999997], "xyz": [1.7017189769312202, 2.9230083215933202, 13.669328284704], "label": "S", "properties": {}}, {"species": [{"element": "S", "occu": 1}], "abc": [0.7251505, 0.01720475, 0.27884415], "xyz": [4.5394065976255, 0.3581683822715, 14.178974067765001], "label": "S", "properties": {}}, {"species": [{"element": "S", "occu": 1}], "abc": [0.72725984, 0.31756437, 0.17879446], "xyz": [4.55261096266784, 6.611053149273779, 9.091537375985999], "label": "S", "properties": {}}, {"species": [{"element": "S", "occu": 1}], "abc": [0.27112952, 0.81843542, 0.30473603], "xyz": [1.69725750985352, 17.03818366294748, 15.495552863073], "label": "S", "properties": {}}, {"species": [{"element": "S", "occu": 1}], "abc": [0.27624263, 0.12016504, 0.20474994000000002], "xyz": [1.7292653279111299, 2.50159508172976, 10.411350174054], "label": "S", "properties": {}}, {"species": [{"element": "S", "occu": 1}], "abc": [0.2308006, 0.6197679, 0.20460614], "xyz": [1.4448004467706, 12.9023244235926, 10.404038073474], "label": "S", "properties": {}}, {"species": [{"element": "S", "occu": 1}], "abc": [0.22345053, 0.31540121, 0.30615282], "xyz": [1.39878936872403, 6.566020497372739, 15.567595359462], "label": "S", "properties": {}}, {"species": [{"element": "S", "occu": 1}], "abc": [0.77222443, 0.82073018, 0.17761019], "xyz": [4.83408709280293, 17.085955962858918, 9.031318312329], "label": "S", "properties": {}}, {"species": [{"element": "S", "occu": 1}], "abc": [0.76651671, 0.51448279, 0.27959147], "xyz": [4.79835704528121, 10.71049963532326, 14.216974617177], "label": "S", "properties": {}}, {"species": [{"element": "S", "occu": 1}], "abc": [0.83625793, 0.8793138, 0.34040803], "xyz": [5.234933665161431, 18.3055494125172, 17.309441958273], "label": "S", "properties": {}}, {"species": [{"element": "S", "occu": 1}], "abc": [0.82995655, 0.18482758, 0.23717242], "xyz": [5.19548733512905, 3.84773945147452, 12.060004101821999], "label": "S", "properties": {}}, {"species": [{"element": "S", "occu": 1}], "abc": [0.16695143, 0.94996836, 0.24683392999999998], "xyz": [1.0451077711799301, 19.776435618669836, 12.551283189963], "label": "S", "properties": {}}, {"species": [{"element": "S", "occu": 1}], "abc": [0.16411498, 0.64335966, 0.34684251], "xyz": [1.02735173316598, 13.39345754172204, 17.636629475241], "label": "S", "properties": {}}, {"species": [{"element": "S", "occu": 1}], "abc": [0.32828124, 0.14996367, 0.34510089], "xyz": [2.05502447661924, 3.1219427822779795, 17.548069665699], "label": "S", "properties": {}}, {"species": [{"element": "S", "occu": 1}], "abc": [0.32720345, 0.45372788, 0.24530738000000002], "xyz": [2.04827756403095, 9.445704283472718, 12.473659496358001], "label": "S", "properties": {}}, {"species": [{"element": "S", "occu": 1}], "abc": [0.67195919, 0.68454758, 0.23627682], "xyz": [4.2064316033996905, 14.25090741315452, 12.014463647862], "label": "S", "properties": {}}, {"species": [{"element": "S", "occu": 1}], "abc": [0.66075361, 0.38592858, 0.33768524], "xyz": [4.13628522167311, 8.03425886286852, 17.170990537284], "label": "S", "properties": {}}, {"species": [{"element": "S", "occu": 1}], "abc": [0.25170192, 0.66236031, 0.42522212], "xyz": [1.5756416858059201, 13.789012959418137, 21.622162102092], "label": "S", "properties": {}}, {"species": [{"element": "S", "occu": 1}], "abc": [0.67090921, 0.26221168, 0.45981504], "xyz": [4.19985878004871, 5.45872118096992, 23.381180950464], "label": "S", "properties": {}}, {"species": [{"element": "S", "occu": 1}], "abc": [0.70449926, 0.56608179, 0.35824672], "xyz": [4.4101308471362595, 11.78468730772926, 18.216523289952], "label": "S", "properties": {}}, {"species": [{"element": "S", "occu": 1}], "abc": [0.75791795, 0.06304736, 0.35745424], "xyz": [4.74452922902045, 1.3125195621958399, 18.176226395184], "label": "S", "properties": {}}, {"species": [{"element": "S", "occu": 1}], "abc": [0.75653071, 0.75390299, 0.46185426999999996], "xyz": [4.735845174595211, 15.69474792240206, 23.484873960656998], "label": "S", "properties": {}}, {"species": [{"element": "S", "occu": 1}], "abc": [0.20396139, 0.15688854, 0.42255737], "xyz": [1.27678830729189, 3.26610468438876, 21.486661962867], "label": "S", "properties": {}}, {"species": [{"element": "S", "occu": 1}], "abc": [0.22018988, 0.03919061, 0.46990638], "xyz": [1.37837785949588, 0.81586988383634, 23.894316507258], "label": "S", "properties": {}}, {"species": [{"element": "S", "occu": 1}], "abc": [0.23380367, 0.33618161, 0.37040047], "xyz": [1.46359951782017, 6.99862673989034, 18.834530539077], "label": "S", "properties": {}}, {"species": [{"element": "S", "occu": 1}], "abc": [0.80365492, 0.88415931, 0.41944228], "xyz": [5.0308404201089205, 18.40642321062414, 21.328262439948], "label": "S", "properties": {}}, {"species": [{"element": "S", "occu": 1}], "abc": [0.7292317, 0.38927731, 0.41712581], "xyz": [4.564954709646701, 8.103972703916138, 21.210472025271], "label": "S", "properties": {}}, {"species": [{"element": "S", "occu": 1}], "abc": [0.2969193, 0.83629434, 0.36876776], "xyz": [1.8587002689543, 17.40997055235396, 18.751508705016], "label": "S", "properties": {}}, {"species": [{"element": "S", "occu": 1}], "abc": [0.30007361, 0.53537289, 0.46847279000000003], "xyz": [1.8784460949931099, 11.14538961178266, 23.821419745989], "label": "S", "properties": {}}, {"species": [{"element": "S", "occu": 1}], "abc": [0.74327116, 0.40808087, 0.48264685], "xyz": [4.6528410413131605, 8.49542510317478, 24.542157940335002], "label": "S", "properties": {}}, {"species": [{"element": "S", "occu": 1}], "abc": [0.73032136, 0.71476363, 0.37922668], "xyz": [4.57177592785336, 14.879944960758218, 19.283335373988], "label": "S", "properties": {}}, {"species": [{"element": "S", "occu": 1}], "abc": [0.26301402, 0.51235799, 0.40452199], "xyz": [1.64645487751302, 10.666265561672061, 20.569579121709], "label": "S", "properties": {}}, {"species": [{"element": "S", "occu": 1}], "abc": [0.23307253, 0.00618665, 0.40558314], "xyz": [1.45902261724603, 0.12879364258009998, 20.623537644174], "label": "S", "properties": {}}, {"species": [{"element": "S", "occu": 1}], "abc": [0.76389156, 0.21179671, 0.3801155], "xyz": [4.78192373491356, 4.40918263799974, 19.32853107105], "label": "S", "properties": {}}, {"species": [{"element": "S", "occu": 1}], "abc": [0.77653805, 0.90527819, 0.48360962999999996], "xyz": [4.8610901426355495, 18.84607592775086, 24.591114436833], "label": "S", "properties": {}}, {"species": [{"element": "S", "occu": 1}], "abc": [0.83302723, 0.5745436, 0.4407534], "xyz": [5.21470964146573, 11.9608452175384, 22.411913711940002], "label": "S", "properties": {}}, {"species": [{"element": "S", "occu": 1}], "abc": [0.14588812, 0.32869058, 0.44841977], "xyz": [0.9132524826821201, 6.84267852229652, 22.801741726707], "label": "S", "properties": {}}, {"species": [{"element": "S", "occu": 1}], "abc": [0.34307857, 0.84773051, 0.44873902], "xyz": [2.14765503735007, 17.64804867079694, 22.817975301882], "label": "S", "properties": {}}, {"species": [{"element": "S", "occu": 1}], "abc": [0.65868457, 0.08038119, 0.43786756], "xyz": [4.12333313265607, 1.67337513113286, 22.265171345196], "label": "S", "properties": {}}]}, "formula": "(Li3PS4)20.0", "bandgap": 2.3752, "slab_thickness": 24.586029526833}