{"miller": "100_0.14", "final_energy": -487.76418875, "gamma": 0.02248674209862104, "work_function": "Not calculated", "ionization_potentail": "Not calculated", "electron_affinity": "Not calculated", "is_stochiometric": true, "incar_parameters": {"SYSTEM": "unknown system", "LCOMPAT": false, "PREC": "normal", "ENMAX": 520.0, "ENAUG": 628.945, "EDIFF": 1e-05, "IALGO": 38, "IWAVPR": 11, "NBANDS": 324, "NBANDSLOW": -1, "NBANDSHIGH": -1, "NELECT": 532.0, "TURBO": 0, "IRESTART": 0, "NREBOOT": 0, "NMIN": 0, "EREF": 0.0, "ISMEAR": 0, "SIGMA": 0.05, "KSPACING": 0.5, "KGAMMA": true, "KBLOWUP": true, "LREAL": true, "ROPT": [-0.0005, -0.0005, -0.0005], "LMAXPAW": -100, "LMAXMIX": 2, "NLSPLINE": false, "ISTART": 0, "ICHARG": 2, "INIWAV": 1, "ISPIN": 1, "LNONCOLLINEAR": false, "MAGMOM": [0.6, 0.6, 0.6, 0.6, 0.6, 0.6, 0.6, 0.6, 0.6, 0.6, 0.6, 0.6, 0.6, 0.6, 0.6, 0.6, 0.6, 0.6, 0.6, 0.6, 0.6, 0.6, 0.6, 0.6, 0.6, 0.6, 0.6, 0.6, 0.6, 0.6, 0.6, 0.6, 0.6, 0.6, 0.6, 0.6, 0.6, 0.6, 0.6, 0.6, 0.6, 0.6, 0.6, 0.6, 0.6, 0.6, 0.6, 0.6, 0.6, 0.6, 0.6, 0.6, 0.6, 0.6, 0.6, 0.6, 0.6, 0.6, 0.6, 0.6, 0.6, 0.6, 0.6, 0.6, 0.6, 0.6, 0.6, 0.6, 0.6, 0.6, 0.6, 0.6, 0.6, 0.6, 0.6, 0.6, 0.6, 0.6, 0.6, 0.6, 0.6, 0.6, 0.6, 0.6, 0.6, 0.6, 0.6, 0.6, 0.6, 0.6, 0.6, 0.6, 0.6, 0.6, 0.6, 0.6, 0.6, 0.6, 0.6, 0.6, 0.6, 0.6, 0.6, 0.6, 0.6, 0.6, 0.6, 0.6, 0.6, 0.6, 0.6, 0.6], "NUPDOWN": -1.0, "LSORBIT": false, "SAXIS": [0.0, 0.0, 1.0], "LSPIRAL": false, "QSPIRAL": [0.0, 0.0, 0.0], "LZEROZ": false, "LASPH": false, "LMETAGGA": false, "NELM": 100, "NELMDL": -5, "NELMIN": 6, "ENINI": 520.0, "LDIAG": true, "LSUBROT": false, "WEIMIN": 0.001, "EBREAK": 1e-08, "DEPER": 0.3, "NRMM": 4, "TIME": 0.4, "AMIX": 0.4, "BMIX": 1.0, "AMIN": 0.1, "AMIX_MAG": 1.6, "BMIX_MAG": 1.0, "IMIX": 4, "MIXFIRST": false, "MAXMIX": -45, "WC": 100.0, "INIMIX": 1, "MIXPRE": 1, "MREMOVE": 5, "LDIPOL": false, "LMONO": false, "IDIPOL": 0, "EPSILON": 1.0, "DIPOL": [-100.0, -100.0, -100.0], "EFIELD": 0.0, "NGX": 48, "NGY": 80, "NGZ": 250, "NGXF": 96, "NGYF": 160, "NGZF": 500, "ADDGRID": false, "NSW": 150, "IBRION": 2, "MDALGO": 0, "ISIF": 2, "PSTRESS": 0.0, "EDIFFG": -0.01, "NFREE": 1, "POTIM": 0.5, "SMASS": -3.0, "SCALEE": 1.0, "TEBEG": 0.0001, "TEEND": 0.0001, "NBLOCK": 1, "KBLOCK": 150, "NPACO": 256, "APACO": 10.0, "ISYM": 0, "SYMPREC": 1e-05, "LORBIT": 11, "RWIGS": [-1.0, -1.0, -1.0], "NEDOS": 301, "EMIN": 10.0, "EMAX": -10.0, "EFERMI": 0.0, "NWRITE": 2, "LWAVE": false, "LDOWNSAMPLE": false, "LCHARG": false, "LPARD": false, "LVTOT": false, "LVHAR": false, "LELF": false, "LOPTICS": false, "STM": [0.0, 0.0, 0.0, 0.0, 0.0, 0.0, 0.0], "NPAR": 2, "NSIM": 4, "NBLK": -1, "LPLANE": true, "LSCALAPACK": true, "LSCAAWARE": false, "LSCALU": false, "LASYNC": false, "LORBITALREAL": false, "IDIOT": 3, "PHON_NSTRUCT": -1, "LMUSIC": false, "POMASS": [7.01, 30.974, 32.066], "DARWINR": [0.0, 0.0, 0.0], "DARWINV": [1.0, 1.0, 1.0], "LCORR": true, "GGA_COMPAT": true, "LBERRY": false, "ICORELEVEL": 0, "LDAU": false, "I_CONSTRAINED_M": 0, "GGA": "--", "VOSKOWN": 0, "LHFCALC": false, "PRECFOCK": "", "LSYMGRAD": false, "LHFONE": false, "LRHFCALC": false, "LTHOMAS": false, "LMODELHF": false, "LFOCKACE": false, "ENCUT4O": -1.0, "EXXOEP": 0, "FOURORBIT": 0, "AEXX": 0.0, "HFALPHA": 0.0, "MCALPHA": 0.0, "ALDAX": 1.0, "AGGAX": 1.0, "ALDAC": 1.0, "AGGAC": 1.0, "NKREDX": 1, "NKREDY": 1, "NKREDZ": 1, "SHIFTRED": false, "ODDONLY": false, "EVENONLY": false, "LMAXFOCK": 0, "NMAXFOCKAE": 0, "LFOCKAEDFT": false, "HFSCREEN": 0.0, "HFSCREENC": 0.0, "NBANDSGWLOW": 0, "LUSE_VDW": false, "Zab_VDW": -0.8491, "PARAM1": 0.1234, "PARAM2": 1.0, "PARAM3": 0.0, "MODEL_GW": 0, "MODEL_EPS0": 24.84988368, "MODEL_ALPHA": 1.0, "LEPSILON": false, "LRPA": false, "LNABLA": false, "LVEL": false, "CSHIFT": 0.1, "OMEGAMAX": -1.0, "DEG_THRESHOLD": 0.002, "RTIME": -0.1, "WPLASMAI": 0.0, "DFIELD": [0.0, 0.0, 0.0], "WPLASMA": [0.0, 0.0, 0.0, 0.0, 0.0, 0.0, 0.0, 0.0, 0.0], "NUCIND": false, "MAGPOS": [0.0, 0.0, 0.0], "LNICSALL": true, "ORBITALMAG": false, "LMAGBLOCH": false, "LCHIMAG": false, "LGAUGE": true, "MAGATOM": 0, "MAGDIPOL": [0.0, 0.0, 0.0], "AVECCONST": [0.0, 0.0, 0.0], "LFINITE_TEMPERATURE": false, "LADDER": false, "LRPAFORCE": false, "LFXC": false, "LHARTREE": true, "IBSE": 0, "KPOINT": [-1, 0, 0, 0], "LTCTC": false, "LTCTE": false, "LTETE": false, "LTRIPLET": false, "LFXCEPS": false, "LFXHEG": false, "NATURALO": 2, "LHOLEGF": false, "L2ORDER": false, "LDMP1": false, "LMP2LT": false, "LSMP2LT": false, "LGWLF": false, "ENCUTGW": -2.0, "ENCUTGWSOFT": -2.0, "ENCUTLF": -1.0, "LESF_SPLINES": false, "LMAXMP2": -1, "SCISSOR": 0.0, "NOMEGA": 0, "NOMEGAR": 0, "NBANDSGW": -1, "NBANDSO": -1, "NBANDSV": -1, "NELMGW": 1, "NELMHF": 1, "DIM": 3, "IESPILON": 4, "ANTIRES": 0, "OMEGAMIN": -30.0, "OMEGATL": -200.0, "OMEGAGRID": 0, "LSELFENERGY": false, "LSPECTRAL": false, "LSPECTRALGW": false, "LSINGLES": false, "LFERMIGW": false, "ODDONLYGW": false, "EVENONLYGW": false, "NKREDLFX": 1, "NKREDLFY": 1, "NKREDLFZ": 1, "MAXMEM": 2800, "TELESCOPE": 0, "NTAUPAR": -1, "NOMEGAPAR": -1, "DAMP_NEWTON": 0.80000001, "LAMBDA": 1.0, "OFIELD_KAPPA": 0.0, "OFIELD_K": [0.0, 0.0, 0.0], "OFIELD_Q6_NEAR": 0.0, "OFIELD_Q6_FAR": 0.0, "OFIELD_A": 0.0, "KPOINTS_OPT_MODE": 1, "LKPOINTS_OPT": false, "@module": "pymatgen.io.vasp.inputs", "@class": "Incar"}, "relaxed_structures": {"@module": "pymatgen.core.structure", "@class": "Structure", "charge": 0, "lattice": {"matrix": [[8.106791, 0.0, 0.0], [0.0, 13.057895, 0.0], [0.0, 0.0, 43.819658]], "a": 8.106791, "b": 13.057895, "c": 43.819658, "alpha": 90.0, "beta": 90.0, "gamma": 90.0, "volume": 4638.644953329912}, "sites": [{"species": [{"element": "Li", "occu": 1}], "abc": [0.97297861, 0.83106653, 0.13376841], "xyz": [7.887734238740509, 10.85197948675435, 5.86168597740378], "label": "Li", "properties": {}}, {"species": [{"element": "Li", "occu": 1}], "abc": [0.04533197, 0.18866795, 0.10664216], "xyz": [0.36749680640827, 2.46360628096525, 4.67302297958128], "label": "Li", "properties": {}}, {"species": [{"element": "Li", "occu": 1}], "abc": [0.06625522, 0.63672827, 0.04733366], "xyz": [0.53711722119902, 8.31433089319165, 2.07414479308828], "label": "Li", "properties": {}}, {"species": [{"element": "Li", "occu": 1}], "abc": [0.88215576, 0.43393994, 0.0452555], "xyz": [7.151452375766159, 5.6663421728263, 1.9830805326189997], "label": "Li", "properties": {}}, {"species": [{"element": "Li", "occu": 1}], "abc": [0.43872914, 0.5109541, 0.002118020000000001], "xyz": [3.55668544358974, 6.6719849876195, 0.09281091203716003], "label": "Li", "properties": {}}, {"species": [{"element": "Li", "occu": 1}], "abc": [0.49355968, 0.67779523, 0.06215794], "xyz": [4.001185171786879, 8.85057894484085, 2.72373967278452], "label": "Li", "properties": {}}, {"species": [{"element": "Li", "occu": 1}], "abc": [0.45101165, 0.20340845, 0.10487303], "xyz": [3.6562571851151495, 2.65608618221275, 4.59550030802374], "label": "Li", "properties": {}}, {"species": [{"element": "Li", "occu": 1}], "abc": [0.53169326, 0.82872816, 0.13428532999999998], "xyz": [4.310326134928659, 10.821445296823201, 5.884337235017139], "label": "Li", "properties": {}}, {"species": [{"element": "Li", "occu": 1}], "abc": [0.97608651, 0.01102609, 0.06749517000000001], "xyz": [7.91292933448941, 0.14397752548055, 2.95761526605186], "label": "Li", "properties": {}}, {"species": [{"element": "Li", "occu": 1}], "abc": [0.07276928, 0.5046366, 0.12674575], "xyz": [0.58992534418048, 6.589491735957, 5.5539554179535], "label": "Li", "properties": {}}, {"species": [{"element": "Li", "occu": 1}], "abc": [0.57508056, 0.50609645, 0.1021552], "xyz": [4.662057908082959, 6.608554303972751, 4.4764059269216], "label": "Li", "properties": {}}, {"species": [{"element": "Li", "occu": 1}], "abc": [0.52877783, 0.02822098, 0.06595338], "xyz": [4.28669135324353, 0.3685065936371, 2.8900545555440402], "label": "Li", "properties": {}}, {"species": [{"element": "Li", "occu": 1}], "abc": [0.9768584, 0.83608979, 0.27894832], "xyz": [7.919186885394399, 10.91757268839205, 12.22341998207456], "label": "Li", "properties": {}}, {"species": [{"element": "Li", "occu": 1}], "abc": [0.04325988, 0.17219537, 0.24999777999999998], "xyz": [0.35069880584507995, 2.2485090609461498, 10.954817220359239], "label": "Li", "properties": {}}, {"species": [{"element": "Li", "occu": 1}], "abc": [0.02814077, 0.66472311, 0.20868038], "xyz": [0.22813134096906998, 8.67988457445345, 9.14430288291004], "label": "Li", "properties": {}}, {"species": [{"element": "Li", "occu": 1}], "abc": [0.96224982, 0.3353349, 0.17718734], "xyz": [7.80075818052762, 4.3787679140355, 7.76428864072972], "label": "Li", "properties": {}}, {"species": [{"element": "Li", "occu": 1}], "abc": [0.53460009, 0.34376471, 0.17332602], "xyz": [4.333891198211189, 4.4888434878854495, 7.595086918901159], "label": "Li", "properties": {}}, {"species": [{"element": "Li", "occu": 1}], "abc": [0.46431494, 0.66884383, 0.2017038], "xyz": [3.76410417675754, 8.733692503537851, 8.838591533300399], "label": "Li", "properties": {}}, {"species": [{"element": "Li", "occu": 1}], "abc": [0.47610999, 0.1639164, 0.24351329], "xyz": [3.8597241819420898, 2.140403139978, 10.670669086254819], "label": "Li", "properties": {}}, {"species": [{"element": "Li", "occu": 1}], "abc": [0.544696, 0.82807678, 0.27205764000000004], "xyz": [4.415736630535999, 10.8129396451781, 11.921472741087122], "label": "Li", "properties": {}}, {"species": [{"element": "Li", "occu": 1}], "abc": [0.95849198, 0.00947556, 0.1982515], "xyz": [7.770294157036179, 0.1237308675462, 8.687312927987], "label": "Li", "properties": {}}, {"species": [{"element": "Li", "occu": 1}], "abc": [0.05204748, 0.49164142, 0.27043436000000004], "xyz": [0.42193804243668, 6.4198020400109, 11.850341166648882], "label": "Li", "properties": {}}, {"species": [{"element": "Li", "occu": 1}], "abc": [0.55203761, 0.5082376, 0.25227239], "xyz": [4.475253528409509, 6.636513215851999, 11.05448985264262], "label": "Li", "properties": {}}, {"species": [{"element": "Li", "occu": 1}], "abc": [0.44760748, 0.99665213, 0.18058543999999999], "xyz": [3.6286602903966796, 13.01417886506635, 7.913192220579519], "label": "Li", "properties": {}}, {"species": [{"element": "Li", "occu": 1}], "abc": [0.95098543, 0.79681072, 0.41775064], "xyz": [7.70944012505513, 10.4046707166344, 18.305690174081118], "label": "Li", "properties": {}}, {"species": [{"element": "Li", "occu": 1}], "abc": [0.03209644, 0.16941258, 0.38902174], "xyz": [0.26019913092403996, 2.2121716813191, 17.04679960136492], "label": "Li", "properties": {}}, {"species": [{"element": "Li", "occu": 1}], "abc": [0.03452758, 0.65619235, 0.34933179000000003], "xyz": [0.27990787479578, 8.56849080610325, 15.30759956632782], "label": "Li", "properties": {}}, {"species": [{"element": "Li", "occu": 1}], "abc": [0.96080201, 0.32970482, 0.32133842], "xyz": [7.7890210874499095, 4.3052509205539, 14.08093966666036], "label": "Li", "properties": {}}, {"species": [{"element": "Li", "occu": 1}], "abc": [0.52616067, 0.33506432, 0.31369417], "xyz": [4.2654745841099695, 4.3752347088064, 13.745971245993859], "label": "Li", "properties": {}}, {"species": [{"element": "Li", "occu": 1}], "abc": [0.46197099, 0.66465026, 0.34541697000000005], "xyz": [3.7451022639930898, 8.678933306802701, 15.136053492796261], "label": "Li", "properties": {}}, {"species": [{"element": "Li", "occu": 1}], "abc": [0.47277096, 0.1688848, 0.38896137000000003], "xyz": [3.83265536358936, 2.205279985496, 17.04415420861146], "label": "Li", "properties": {}}, {"species": [{"element": "Li", "occu": 1}], "abc": [0.54484865, 0.81121133, 0.41598316], "xyz": [4.41697413218215, 10.59271236995035, 18.22823980495928], "label": "Li", "properties": {}}, {"species": [{"element": "Li", "occu": 1}], "abc": [0.94752665, 0.00327896, 0.34184794], "xyz": [7.6814005184801495, 0.0428163153892, 14.97965981880452], "label": "Li", "properties": {}}, {"species": [{"element": "Li", "occu": 1}], "abc": [0.07508781, 0.49380396, 0.42053248000000004], "xyz": [0.60872118231771, 6.4480402602642, 18.42758945149184], "label": "Li", "properties": {}}, {"species": [{"element": "Li", "occu": 1}], "abc": [0.57360363, 0.49531916, 0.39497866000000004], "xyz": [4.65008474525133, 6.4678255827682, 17.30782979849828], "label": "Li", "properties": {}}, {"species": [{"element": "Li", "occu": 1}], "abc": [0.45783554, 0.99008173, 0.32425298], "xyz": [3.7115770351521395, 12.92838327175835, 14.20865468908084], "label": "Li", "properties": {}}, {"species": [{"element": "Li", "occu": 1}], "abc": [0.93818424, 0.49082657, 0.52055724], "xyz": [7.60566355317384, 6.40916181427015, 22.81064022622392], "label": "Li", "properties": {}}, {"species": [{"element": "Li", "occu": 1}], "abc": [0.99250964, 0.32225232, 0.46064946], "xyz": [8.046068216965239, 4.2079369580664, 20.18550179508468], "label": "Li", "properties": {}}, {"species": [{"element": "Li", "occu": 1}], "abc": [0.56589576, 0.3646459, 0.47546589], "xyz": [4.587598654106159, 4.7615078743805, 20.834752690465617], "label": "Li", "properties": {}}, {"species": [{"element": "Li", "occu": 1}], "abc": [0.38179275, 0.56710355, 0.47699088], "xyz": [3.09511402956525, 7.40517861002725, 20.901577230719038], "label": "Li", "properties": {}}, {"species": [{"element": "Li", "occu": 1}], "abc": [0.02753768, 0.97137379, 0.45708788], "xyz": [0.22324221638487998, 12.68409695557205, 20.02943457754504], "label": "Li", "properties": {}}, {"species": [{"element": "Li", "occu": 1}], "abc": [0.47551919, 0.98861453, 0.45524288], "xyz": [3.8549346898192898, 12.90922472821435, 19.94858730853504], "label": "Li", "properties": {}}, {"species": [{"element": "P", "occu": 1}], "abc": [0.25823803, 0.91717472, 0.0975777], "xyz": [2.09348173746173, 11.976371190414401, 4.2758214424266], "label": "P", "properties": {}}, {"species": [{"element": "P", "occu": 1}], "abc": [0.73828846, 0.61681524, 0.01694021], "xyz": [5.9851502429318595, 8.0543086383198, 0.74231420864818], "label": "P", "properties": {}}, {"species": [{"element": "P", "occu": 1}], "abc": [0.25301599, 0.42646477, 0.06797111], "xyz": [2.05114775058809, 5.56873218785915, 2.97847079408038], "label": "P", "properties": {}}, {"species": [{"element": "P", "occu": 1}], "abc": [0.25277729, 0.91222575, 0.23830194], "xyz": [2.0492126595763898, 11.911748059796249, 10.44230951153652], "label": "P", "properties": {}}, {"species": [{"element": "P", "occu": 1}], "abc": [0.74921935, 0.09197994, 0.14049425999999998], "xyz": [6.073764683605849, 1.2010643986262999, 6.156410424163079], "label": "P", "properties": {}}, {"species": [{"element": "P", "occu": 1}], "abc": [0.75285659, 0.58957975, 0.1672098], "xyz": [6.10325102810269, 7.69867046962625, 7.327076250248399], "label": "P", "properties": {}}, {"species": [{"element": "P", "occu": 1}], "abc": [0.25365907, 0.4101473, 0.21288878], "xyz": [2.05636106574437, 5.3556603779335, 9.32871353163724], "label": "P", "properties": {}}, {"species": [{"element": "P", "occu": 1}], "abc": [0.24840429, 0.90792553, 0.38214498], "xyz": [2.01376166253339, 11.85559623855935, 16.74546233001684], "label": "P", "properties": {}}, {"species": [{"element": "P", "occu": 1}], "abc": [0.75233721, 0.08753643, 0.28414145], "xyz": [6.09904052299311, 1.14304151161485, 12.4509811626241], "label": "P", "properties": {}}, {"species": [{"element": "P", "occu": 1}], "abc": [0.75349307, 0.58985886, 0.30964139], "xyz": [6.1084108384383695, 7.7023150586997, 13.56837981244462], "label": "P", "properties": {}}, {"species": [{"element": "P", "occu": 1}], "abc": [0.25203278, 0.40941512, 0.35540351000000003], "xyz": [2.0431770726089797, 5.346099648372401, 15.57366026019958], "label": "P", "properties": {}}, {"species": [{"element": "P", "occu": 1}], "abc": [0.75723983, 0.08255485, 0.42534928], "xyz": [6.138785038685529, 1.07799256304075, 18.63865998014624], "label": "P", "properties": {}}, {"species": [{"element": "P", "occu": 1}], "abc": [0.75242856, 0.57336324, 0.45436247], "xyz": [6.09978107835096, 7.486916984779801, 19.91000804343526], "label": "P", "properties": {}}, {"species": [{"element": "P", "occu": 1}], "abc": [0.23742426, 0.38509902, 0.50572444], "xyz": [1.9247488541496598, 5.0285825677629, 22.160672003041523], "label": "P", "properties": {}}, {"species": [{"element": "S", "occu": 1}], "abc": [0.47723801, 0.8607209, 0.08087751], "xyz": [3.86886880432591, 11.2392031365055, 3.5440248280915796], "label": "S", "properties": {}}, {"species": [{"element": "S", "occu": 1}], "abc": [0.51364413, 0.68547562, 0.00928567], "xyz": [4.1640056102868295, 8.950868671019899, 0.40689488370085997], "label": "S", "properties": {}}, {"species": [{"element": "S", "occu": 1}], "abc": [0.47159265, 0.35035229, 0.07435244], "xyz": [3.8231030506861496, 4.57486341582955, 3.25809849226552], "label": "S", "properties": {}}, {"species": [{"element": "S", "occu": 1}], "abc": [0.05286697, 0.3606651, 0.09034671000000001], "xyz": [0.42858147659326995, 4.7095270059645005, 3.9589619336251802], "label": "S", "properties": {}}, {"species": [{"element": "S", "occu": 1}], "abc": [0.93095503, 0.69950906, 0.0025124100000000005], "xyz": [7.54705785860873, 9.1341158570287, 0.11009294695578001], "label": "S", "properties": {}}, {"species": [{"element": "S", "occu": 1}], "abc": [0.05645832, 0.84557626, 0.07990371], "xyz": [0.45769580045111996, 11.0414460175727, 3.5013532451311797], "label": "S", "properties": {}}, {"species": [{"element": "S", "occu": 1}], "abc": [0.25147142, 0.07200545, 0.08222131], "xyz": [2.0386262444132197, 0.94023960552775, 3.60290968451198], "label": "S", "properties": {}}, {"species": [{"element": "S", "occu": 1}], "abc": [0.27751009, 0.57038602, 0.08831148000000001], "xyz": [2.24971630002119, 7.448040758627901, 3.8697788510738405], "label": "S", "properties": {}}, {"species": [{"element": "S", "occu": 1}], "abc": [0.72518791, 0.46981025, 0.00010000000000000026], "xyz": [5.87894682209681, 6.13473291442375, 0.004381965800000011], "label": "S", "properties": {}}, {"species": [{"element": "S", "occu": 1}], "abc": [0.75741671, 0.1150405, 0.09295807], "xyz": [6.140218967877609, 1.5021867697475, 4.07339083574006], "label": "S", "properties": {}}, {"species": [{"element": "S", "occu": 1}], "abc": [0.77278099, 0.60123684, 0.06586109000000001], "xyz": [6.26477397470309, 7.8508875268518, 2.88601043930722], "label": "S", "properties": {}}, {"species": [{"element": "S", "occu": 1}], "abc": [0.18052453, 0.44432813, 0.02413463], "xyz": [1.4634746350832297, 5.80199006708635, 1.05757123255654], "label": "S", "properties": {}}, {"species": [{"element": "S", "occu": 1}], "abc": [0.46114916, 0.85072199, 0.21885000999999998], "xyz": [3.7384398599455597, 11.10863841961105, 9.589932591496579], "label": "S", "properties": {}}, {"species": [{"element": "S", "occu": 1}], "abc": [0.53607254, 0.15924718, 0.15587597], "xyz": [4.34582804261914, 2.0794329554860997, 6.83043169581826], "label": "S", "properties": {}}, {"species": [{"element": "S", "occu": 1}], "abc": [0.54409389, 0.65015073, 0.14823298999999998], "xyz": [4.41085545060699, 8.48959996651335, 6.495518926117419], "label": "S", "properties": {}}, {"species": [{"element": "S", "occu": 1}], "abc": [0.47009624, 0.34476168, 0.22807186], "xyz": [3.81097196756584, 4.501861817463601, 9.994030904623878], "label": "S", "properties": {}}, {"species": [{"element": "S", "occu": 1}], "abc": [0.04250233, 0.34877309, 0.23130248], "xyz": [0.34455750632302995, 4.55424238804555, 10.135595568151839], "label": "S", "properties": {}}, {"species": [{"element": "S", "occu": 1}], "abc": [0.97097569, 0.65689422, 0.15385537999999999], "xyz": [7.871496984910789, 8.5776557508669, 6.741890133060039], "label": "S", "properties": {}}, {"species": [{"element": "S", "occu": 1}], "abc": [0.95919349, 0.15441562, 0.15838375999999998], "xyz": [7.77598115199059, 2.0163429523199, 6.940322195954079], "label": "S", "properties": {}}, {"species": [{"element": "S", "occu": 1}], "abc": [0.03521259, 0.84770351, 0.22374107999999998], "xyz": [0.28546110769869, 11.069223424711451, 9.804257606150639], "label": "S", "properties": {}}, {"species": [{"element": "S", "occu": 1}], "abc": [0.74615309, 0.94230305, 0.15549859], "xyz": [6.04890715463419, 12.30449428507975, 6.813895033282219], "label": "S", "properties": {}}, {"species": [{"element": "S", "occu": 1}], "abc": [0.24580046, 0.06313388, 0.22257438], "xyz": [1.9926529569238598, 0.8243955759826, 9.753133211162039], "label": "S", "properties": {}}, {"species": [{"element": "S", "occu": 1}], "abc": [0.26013681, 0.56030282, 0.22883383], "xyz": [2.1088747500767098, 7.3163753917639, 10.027420169430139], "label": "S", "properties": {}}, {"species": [{"element": "S", "occu": 1}], "abc": [0.76016196, 0.44053319, 0.15049923999999998], "xyz": [6.16247413587036, 5.7524361390350505, 6.5948252260599185], "label": "S", "properties": {}}, {"species": [{"element": "S", "occu": 1}], "abc": [0.25361806, 0.90168444, 0.14405989], "xyz": [2.0560286062454596, 11.7741007406538, 6.3126551113176195], "label": "S", "properties": {}}, {"species": [{"element": "S", "occu": 1}], "abc": [0.76319593, 0.10449417, 0.23769563], "xyz": [6.1870698965606294, 1.36447389997215, 10.415741214694538], "label": "S", "properties": {}}, {"species": [{"element": "S", "occu": 1}], "abc": [0.74262443, 0.6032788, 0.21394272], "xyz": [6.020301045504129, 7.877551226126, 9.37489682198976], "label": "S", "properties": {}}, {"species": [{"element": "S", "occu": 1}], "abc": [0.24583164, 0.39437064, 0.16642805], "xyz": [1.9929057266672399, 5.1496504082028, 7.292820232606899], "label": "S", "properties": {}}, {"species": [{"element": "S", "occu": 1}], "abc": [0.45859344, 0.84560777, 0.36429494], "xyz": [3.7177211720510397, 11.04185747184415, 15.96327968193052], "label": "S", "properties": {}}, {"species": [{"element": "S", "occu": 1}], "abc": [0.53467334, 0.15186532, 0.29871503], "xyz": [4.33448502065194, 1.9830414027014, 13.089590454059739], "label": "S", "properties": {}}, {"species": [{"element": "S", "occu": 1}], "abc": [0.54261208, 0.65156007, 0.29122392], "xyz": [4.39884272663528, 8.50800298025265, 12.76133257581936], "label": "S", "properties": {}}, {"species": [{"element": "S", "occu": 1}], "abc": [0.47093051, 0.34254523, 0.36858947000000003], "xyz": [3.81773522009341, 4.47291964609085, 16.15146451780126], "label": "S", "properties": {}}, {"species": [{"element": "S", "occu": 1}], "abc": [0.04434997, 0.348362, 0.3746214], "xyz": [0.35953593764627, 4.5488744179900005, 16.4157816274812], "label": "S", "properties": {}}, {"species": [{"element": "S", "occu": 1}], "abc": [0.97007581, 0.65515145, 0.29450065000000003], "xyz": [7.8642018458257095, 8.55489884319775, 12.9049177637777], "label": "S", "properties": {}}, {"species": [{"element": "S", "occu": 1}], "abc": [0.96077609, 0.14912011, 0.30347703000000004], "xyz": [7.788810959427189, 1.94719473876845, 13.29825966545574], "label": "S", "properties": {}}, {"species": [{"element": "S", "occu": 1}], "abc": [0.03541058, 0.84061602, 0.36670786], "xyz": [0.28706617124878, 10.9766757244779, 16.069013011111878], "label": "S", "properties": {}}, {"species": [{"element": "S", "occu": 1}], "abc": [0.74589031, 0.93666354, 0.29990542000000003], "xyz": [6.046776852095209, 12.2308541556483, 13.14175293674636], "label": "S", "properties": {}}, {"species": [{"element": "S", "occu": 1}], "abc": [0.24553021, 0.05759483, 0.36714507], "xyz": [1.9904620966561097, 0.75206724268285, 16.08817140378606], "label": "S", "properties": {}}, {"species": [{"element": "S", "occu": 1}], "abc": [0.25951485, 0.55867293, 0.37197646], "xyz": [2.10383265034635, 7.295092459282349, 16.29988126125068], "label": "S", "properties": {}}, {"species": [{"element": "S", "occu": 1}], "abc": [0.75952188, 0.43966014, 0.29376765], "xyz": [6.15728514108708, 5.7410359438053, 12.8727979544637], "label": "S", "properties": {}}, {"species": [{"element": "S", "occu": 1}], "abc": [0.26417264, 0.89501078, 0.28471688], "xyz": [2.14159238039824, 11.6869567891081, 12.47619630842704], "label": "S", "properties": {}}, {"species": [{"element": "S", "occu": 1}], "abc": [0.7537764, 0.09813278, 0.37885848], "xyz": [6.1107077355324, 1.2814075372981, 16.601449023999837], "label": "S", "properties": {}}, {"species": [{"element": "S", "occu": 1}], "abc": [0.74563956, 0.60567717, 0.35611838], "xyz": [6.04474407425196, 7.90886888975715, 15.60498561911404], "label": "S", "properties": {}}, {"species": [{"element": "S", "occu": 1}], "abc": [0.24047893, 0.39544648, 0.30870547000000004], "xyz": [1.94951242541363, 5.1636986139596, 13.52736811812926], "label": "S", "properties": {}}, {"species": [{"element": "S", "occu": 1}], "abc": [0.55525886, 0.15414873, 0.44291628], "xyz": [4.5013675289182595, 2.0128579307233503, 19.40843991223224], "label": "S", "properties": {}}, {"species": [{"element": "S", "occu": 1}], "abc": [0.55261076, 0.63874691, 0.43179626000000004], "xyz": [4.47989993567116, 8.340690082354449, 18.92116443887908], "label": "S", "properties": {}}, {"species": [{"element": "S", "occu": 1}], "abc": [0.43002882, 0.30282428, 0.52039419], "xyz": [3.4861537677166194, 3.9542476516906, 22.803495430987017], "label": "S", "properties": {}}, {"species": [{"element": "S", "occu": 1}], "abc": [0.01295103, 0.31627781, 0.51355353], "xyz": [0.10499129344473, 4.12992243380995, 22.50374004929274], "label": "S", "properties": {}}, {"species": [{"element": "S", "occu": 1}], "abc": [0.9709685, 0.64962913, 0.4481432], "xyz": [7.8714386970835, 8.48278896848135, 19.6374817590256], "label": "S", "properties": {}}, {"species": [{"element": "S", "occu": 1}], "abc": [0.97586497, 0.13890019, 0.44234561], "xyz": [7.91113335601127, 1.8137440965000502, 19.38343334800138], "label": "S", "properties": {}}, {"species": [{"element": "S", "occu": 1}], "abc": [0.75056505, 0.92765513, 0.44061204000000004], "xyz": [6.084673992254549, 12.113223283751351, 19.30746890348232], "label": "S", "properties": {}}, {"species": [{"element": "S", "occu": 1}], "abc": [0.22420141, 0.53252966, 0.52223009], "xyz": [1.8175539727753098, 6.9537163846657, 22.883943941109216], "label": "S", "properties": {}}, {"species": [{"element": "S", "occu": 1}], "abc": [0.77734296, 0.42944522, 0.43410664000000004], "xyz": [6.30175691204136, 5.6076505910119, 19.02240450032912], "label": "S", "properties": {}}, {"species": [{"element": "S", "occu": 1}], "abc": [0.25614073, 0.8849723, 0.42967893], "xyz": [2.0764793646974296, 11.5558753713085, 18.828383762405938], "label": "S", "properties": {}}, {"species": [{"element": "S", "occu": 1}], "abc": [0.67950467, 0.55595135, 0.49820580999999997], "xyz": [5.50860234321397, 7.25955435340825, 21.831208207812978], "label": "S", "properties": {}}, {"species": [{"element": "S", "occu": 1}], "abc": [0.27223624, 0.39926872, 0.45682466], "xyz": [2.20696230030584, 5.2136090225444, 20.017900367166277], "label": "S", "properties": {}}]}, "formula": "(Li3PS4)14.0", "bandgap": 1.2426, "slab_thickness": 22.879561975309215}