{"miller": "100_0.05", "final_energy": -488.54825958, "gamma": 0.018783320521409106, "work_function": 4.96888477761879, "ionization_potentail": -5.277784777618789, "electron_affinity": -2.6533847776187898, "is_stochiometric": true, "incar_parameters": {"SYSTEM": "unknown system", "LCOMPAT": false, "PREC": "normal", "ENMAX": 520.0, "ENAUG": 628.945, "EDIFF": 1e-05, "IALGO": 38, "IWAVPR": 11, "NBANDS": 324, "NBANDSLOW": -1, "NBANDSHIGH": -1, "NELECT": 532.0, "TURBO": 0, "IRESTART": 0, "NREBOOT": 0, "NMIN": 0, "EREF": 0.0, "ISMEAR": 0, "SIGMA": 0.05, "KSPACING": 0.5, "KGAMMA": true, "KBLOWUP": true, "LREAL": true, "ROPT": [-0.0005, -0.0005, -0.0005], "LMAXPAW": -100, "LMAXMIX": 2, "NLSPLINE": false, "ISTART": 0, "ICHARG": 2, "INIWAV": 1, "ISPIN": 1, "LNONCOLLINEAR": false, "MAGMOM": [0.6, 0.6, 0.6, 0.6, 0.6, 0.6, 0.6, 0.6, 0.6, 0.6, 0.6, 0.6, 0.6, 0.6, 0.6, 0.6, 0.6, 0.6, 0.6, 0.6, 0.6, 0.6, 0.6, 0.6, 0.6, 0.6, 0.6, 0.6, 0.6, 0.6, 0.6, 0.6, 0.6, 0.6, 0.6, 0.6, 0.6, 0.6, 0.6, 0.6, 0.6, 0.6, 0.6, 0.6, 0.6, 0.6, 0.6, 0.6, 0.6, 0.6, 0.6, 0.6, 0.6, 0.6, 0.6, 0.6, 0.6, 0.6, 0.6, 0.6, 0.6, 0.6, 0.6, 0.6, 0.6, 0.6, 0.6, 0.6, 0.6, 0.6, 0.6, 0.6, 0.6, 0.6, 0.6, 0.6, 0.6, 0.6, 0.6, 0.6, 0.6, 0.6, 0.6, 0.6, 0.6, 0.6, 0.6, 0.6, 0.6, 0.6, 0.6, 0.6, 0.6, 0.6, 0.6, 0.6, 0.6, 0.6, 0.6, 0.6, 0.6, 0.6, 0.6, 0.6, 0.6, 0.6, 0.6, 0.6, 0.6, 0.6, 0.6, 0.6], "NUPDOWN": -1.0, "LSORBIT": false, "SAXIS": [0.0, 0.0, 1.0], "LSPIRAL": false, "QSPIRAL": [0.0, 0.0, 0.0], "LZEROZ": false, "LASPH": false, "LMETAGGA": false, "NELM": 100, "NELMDL": -5, "NELMIN": 6, "ENINI": 520.0, "LDIAG": true, "LSUBROT": false, "WEIMIN": 0.001, "EBREAK": 1e-08, "DEPER": 0.3, "NRMM": 4, "TIME": 0.4, "AMIX": 0.4, "BMIX": 1.0, "AMIN": 0.1, "AMIX_MAG": 1.6, "BMIX_MAG": 1.0, "IMIX": 4, "MIXFIRST": false, "MAXMIX": -45, "WC": 100.0, "INIMIX": 1, "MIXPRE": 1, "MREMOVE": 5, "LDIPOL": false, "LMONO": false, "IDIPOL": 0, "EPSILON": 1.0, "DIPOL": [-100.0, -100.0, -100.0], "EFIELD": 0.0, "NGX": 48, "NGY": 80, "NGZ": 250, "NGXF": 96, "NGYF": 160, "NGZF": 500, "ADDGRID": false, "NSW": 150, "IBRION": 2, "MDALGO": 0, "ISIF": 2, "PSTRESS": 0.0, "EDIFFG": -0.01, "NFREE": 1, "POTIM": 0.5, "SMASS": -3.0, "SCALEE": 1.0, "TEBEG": 0.0001, "TEEND": 0.0001, "NBLOCK": 1, "KBLOCK": 150, "NPACO": 256, "APACO": 10.0, "ISYM": 0, "SYMPREC": 1e-05, "LORBIT": 11, "RWIGS": [-1.0, -1.0, -1.0], "NEDOS": 301, "EMIN": 10.0, "EMAX": -10.0, "EFERMI": 0.0, "NWRITE": 2, "LWAVE": false, "LDOWNSAMPLE": false, "LCHARG": false, "LPARD": false, "LVTOT": false, "LVHAR": false, "LELF": false, "LOPTICS": false, "STM": [0.0, 0.0, 0.0, 0.0, 0.0, 0.0, 0.0], "NPAR": 2, "NSIM": 4, "NBLK": -1, "LPLANE": true, "LSCALAPACK": true, "LSCAAWARE": false, "LSCALU": false, "LASYNC": false, "LORBITALREAL": false, "IDIOT": 3, "PHON_NSTRUCT": -1, "LMUSIC": false, "POMASS": [7.01, 30.974, 32.066], "DARWINR": [0.0, 0.0, 0.0], "DARWINV": [1.0, 1.0, 1.0], "LCORR": true, "GGA_COMPAT": true, "LBERRY": false, "ICORELEVEL": 0, "LDAU": false, "I_CONSTRAINED_M": 0, "GGA": "--", "VOSKOWN": 0, "LHFCALC": false, "PRECFOCK": "", "LSYMGRAD": false, "LHFONE": false, "LRHFCALC": false, "LTHOMAS": false, "LMODELHF": false, "LFOCKACE": false, "ENCUT4O": -1.0, "EXXOEP": 0, "FOURORBIT": 0, "AEXX": 0.0, "HFALPHA": 0.0, "MCALPHA": 0.0, "ALDAX": 1.0, "AGGAX": 1.0, "ALDAC": 1.0, "AGGAC": 1.0, "NKREDX": 1, "NKREDY": 1, "NKREDZ": 1, "SHIFTRED": false, "ODDONLY": false, "EVENONLY": false, "LMAXFOCK": 0, "NMAXFOCKAE": 0, "LFOCKAEDFT": false, "HFSCREEN": 0.0, "HFSCREENC": 0.0, "NBANDSGWLOW": 0, "LUSE_VDW": false, "Zab_VDW": -0.8491, "PARAM1": 0.1234, "PARAM2": 1.0, "PARAM3": 0.0, "MODEL_GW": 0, "MODEL_EPS0": 24.84988368, "MODEL_ALPHA": 1.0, "LEPSILON": false, "LRPA": false, "LNABLA": false, "LVEL": false, "CSHIFT": 0.1, "OMEGAMAX": -1.0, "DEG_THRESHOLD": 0.002, "RTIME": -0.1, "WPLASMAI": 0.0, "DFIELD": [0.0, 0.0, 0.0], "WPLASMA": [0.0, 0.0, 0.0, 0.0, 0.0, 0.0, 0.0, 0.0, 0.0], "NUCIND": false, "MAGPOS": [0.0, 0.0, 0.0], "LNICSALL": true, "ORBITALMAG": false, "LMAGBLOCH": false, "LCHIMAG": false, "LGAUGE": true, "MAGATOM": 0, "MAGDIPOL": [0.0, 0.0, 0.0], "AVECCONST": [0.0, 0.0, 0.0], "LFINITE_TEMPERATURE": false, "LADDER": false, "LRPAFORCE": false, "LFXC": false, "LHARTREE": true, "IBSE": 0, "KPOINT": [-1, 0, 0, 0], "LTCTC": false, "LTCTE": false, "LTETE": false, "LTRIPLET": false, "LFXCEPS": false, "LFXHEG": false, "NATURALO": 2, "LHOLEGF": false, "L2ORDER": false, "LDMP1": false, "LMP2LT": false, "LSMP2LT": false, "LGWLF": false, "ENCUTGW": -2.0, "ENCUTGWSOFT": -2.0, "ENCUTLF": -1.0, "LESF_SPLINES": false, "LMAXMP2": -1, "SCISSOR": 0.0, "NOMEGA": 0, "NOMEGAR": 0, "NBANDSGW": -1, "NBANDSO": -1, "NBANDSV": -1, "NELMGW": 1, "NELMHF": 1, "DIM": 3, "IESPILON": 4, "ANTIRES": 0, "OMEGAMIN": -30.0, "OMEGATL": -200.0, "OMEGAGRID": 0, "LSELFENERGY": false, "LSPECTRAL": false, "LSPECTRALGW": false, "LSINGLES": false, "LFERMIGW": false, "ODDONLYGW": false, "EVENONLYGW": false, "NKREDLFX": 1, "NKREDLFY": 1, "NKREDLFZ": 1, "MAXMEM": 2800, "TELESCOPE": 0, "NTAUPAR": -1, "NOMEGAPAR": -1, "DAMP_NEWTON": 0.80000001, "LAMBDA": 1.0, "OFIELD_KAPPA": 0.0, "OFIELD_K": [0.0, 0.0, 0.0], "OFIELD_Q6_NEAR": 0.0, "OFIELD_Q6_FAR": 0.0, "OFIELD_A": 0.0, "KPOINTS_OPT_MODE": 1, "LKPOINTS_OPT": false, "@module": "pymatgen.io.vasp.inputs", "@class": "Incar"}, "relaxed_structures": {"@module": "pymatgen.core.structure", "@class": "Structure", "charge": 0, "lattice": {"matrix": [[8.106791, 0.0, 0.0], [0.0, 13.057895, 0.0], [0.0, 0.0, 43.819658]], "a": 8.106791, "b": 13.057895, "c": 43.819658, "alpha": 90.0, "beta": 90.0, "gamma": 90.0, "volume": 4638.644953329912}, "sites": [{"species": [{"element": "Li", "occu": 1}], "abc": [0.04745028, 0.14907265, 0.10651848], "xyz": [0.38466950285147994, 1.9465750110717501, 4.66760336427984], "label": "Li", "properties": {}}, {"species": [{"element": "Li", "occu": 1}], "abc": [0.03577976, 0.66724422, 0.06059731], "xyz": [0.29005903635016, 8.7128049641169, 2.65535339991998], "label": "Li", "properties": {}}, {"species": [{"element": "Li", "occu": 1}], "abc": [0.90349146, 0.39678434, 0.05278906], "xyz": [7.32441643650486, 5.1811682493643, 2.31319855534148], "label": "Li", "properties": {}}, {"species": [{"element": "Li", "occu": 1}], "abc": [0.47625596, 0.42945612, 0.02528034], "xyz": [3.8609075302243596, 5.6077929220674, 1.1077758529237198], "label": "Li", "properties": {}}, {"species": [{"element": "Li", "occu": 1}], "abc": [0.48931809, 0.64551537, 0.07174886], "xyz": [3.9667994881491895, 8.42907192234615, 3.1440105070898796], "label": "Li", "properties": {}}, {"species": [{"element": "Li", "occu": 1}], "abc": [0.46527483, 0.18450853, 0.10882623], "xyz": [3.7718858043705294, 2.4092930113443503, 4.768728180029339], "label": "Li", "properties": {}}, {"species": [{"element": "Li", "occu": 1}], "abc": [0.67717876, 0.75922055, 9.99999999999994e-05], "xyz": [5.489746676959159, 9.91382222374225, 0.004381965799999973], "label": "Li", "properties": {}}, {"species": [{"element": "Li", "occu": 1}], "abc": [0.98888504, 0.50456793, 0.12074067000000001], "xyz": [8.01668434230664, 6.58859505030735, 5.29081486609086], "label": "Li", "properties": {}}, {"species": [{"element": "Li", "occu": 1}], "abc": [0.46018908, 0.48487024, 0.12993918000000002], "xyz": [3.7306566920422797, 6.3313846825448, 5.69389042840044], "label": "Li", "properties": {}}, {"species": [{"element": "Li", "occu": 1}], "abc": [0.55822066, 0.00139166, 0.07565923], "xyz": [4.52537822250206, 0.018172150155700003, 3.3153615831433396], "label": "Li", "properties": {}}, {"species": [{"element": "Li", "occu": 1}], "abc": [0.96724577, 0.83724158, 0.13531218], "xyz": [7.84125930302407, 10.932612641274101, 5.92933345083444], "label": "Li", "properties": {}}, {"species": [{"element": "Li", "occu": 1}], "abc": [0.03701219, 0.17405082, 0.25126575], "xyz": [0.30005008878229, 2.2727373322239, 11.0103792321135], "label": "Li", "properties": {}}, {"species": [{"element": "Li", "occu": 1}], "abc": [0.03446333, 0.66887109, 0.20627763000000002], "xyz": [0.27938701347403, 8.73404846175555, 9.03901519965054], "label": "Li", "properties": {}}, {"species": [{"element": "Li", "occu": 1}], "abc": [0.98448855, 0.33097946, 0.17371402000000002], "xyz": [7.98104291674305, 4.3218950358367, 7.61208894620516], "label": "Li", "properties": {}}, {"species": [{"element": "Li", "occu": 1}], "abc": [0.54948141, 0.33125891, 0.18434655000000003], "xyz": [4.454530949255309, 4.3255440645944505, 8.0780027744799], "label": "Li", "properties": {}}, {"species": [{"element": "Li", "occu": 1}], "abc": [0.46806116, 0.66614345, 0.21186954000000002], "xyz": [3.7944739993375594, 8.69843122503775, 9.284050783417321], "label": "Li", "properties": {}}, {"species": [{"element": "Li", "occu": 1}], "abc": [0.46816002, 0.15939655, 0.25013025], "xyz": [3.7952754366958197, 2.08138341326225, 10.960622010454498], "label": "Li", "properties": {}}, {"species": [{"element": "Li", "occu": 1}], "abc": [0.52856554, 0.82169716, 0.1359023], "xyz": [4.28497036258214, 10.7296352370782, 5.9551923074134], "label": "Li", "properties": {}}, {"species": [{"element": "Li", "occu": 1}], "abc": [0.94749138, 0.0083556, 0.20229316], "xyz": [7.681114591961579, 0.10910654746199999, 8.86441708693928], "label": "Li", "properties": {}}, {"species": [{"element": "Li", "occu": 1}], "abc": [0.94279568, 0.5037802, 0.25544576999999996], "xyz": [7.643047533462879, 6.578308954679001, 11.193546278946657], "label": "Li", "properties": {}}, {"species": [{"element": "Li", "occu": 1}], "abc": [0.44343736, 0.49624756, 0.27492589], "xyz": [3.5948539991117596, 6.479948532486199, 12.04715847514562], "label": "Li", "properties": {}}, {"species": [{"element": "Li", "occu": 1}], "abc": [0.44201418, 0.98994525, 0.18367454000000003], "xyz": [3.5833165762963795, 12.92660113024875, 8.04855552610732], "label": "Li", "properties": {}}, {"species": [{"element": "Li", "occu": 1}], "abc": [0.96689791, 0.82704701, 0.27884792999999997], "xyz": [7.8384392747068095, 10.79949301664395, 12.219020926607937], "label": "Li", "properties": {}}, {"species": [{"element": "Li", "occu": 1}], "abc": [0.02190142, 0.17002178, 0.39043833], "xyz": [0.17755023454322, 2.2201265509531, 17.10887409069114], "label": "Li", "properties": {}}, {"species": [{"element": "Li", "occu": 1}], "abc": [0.04562372, 0.66706092, 0.34868406999999996], "xyz": [0.36986196268252, 8.710411451963399, 15.279216697448057], "label": "Li", "properties": {}}, {"species": [{"element": "Li", "occu": 1}], "abc": [0.96810366, 0.33963941, 0.31995040999999996], "xyz": [7.84821403795506, 4.434975753641949, 14.020117543159778], "label": "Li", "properties": {}}, {"species": [{"element": "Li", "occu": 1}], "abc": [0.53481722, 0.32604886, 0.32282507], "xyz": [4.33565142574102, 4.2575117787497, 14.146084161226058], "label": "Li", "properties": {}}, {"species": [{"element": "Li", "occu": 1}], "abc": [0.47564722, 0.67353493, 0.35347119], "xyz": [3.8559726022710197, 8.79494839477235, 15.488986658653019], "label": "Li", "properties": {}}, {"species": [{"element": "Li", "occu": 1}], "abc": [0.46192927, 0.17404567, 0.39933986], "xyz": [3.74476404867257, 2.27267008406465, 17.498936090967877], "label": "Li", "properties": {}}, {"species": [{"element": "Li", "occu": 1}], "abc": [0.53444413, 0.84077687, 0.28075608999999996], "xyz": [4.33262686308683, 10.97877608688865, 12.302635845217218], "label": "Li", "properties": {}}, {"species": [{"element": "Li", "occu": 1}], "abc": [0.05434974, 0.99206613, 0.32789157999999996], "xyz": [0.44060198308433995, 12.954295358596351, 14.368096896679637], "label": "Li", "properties": {}}, {"species": [{"element": "Li", "occu": 1}], "abc": [0.97074248, 0.51493141, 0.4024037], "xyz": [7.869606400181679, 6.72392028398195, 17.6331925119346], "label": "Li", "properties": {}}, {"species": [{"element": "Li", "occu": 1}], "abc": [0.5368174, 0.50471875, 0.40157064], "xyz": [4.3518664669634, 6.59056444203125, 17.596688107641118], "label": "Li", "properties": {}}, {"species": [{"element": "Li", "occu": 1}], "abc": [0.55744074, 0.01450363, 0.34717197], "xyz": [4.51905557406534, 0.18938687765885, 15.212956992586259], "label": "Li", "properties": {}}, {"species": [{"element": "Li", "occu": 1}], "abc": [0.96097719, 0.82184115, 0.41910411999999997], "xyz": [7.79044123509729, 10.73151544337925, 18.36499920479096], "label": "Li", "properties": {}}, {"species": [{"element": "Li", "occu": 1}], "abc": [0.19156824, 0.23797835, 0.53532758], "xyz": [1.5530036839178398, 3.10749630657325, 23.45787147356764], "label": "Li", "properties": {}}, {"species": [{"element": "Li", "occu": 1}], "abc": [0.95514913, 0.5455432, 0.5174818], "xyz": [7.743194370741829, 7.123645823564, 22.675875497224396], "label": "Li", "properties": {}}, {"species": [{"element": "Li", "occu": 1}], "abc": [0.98958055, 0.35183407, 0.46078695], "xyz": [8.02232269651505, 4.59421234348265, 20.191526559863096], "label": "Li", "properties": {}}, {"species": [{"element": "Li", "occu": 1}], "abc": [0.5382653, 0.33585976, 0.47106646999999996], "xyz": [4.363604289652299, 4.3856214808052005, 20.641971610667255], "label": "Li", "properties": {}}, {"species": [{"element": "Li", "occu": 1}], "abc": [0.40085718, 0.59660559, 0.47813891999999997], "xyz": [3.2496653791093797, 7.79041315063305, 20.951883950889357], "label": "Li", "properties": {}}, {"species": [{"element": "Li", "occu": 1}], "abc": [0.54583828, 0.84632438, 0.42655598], "xyz": [4.424996855759479, 11.0512148899801, 18.69153716145484], "label": "Li", "properties": {}}, {"species": [{"element": "Li", "occu": 1}], "abc": [0.05819227, 0.00101718, 0.45398215], "xyz": [0.4717525707055699, 0.013282229636099999, 19.8933425511047], "label": "Li", "properties": {}}, {"species": [{"element": "P", "occu": 1}], "abc": [0.25455409, 0.90661021, 0.09735513], "xyz": [2.06361680582519, 11.83842092810795, 4.26606850114554], "label": "P", "properties": {}}, {"species": [{"element": "P", "occu": 1}], "abc": [0.74599034, 0.5728238, 0.023910389999999997], "xyz": [6.04758777439894, 7.479873033901, 1.0477451124466197], "label": "P", "properties": {}}, {"species": [{"element": "P", "occu": 1}], "abc": [0.24005973, 0.40698636, 0.07559412], "xyz": [1.9461140586264298, 5.3143851553122, 3.3125084852109596], "label": "P", "properties": {}}, {"species": [{"element": "P", "occu": 1}], "abc": [0.24455313, 0.91139155, 0.24213053000000004], "xyz": [1.98254111330583, 11.90085516378725, 10.61007701595874], "label": "P", "properties": {}}, {"species": [{"element": "P", "occu": 1}], "abc": [0.74465339, 0.08916367, 0.14524968000000002], "xyz": [6.036749400171489, 1.16428984067465, 6.36479130220944], "label": "P", "properties": {}}, {"species": [{"element": "P", "occu": 1}], "abc": [0.74702835, 0.58842689, 0.17156926], "xyz": [6.0560027045248495, 7.683616544796551, 7.518106296513079], "label": "P", "properties": {}}, {"species": [{"element": "P", "occu": 1}], "abc": [0.25019037, 0.41034539, 0.21671330000000003], "xyz": [2.02824103980267, 5.35824701635405, 9.496302690051401], "label": "P", "properties": {}}, {"species": [{"element": "P", "occu": 1}], "abc": [0.25686283, 0.91204519, 0.38519702], "xyz": [2.08233327847853, 11.90939032627505, 16.879201679019157], "label": "P", "properties": {}}, {"species": [{"element": "P", "occu": 1}], "abc": [0.75913674, 0.08873263, 0.28812097999999997], "xyz": [6.15416289160134, 1.15866136561385, 12.625362806224837], "label": "P", "properties": {}}, {"species": [{"element": "P", "occu": 1}], "abc": [0.74910437, 0.58886373, 0.31373683999999996], "xyz": [6.072832564776669, 7.6893207556483505, 13.747841030800718], "label": "P", "properties": {}}, {"species": [{"element": "P", "occu": 1}], "abc": [0.25197727, 0.41264889, 0.35869905999999996], "xyz": [2.0427270646405695, 5.38832587748655, 15.718070134121477], "label": "P", "properties": {}}, {"species": [{"element": "P", "occu": 1}], "abc": [0.74900483, 0.09553116, 0.433181], "xyz": [6.07202561480053, 1.2474358565082, 18.981843272097997], "label": "P", "properties": {}}, {"species": [{"element": "P", "occu": 1}], "abc": [0.74692642, 0.59597163, 0.45497537], "xyz": [6.05517637931822, 7.78213496751885, 19.936865111823458], "label": "P", "properties": {}}, {"species": [{"element": "P", "occu": 1}], "abc": [0.24526375, 0.42260458, 0.50840023], "xyz": [1.9883019611262498, 5.5183262321591, 22.277924205721337], "label": "P", "properties": {}}, {"species": [{"element": "S", "occu": 1}], "abc": [0.4679016, 0.83401725, 0.08130172], "xyz": [3.7931804797655997, 10.890509678688751, 3.5626135652117594], "label": "S", "properties": {}}, {"species": [{"element": "S", "occu": 1}], "abc": [0.50905243, 0.62861875, 0.016077010000000003], "xyz": [4.1267816580521295, 8.20843763253125, 0.70448907986258], "label": "S", "properties": {}}, {"species": [{"element": "S", "occu": 1}], "abc": [0.47034321, 0.35264207, 0.08561094], "xyz": [3.8129741017391097, 4.60476312264265, 3.7514421118585197], "label": "S", "properties": {}}, {"species": [{"element": "S", "occu": 1}], "abc": [0.04943621, 0.33611294, 0.09892506], "xyz": [0.40076902230211, 4.388927478661301, 4.334862296829479], "label": "S", "properties": {}}, {"species": [{"element": "S", "occu": 1}], "abc": [0.91925346, 0.67077095, 0.0061928500000000015], "xyz": [7.452195676246859, 8.75885663415025, 0.27136856904530005], "label": "S", "properties": {}}, {"species": [{"element": "S", "occu": 1}], "abc": [0.04142756, 0.84755267, 0.08076498], "xyz": [0.33584457055996, 11.06725377182965, 3.53909380197684], "label": "S", "properties": {}}, {"species": [{"element": "S", "occu": 1}], "abc": [0.27865045, 0.05756544, 0.08239897], "xyz": [2.25896096020595, 0.7516834711488001, 3.61069468495226], "label": "S", "properties": {}}, {"species": [{"element": "S", "occu": 1}], "abc": [0.24190397, 0.55828492, 0.09209774999999999], "xyz": [1.9610649268602698, 7.2900258654434, 4.0356919075694995], "label": "S", "properties": {}}, {"species": [{"element": "S", "occu": 1}], "abc": [0.75394059, 0.4283061, 0.006546080000000001], "xyz": [6.112038789546689, 5.5927760816595, 0.28684698684064003], "label": "S", "properties": {}}, {"species": [{"element": "S", "occu": 1}], "abc": [0.75062031, 0.11217027, 0.09868125999999999], "xyz": [6.085121973525209, 1.46470760778165, 4.324179064209079], "label": "S", "properties": {}}, {"species": [{"element": "S", "occu": 1}], "abc": [0.77715976, 0.5712421, 0.07113461], "xyz": [6.300271747930159, 7.4592193613795, 3.11709428216338], "label": "S", "properties": {}}, {"species": [{"element": "S", "occu": 1}], "abc": [0.18789986, 0.40021741, 0.030680599999999995], "xyz": [1.52326489394926, 5.22599691695195, 1.3444133992347997], "label": "S", "properties": {}}, {"species": [{"element": "S", "occu": 1}], "abc": [0.45876568, 0.85031617, 0.22518573], "xyz": [3.71911748573288, 11.10333926466215, 9.867561675080339], "label": "S", "properties": {}}, {"species": [{"element": "S", "occu": 1}], "abc": [0.53433997, 0.15659148, 0.16230702000000002], "xyz": [4.33178245973627, 2.0447551037346, 7.11223810739916], "label": "S", "properties": {}}, {"species": [{"element": "S", "occu": 1}], "abc": [0.52756653, 0.64899864, 0.15647119], "xyz": [4.276871597305229, 8.4745560962628, 6.85651403265302], "label": "S", "properties": {}}, {"species": [{"element": "S", "occu": 1}], "abc": [0.45407281, 0.34671498, 0.23704208000000002], "xyz": [3.68107336945271, 4.5273678037671, 10.38710287720864], "label": "S", "properties": {}}, {"species": [{"element": "S", "occu": 1}], "abc": [0.02929823, 0.34556693, 0.22964272000000002], "xyz": [0.23751462727993, 4.51237668741235, 10.06286545258976], "label": "S", "properties": {}}, {"species": [{"element": "S", "occu": 1}], "abc": [0.9533174, 0.65561885, 0.15305547], "xyz": [7.728344918463399, 8.56100210332075, 6.706838350429259], "label": "S", "properties": {}}, {"species": [{"element": "S", "occu": 1}], "abc": [0.96099551, 0.14565348, 0.16225128000000003], "xyz": [7.79058975150841, 1.9019278482246, 7.109795599662241], "label": "S", "properties": {}}, {"species": [{"element": "S", "occu": 1}], "abc": [0.03220928, 0.84557031, 0.22516225], "xyz": [0.26111390122048, 11.041368323097451, 9.866532789510499], "label": "S", "properties": {}}, {"species": [{"element": "S", "occu": 1}], "abc": [0.73682155, 0.93744617, 0.15924316000000002], "xyz": [5.97325831014605, 12.24107365601215, 6.977980810039281], "label": "S", "properties": {}}, {"species": [{"element": "S", "occu": 1}], "abc": [0.24080881, 0.06154774, 0.22617703], "xyz": [1.95218669362871, 0.8036839264073, 9.91100010205574], "label": "S", "properties": {}}, {"species": [{"element": "S", "occu": 1}], "abc": [0.24149212, 0.56046591, 0.23267393], "xyz": [1.9577261449869199, 7.318505003859451, 10.19569203811594], "label": "S", "properties": {}}, {"species": [{"element": "S", "occu": 1}], "abc": [0.74829031, 0.43813981, 0.15575152], "xyz": [6.06623315049521, 5.72118363429995, 6.824978339380159], "label": "S", "properties": {}}, {"species": [{"element": "S", "occu": 1}], "abc": [0.25239212, 0.89302122, 0.14425948000000002], "xyz": [2.04609016688692, 11.660977323531899, 6.321401076857841], "label": "S", "properties": {}}, {"species": [{"element": "S", "occu": 1}], "abc": [0.75575034, 0.10477164, 0.24159885], "xyz": [6.12671005455894, 1.3680970740978, 10.5867789801933], "label": "S", "properties": {}}, {"species": [{"element": "S", "occu": 1}], "abc": [0.75338079, 0.60491788, 0.21807852000000003], "xyz": [6.10750060794489, 7.8989541606626, 9.55612616354616], "label": "S", "properties": {}}, {"species": [{"element": "S", "occu": 1}], "abc": [0.26649076, 0.39424245, 0.17029013], "xyz": [2.16038489475116, 5.147976516642751, 7.46205525737554], "label": "S", "properties": {}}, {"species": [{"element": "S", "occu": 1}], "abc": [0.47653628, 0.85197623, 0.37045025], "xyz": [3.8631800258774796, 11.12501615383585, 16.2330032610145], "label": "S", "properties": {}}, {"species": [{"element": "S", "occu": 1}], "abc": [0.54324536, 0.14812963, 0.30505331999999996], "xyz": [4.40397659523976, 1.9342611549288502, 13.367332154164558], "label": "S", "properties": {}}, {"species": [{"element": "S", "occu": 1}], "abc": [0.53598686, 0.65829612, 0.29863914999999996], "xyz": [4.34513345276626, 8.5959616138674, 13.086265418410697], "label": "S", "properties": {}}, {"species": [{"element": "S", "occu": 1}], "abc": [0.46141439, 0.34560409, 0.37615786], "xyz": [3.74059002412249, 4.512861918790549, 16.48310877921188], "label": "S", "properties": {}}, {"species": [{"element": "S", "occu": 1}], "abc": [0.03525767, 0.35149849, 0.37481366], "xyz": [0.28582656183697, 4.58983037507855, 16.42420639492828], "label": "S", "properties": {}}, {"species": [{"element": "S", "occu": 1}], "abc": [0.96142714, 0.6478484, 0.29536387], "xyz": [7.7940888857077395, 8.459536383118, 12.942743768956458], "label": "S", "properties": {}}, {"species": [{"element": "S", "occu": 1}], "abc": [0.9697171, 0.15643414, 0.30508994], "xyz": [7.861293858826099, 2.0427005745353, 13.36893683004052], "label": "S", "properties": {}}, {"species": [{"element": "S", "occu": 1}], "abc": [0.05039918, 0.84767676, 0.36592258], "xyz": [0.40857561883138, 11.0688741260202, 16.034602310077638], "label": "S", "properties": {}}, {"species": [{"element": "S", "occu": 1}], "abc": [0.76395447, 0.93881909, 0.30418027], "xyz": [6.19321922180577, 12.25900110121555, 13.329075401747659], "label": "S", "properties": {}}, {"species": [{"element": "S", "occu": 1}], "abc": [0.25662523, 0.06385262, 0.37119051999999997], "xyz": [2.0804071049369295, 0.8337808074349, 16.26544163924216], "label": "S", "properties": {}}, {"species": [{"element": "S", "occu": 1}], "abc": [0.25371162, 0.56281854, 0.37455585999999996], "xyz": [2.05678707761142, 7.349225399373299, 16.412909687095876], "label": "S", "properties": {}}, {"species": [{"element": "S", "occu": 1}], "abc": [0.73909889, 0.43916308, 0.29765358], "xyz": [5.991720229561989, 5.7345453865166, 13.043078078075638], "label": "S", "properties": {}}, {"species": [{"element": "S", "occu": 1}], "abc": [0.24684117, 0.89546937, 0.28864164999999997], "xyz": [2.00108977538547, 11.692945009176151, 12.648178387555697], "label": "S", "properties": {}}, {"species": [{"element": "S", "occu": 1}], "abc": [0.73889764, 0.11113669, 0.38629683], "xyz": [5.99008873787324, 1.45121122866755, 16.927394977084138], "label": "S", "properties": {}}, {"species": [{"element": "S", "occu": 1}], "abc": [0.75740383, 0.60463238, 0.36045988], "xyz": [6.140114552409529, 7.8952261316401, 15.795228664321039], "label": "S", "properties": {}}, {"species": [{"element": "S", "occu": 1}], "abc": [0.2547623, 0.39573749, 0.31216863], "xyz": [2.0653047207792996, 5.16749859198355, 13.679122604928539], "label": "S", "properties": {}}, {"species": [{"element": "S", "occu": 1}], "abc": [0.54178633, 0.15392107, 0.45246196], "xyz": [4.392148543967029, 2.00988517034765, 19.826728345209677], "label": "S", "properties": {}}, {"species": [{"element": "S", "occu": 1}], "abc": [0.54703657, 0.66040301, 0.4327198], "xyz": [4.43471114234687, 8.62347316226395, 18.9616336458284], "label": "S", "properties": {}}, {"species": [{"element": "S", "occu": 1}], "abc": [0.42572802, 0.32985112, 0.52625834], "xyz": [3.4512880809838196, 4.3071612905924, 23.06046047844772], "label": "S", "properties": {}}, {"species": [{"element": "S", "occu": 1}], "abc": [0.01201173, 0.35904606, 0.51728742], "xyz": [0.09737658465843, 4.6883857516437, 22.66735783210236], "label": "S", "properties": {}}, {"species": [{"element": "S", "occu": 1}], "abc": [0.96921593, 0.65411825, 0.44190824], "xyz": [7.857230978380629, 8.541407426083751, 19.36426794418192], "label": "S", "properties": {}}, {"species": [{"element": "S", "occu": 1}], "abc": [0.96770923, 0.1674814, 0.44634251999999996], "xyz": [7.84501647638093, 2.1869545356530002, 19.558576577258158], "label": "S", "properties": {}}, {"species": [{"element": "S", "occu": 1}], "abc": [0.77780485, 0.94430887, 0.44752879], "xyz": [6.3055013577363495, 12.33068607202865, 19.61055852295382], "label": "S", "properties": {}}, {"species": [{"element": "S", "occu": 1}], "abc": [0.24532188, 0.56767868, 0.5253304200000001], "xyz": [1.9887732088870798, 7.4126885971786, 23.01979934139636], "label": "S", "properties": {}}, {"species": [{"element": "S", "occu": 1}], "abc": [0.749482, 0.44286489, 0.43966321999999997], "xyz": [6.075893932262, 5.78288323280655, 19.265891935578757], "label": "S", "properties": {}}, {"species": [{"element": "S", "occu": 1}], "abc": [0.24968907, 0.88861314, 0.43162423], "xyz": [2.02417710547437, 11.6034170777403, 18.913626143113337], "label": "S", "properties": {}}, {"species": [{"element": "S", "occu": 1}], "abc": [0.69635126, 0.60567778, 0.5001323200000001], "xyz": [5.64517412740666, 7.908876855073101, 21.91562721714656], "label": "S", "properties": {}}, {"species": [{"element": "S", "occu": 1}], "abc": [0.27532319, 0.42521808, 0.46151665], "xyz": [2.2319875587832896, 5.5524530407416, 20.2235017643057], "label": "S", "properties": {}}]}, "formula": "(Li3PS4)14.0", "bandgap": 2.6245000000000003, "slab_thickness": 23.45348950776764}