{"miller": "100_0.20", "final_energy": -487.75492467, "gamma": 0.022530499361935064, "work_function": "Not calculated", "ionization_potentail": "Not calculated", "electron_affinity": "Not calculated", "is_stochiometric": true, "incar_parameters": {"SYSTEM": "unknown system", "LCOMPAT": false, "PREC": "normal", "ENMAX": 520.0, "ENAUG": 628.945, "EDIFF": 1e-05, "IALGO": 38, "IWAVPR": 11, "NBANDS": 324, "NBANDSLOW": -1, "NBANDSHIGH": -1, "NELECT": 532.0, "TURBO": 0, "IRESTART": 0, "NREBOOT": 0, "NMIN": 0, "EREF": 0.0, "ISMEAR": 0, "SIGMA": 0.05, "KSPACING": 0.5, "KGAMMA": true, "KBLOWUP": true, "LREAL": true, "ROPT": [-0.0005, -0.0005, -0.0005], "LMAXPAW": -100, "LMAXMIX": 2, "NLSPLINE": false, "ISTART": 0, "ICHARG": 2, "INIWAV": 1, "ISPIN": 1, "LNONCOLLINEAR": false, "MAGMOM": [0.6, 0.6, 0.6, 0.6, 0.6, 0.6, 0.6, 0.6, 0.6, 0.6, 0.6, 0.6, 0.6, 0.6, 0.6, 0.6, 0.6, 0.6, 0.6, 0.6, 0.6, 0.6, 0.6, 0.6, 0.6, 0.6, 0.6, 0.6, 0.6, 0.6, 0.6, 0.6, 0.6, 0.6, 0.6, 0.6, 0.6, 0.6, 0.6, 0.6, 0.6, 0.6, 0.6, 0.6, 0.6, 0.6, 0.6, 0.6, 0.6, 0.6, 0.6, 0.6, 0.6, 0.6, 0.6, 0.6, 0.6, 0.6, 0.6, 0.6, 0.6, 0.6, 0.6, 0.6, 0.6, 0.6, 0.6, 0.6, 0.6, 0.6, 0.6, 0.6, 0.6, 0.6, 0.6, 0.6, 0.6, 0.6, 0.6, 0.6, 0.6, 0.6, 0.6, 0.6, 0.6, 0.6, 0.6, 0.6, 0.6, 0.6, 0.6, 0.6, 0.6, 0.6, 0.6, 0.6, 0.6, 0.6, 0.6, 0.6, 0.6, 0.6, 0.6, 0.6, 0.6, 0.6, 0.6, 0.6, 0.6, 0.6, 0.6, 0.6], "NUPDOWN": -1.0, "LSORBIT": false, "SAXIS": [0.0, 0.0, 1.0], "LSPIRAL": false, "QSPIRAL": [0.0, 0.0, 0.0], "LZEROZ": false, "LASPH": false, "LMETAGGA": false, "NELM": 100, "NELMDL": -5, "NELMIN": 6, "ENINI": 520.0, "LDIAG": true, "LSUBROT": false, "WEIMIN": 0.001, "EBREAK": 1e-08, "DEPER": 0.3, "NRMM": 4, "TIME": 0.4, "AMIX": 0.4, "BMIX": 1.0, "AMIN": 0.1, "AMIX_MAG": 1.6, "BMIX_MAG": 1.0, "IMIX": 4, "MIXFIRST": false, "MAXMIX": -45, "WC": 100.0, "INIMIX": 1, "MIXPRE": 1, "MREMOVE": 5, "LDIPOL": false, "LMONO": false, "IDIPOL": 0, "EPSILON": 1.0, "DIPOL": [-100.0, -100.0, -100.0], "EFIELD": 0.0, "NGX": 48, "NGY": 80, "NGZ": 250, "NGXF": 96, "NGYF": 160, "NGZF": 500, "ADDGRID": false, "NSW": 150, "IBRION": 2, "MDALGO": 0, "ISIF": 2, "PSTRESS": 0.0, "EDIFFG": -0.01, "NFREE": 1, "POTIM": 0.5, "SMASS": -3.0, "SCALEE": 1.0, "TEBEG": 0.0001, "TEEND": 0.0001, "NBLOCK": 1, "KBLOCK": 150, "NPACO": 256, "APACO": 10.0, "ISYM": 0, "SYMPREC": 1e-05, "LORBIT": 11, "RWIGS": [-1.0, -1.0, -1.0], "NEDOS": 301, "EMIN": 10.0, "EMAX": -10.0, "EFERMI": 0.0, "NWRITE": 2, "LWAVE": false, "LDOWNSAMPLE": false, "LCHARG": false, "LPARD": false, "LVTOT": false, "LVHAR": false, "LELF": false, "LOPTICS": false, "STM": [0.0, 0.0, 0.0, 0.0, 0.0, 0.0, 0.0], "NPAR": 2, "NSIM": 4, "NBLK": -1, "LPLANE": true, "LSCALAPACK": true, "LSCAAWARE": false, "LSCALU": false, "LASYNC": false, "LORBITALREAL": false, "IDIOT": 3, "PHON_NSTRUCT": -1, "LMUSIC": false, "POMASS": [7.01, 30.974, 32.066], "DARWINR": [0.0, 0.0, 0.0], "DARWINV": [1.0, 1.0, 1.0], "LCORR": true, "GGA_COMPAT": true, "LBERRY": false, "ICORELEVEL": 0, "LDAU": false, "I_CONSTRAINED_M": 0, "GGA": "--", "VOSKOWN": 0, "LHFCALC": false, "PRECFOCK": "", "LSYMGRAD": false, "LHFONE": false, "LRHFCALC": false, "LTHOMAS": false, "LMODELHF": false, "LFOCKACE": false, "ENCUT4O": -1.0, "EXXOEP": 0, "FOURORBIT": 0, "AEXX": 0.0, "HFALPHA": 0.0, "MCALPHA": 0.0, "ALDAX": 1.0, "AGGAX": 1.0, "ALDAC": 1.0, "AGGAC": 1.0, "NKREDX": 1, "NKREDY": 1, "NKREDZ": 1, "SHIFTRED": false, "ODDONLY": false, "EVENONLY": false, "LMAXFOCK": 0, "NMAXFOCKAE": 0, "LFOCKAEDFT": false, "HFSCREEN": 0.0, "HFSCREENC": 0.0, "NBANDSGWLOW": 0, "LUSE_VDW": false, "Zab_VDW": -0.8491, "PARAM1": 0.1234, "PARAM2": 1.0, "PARAM3": 0.0, "MODEL_GW": 0, "MODEL_EPS0": 24.84988368, "MODEL_ALPHA": 1.0, "LEPSILON": false, "LRPA": false, "LNABLA": false, "LVEL": false, "CSHIFT": 0.1, "OMEGAMAX": -1.0, "DEG_THRESHOLD": 0.002, "RTIME": -0.1, "WPLASMAI": 0.0, "DFIELD": [0.0, 0.0, 0.0], "WPLASMA": [0.0, 0.0, 0.0, 0.0, 0.0, 0.0, 0.0, 0.0, 0.0], "NUCIND": false, "MAGPOS": [0.0, 0.0, 0.0], "LNICSALL": true, "ORBITALMAG": false, "LMAGBLOCH": false, "LCHIMAG": false, "LGAUGE": true, "MAGATOM": 0, "MAGDIPOL": [0.0, 0.0, 0.0], "AVECCONST": [0.0, 0.0, 0.0], "LFINITE_TEMPERATURE": false, "LADDER": false, "LRPAFORCE": false, "LFXC": false, "LHARTREE": true, "IBSE": 0, "KPOINT": [-1, 0, 0, 0], "LTCTC": false, "LTCTE": false, "LTETE": false, "LTRIPLET": false, "LFXCEPS": false, "LFXHEG": false, "NATURALO": 2, "LHOLEGF": false, "L2ORDER": false, "LDMP1": false, "LMP2LT": false, "LSMP2LT": false, "LGWLF": false, "ENCUTGW": -2.0, "ENCUTGWSOFT": -2.0, "ENCUTLF": -1.0, "LESF_SPLINES": false, "LMAXMP2": -1, "SCISSOR": 0.0, "NOMEGA": 0, "NOMEGAR": 0, "NBANDSGW": -1, "NBANDSO": -1, "NBANDSV": -1, "NELMGW": 1, "NELMHF": 1, "DIM": 3, "IESPILON": 4, "ANTIRES": 0, "OMEGAMIN": -30.0, "OMEGATL": -200.0, "OMEGAGRID": 0, "LSELFENERGY": false, "LSPECTRAL": false, "LSPECTRALGW": false, "LSINGLES": false, "LFERMIGW": false, "ODDONLYGW": false, "EVENONLYGW": false, "NKREDLFX": 1, "NKREDLFY": 1, "NKREDLFZ": 1, "MAXMEM": 2800, "TELESCOPE": 0, "NTAUPAR": -1, "NOMEGAPAR": -1, "DAMP_NEWTON": 0.80000001, "LAMBDA": 1.0, "OFIELD_KAPPA": 0.0, "OFIELD_K": [0.0, 0.0, 0.0], "OFIELD_Q6_NEAR": 0.0, "OFIELD_Q6_FAR": 0.0, "OFIELD_A": 0.0, "KPOINTS_OPT_MODE": 1, "LKPOINTS_OPT": false, "@module": "pymatgen.io.vasp.inputs", "@class": "Incar"}, "relaxed_structures": {"@module": "pymatgen.core.structure", "@class": "Structure", "charge": 0, "lattice": {"matrix": [[8.106791, 0.0, 0.0], [0.0, 13.057895, 0.0], [0.0, 0.0, 43.819658]], "a": 8.106791, "b": 13.057895, "c": 43.819658, "alpha": 90.0, "beta": 90.0, "gamma": 90.0, "volume": 4638.644953329912}, "sites": [{"species": [{"element": "Li", "occu": 1}], "abc": [0.96310526, 0.82395185, 0.12676490999999998], "xyz": [7.8076930538206595, 10.75907674235575, 5.554795002600779], "label": "Li", "properties": {}}, {"species": [{"element": "Li", "occu": 1}], "abc": [0.05095962, 0.19092759, 0.10275454999999997], "xyz": [0.41311898877941994, 2.4931124228230503, 4.5026692389438985], "label": "Li", "properties": {}}, {"species": [{"element": "Li", "occu": 1}], "abc": [0.0687372, 0.63960586, 0.04577283999999998], "xyz": [0.5572381143252, 8.351906161264699, 2.005750194488719], "label": "Li", "properties": {}}, {"species": [{"element": "Li", "occu": 1}], "abc": [0.88326503, 0.43855631, 0.04233810999999998], "xyz": [7.16044499581873, 5.72662224756745, 1.855241500566379], "label": "Li", "properties": {}}, {"species": [{"element": "Li", "occu": 1}], "abc": [0.43929165, 0.51997307, 9.999999999998899e-05], "xyz": [3.5612455945951496, 6.789753750887651, 0.004381965799999517], "label": "Li", "properties": {}}, {"species": [{"element": "Li", "occu": 1}], "abc": [0.49507043, 0.67923601, 0.06201407999999998], "xyz": [4.01343250629013, 8.86939249879895, 2.717435776784639], "label": "Li", "properties": {}}, {"species": [{"element": "Li", "occu": 1}], "abc": [0.45920686, 0.20146348, 0.10305891999999997], "xyz": [3.72269403978626, 2.6306889681746, 4.516006628249358], "label": "Li", "properties": {}}, {"species": [{"element": "Li", "occu": 1}], "abc": [0.52244277, 0.83658631, 0.13830392999999996], "xyz": [4.2353343458510695, 10.924056194417451, 6.060430912655938], "label": "Li", "properties": {}}, {"species": [{"element": "Li", "occu": 1}], "abc": [0.98200229, 0.0141475, 0.06356721999999998], "xyz": [7.96088732655139, 0.1847365695125, 2.785493840410759], "label": "Li", "properties": {}}, {"species": [{"element": "Li", "occu": 1}], "abc": [0.0730603, 0.50350164, 0.12447892999999997], "xyz": [0.5922845824972999, 6.5746715474477995, 5.454624140805938], "label": "Li", "properties": {}}, {"species": [{"element": "Li", "occu": 1}], "abc": [0.57806065, 0.50228657, 0.09965093999999998], "xyz": [4.686216874874149, 6.55880529097015, 4.366670110178519], "label": "Li", "properties": {}}, {"species": [{"element": "Li", "occu": 1}], "abc": [0.53132274, 0.02132699, 0.06463740999999998], "xyz": [4.30732240672734, 0.27848559608605, 2.8323892002057787], "label": "Li", "properties": {}}, {"species": [{"element": "Li", "occu": 1}], "abc": [0.97002167, 0.83888434, 0.27491164999999995], "xyz": [7.863762944160969, 10.9540636288643, 12.046534483215696], "label": "Li", "properties": {}}, {"species": [{"element": "Li", "occu": 1}], "abc": [0.03112919, 0.16006089, 0.24361005999999996], "xyz": [0.25235783732929, 2.0900582952265503, 10.674909514559477], "label": "Li", "properties": {}}, {"species": [{"element": "Li", "occu": 1}], "abc": [0.02685879, 0.67488461, 0.20364255999999997], "xyz": [0.21773859704288998, 8.81257237449595, 8.923547333444478], "label": "Li", "properties": {}}, {"species": [{"element": "Li", "occu": 1}], "abc": [0.96234759, 0.33537369, 0.17352179999999998], "xyz": [7.80155078148369, 4.3792744297825505, 7.603665931544398], "label": "Li", "properties": {}}, {"species": [{"element": "Li", "occu": 1}], "abc": [0.53420825, 0.34399273, 0.17248070999999998], "xyz": [4.3307146332257505, 4.49182094910335, 7.5580457237971785], "label": "Li", "properties": {}}, {"species": [{"element": "Li", "occu": 1}], "abc": [0.46667132, 0.6591553, 0.20295652999999997], "xyz": [3.7832068569341195, 8.6071806960935, 8.893485733466738], "label": "Li", "properties": {}}, {"species": [{"element": "Li", "occu": 1}], "abc": [0.46294309, 0.17604518, 0.24571435999999997], "xyz": [3.75298287552419, 2.2987794756961, 10.767119220888878], "label": "Li", "properties": {}}, {"species": [{"element": "Li", "occu": 1}], "abc": [0.54043429, 0.82596574, 0.27132187999999996], "xyz": [4.38118783826339, 10.7853739065173, 11.889231989517038], "label": "Li", "properties": {}}, {"species": [{"element": "Li", "occu": 1}], "abc": [0.04864086, 0.99372357, 0.17923326999999997], "xyz": [0.39432128608025996, 12.97593803608515, 7.853940593621658], "label": "Li", "properties": {}}, {"species": [{"element": "Li", "occu": 1}], "abc": [0.94794033, 0.50808165, 0.25050854], "xyz": [7.68475413578103, 6.63447683712675, 10.977198548879318], "label": "Li", "properties": {}}, {"species": [{"element": "Li", "occu": 1}], "abc": [0.44919055, 0.49381134, 0.26747094999999993], "xyz": [3.64149390802505, 6.4481366275293, 11.720485553935097], "label": "Li", "properties": {}}, {"species": [{"element": "Li", "occu": 1}], "abc": [0.54541865, 0.01374875, 0.19576081999999997], "xyz": [4.42159500305215, 0.17952973388125001, 8.578172182199559], "label": "Li", "properties": {}}, {"species": [{"element": "Li", "occu": 1}], "abc": [0.95628398, 0.80802475, 0.41551658999999996], "xyz": [7.75239436250818, 10.551102342901249, 18.207794867126218], "label": "Li", "properties": {}}, {"species": [{"element": "Li", "occu": 1}], "abc": [0.03329036, 0.17842444, 0.39017321999999993], "xyz": [0.26987799083475994, 2.3298476029538, 17.097257061158757], "label": "Li", "properties": {}}, {"species": [{"element": "Li", "occu": 1}], "abc": [0.04011746, 0.66282, 0.34309651999999996], "xyz": [0.32522386367086, 8.6550339639, 15.034372167390158], "label": "Li", "properties": {}}, {"species": [{"element": "Li", "occu": 1}], "abc": [0.97496884, 0.33494139, 0.31005450999999995], "xyz": [7.903868617392439, 4.37362950177405, 13.586482589557576], "label": "Li", "properties": {}}, {"species": [{"element": "Li", "occu": 1}], "abc": [0.53823719, 0.33325804, 0.3182671899999999], "xyz": [4.36337640775729, 4.3516484942258, 13.946359418421016], "label": "Li", "properties": {}}, {"species": [{"element": "Li", "occu": 1}], "abc": [0.46824599, 0.65669244, 0.34766928999999996], "xyz": [3.7959723775180896, 8.575020928813801, 15.234749384902818], "label": "Li", "properties": {}}, {"species": [{"element": "Li", "occu": 1}], "abc": [0.4755483, 0.16224896, 0.3815442499999999], "xyz": [3.8551706785052997, 2.1186298835392, 16.719138546866496], "label": "Li", "properties": {}}, {"species": [{"element": "Li", "occu": 1}], "abc": [0.54639369, 0.79882608, 0.41461269999999995], "xyz": [4.42949944854879, 10.4309870759016, 18.168186716456596], "label": "Li", "properties": {}}, {"species": [{"element": "Li", "occu": 1}], "abc": [0.95150138, 0.00635965, 0.33908596999999996], "xyz": [7.713622823871579, 0.08304364193675, 14.858631237998257], "label": "Li", "properties": {}}, {"species": [{"element": "Li", "occu": 1}], "abc": [0.92803861, 0.49361932, 0.39260249999999997], "xyz": [7.52341505120051, 6.4456292505313995, 17.203707279944997], "label": "Li", "properties": {}}, {"species": [{"element": "Li", "occu": 1}], "abc": [0.42694654, 0.4929069, 0.41826497999999995], "xyz": [3.4611663679531395, 6.4363265449755, 18.32822837697684], "label": "Li", "properties": {}}, {"species": [{"element": "Li", "occu": 1}], "abc": [0.45410735, 0.98660388, 0.32172129999999993], "xyz": [3.68135337801385, 12.8829698716326, 14.097717337315396], "label": "Li", "properties": {}}, {"species": [{"element": "Li", "occu": 1}], "abc": [0.12143584, 0.56122577, 0.47543136999999996], "xyz": [0.98445497478944, 7.3284271759541495, 20.83324003587146], "label": "Li", "properties": {}}, {"species": [{"element": "Li", "occu": 1}], "abc": [0.93372169, 0.3615461, 0.47356848999999995], "xyz": [7.56948659299679, 4.7210310114595, 20.751609271376417], "label": "Li", "properties": {}}, {"species": [{"element": "Li", "occu": 1}], "abc": [0.50953827, 0.31883091, 0.45663937999999993], "xyz": [4.130720261391569, 4.163260545534451, 20.009781460932036], "label": "Li", "properties": {}}, {"species": [{"element": "Li", "occu": 1}], "abc": [0.56519757, 0.48415956, 0.51779463], "xyz": [4.58193857369787, 6.3221046977262, 22.68958360083654], "label": "Li", "properties": {}}, {"species": [{"element": "Li", "occu": 1}], "abc": [0.02504592, 0.98662336, 0.45360332999999997], "xyz": [0.20304203884271999, 12.8832242394272, 19.876742788261136], "label": "Li", "properties": {}}, {"species": [{"element": "Li", "occu": 1}], "abc": [0.4747879, 0.97578537, 0.45357055999999996], "xyz": [3.8490062746288998, 12.741702903996151, 19.875306818068477], "label": "Li", "properties": {}}, {"species": [{"element": "P", "occu": 1}], "abc": [0.2545245, 0.91602209, 0.09590309999999998], "xyz": [2.0633769258794996, 11.96132026890055, 4.202441043139799], "label": "P", "properties": {}}, {"species": [{"element": "P", "occu": 1}], "abc": [0.75697125, 0.09248379, 0.13807527999999997], "xyz": [6.13660771675875, 1.20764361902205, 6.050411547854238], "label": "P", "properties": {}}, {"species": [{"element": "P", "occu": 1}], "abc": [0.7381863, 0.6241211, 0.015780239999999977], "xyz": [5.984322053163299, 8.1497077910845, 0.6914847199579189], "label": "P", "properties": {}}, {"species": [{"element": "P", "occu": 1}], "abc": [0.25267298, 0.42788038, 0.06553580999999997], "xyz": [2.0483670402071796, 5.5872170746001, 2.8717567809529787], "label": "P", "properties": {}}, {"species": [{"element": "P", "occu": 1}], "abc": [0.2571713, 0.91280572, 0.23599192999999996], "xyz": [2.0848339802982996, 11.9193212471594, 10.341085663359937], "label": "P", "properties": {}}, {"species": [{"element": "P", "occu": 1}], "abc": [0.74337856, 0.08770342, 0.28187697999999994], "xyz": [6.02641461980096, 1.1452220495009, 12.351752861672837], "label": "P", "properties": {}}, {"species": [{"element": "P", "occu": 1}], "abc": [0.75386841, 0.58963923, 0.16521990999999997], "xyz": [6.11145364137231, 7.6994471532208495, 7.239879950990778], "label": "P", "properties": {}}, {"species": [{"element": "P", "occu": 1}], "abc": [0.24388121, 0.4104243, 0.21075356999999997], "xyz": [1.9770939982971099, 5.3592774148485, 9.235149359679058], "label": "P", "properties": {}}, {"species": [{"element": "P", "occu": 1}], "abc": [0.24574528, 0.90750038, 0.37987016999999995], "xyz": [1.9922056241964798, 11.8500446745001, 16.645780933801856], "label": "P", "properties": {}}, {"species": [{"element": "P", "occu": 1}], "abc": [0.7491008, 0.0831856, 0.4224277799999999], "xyz": [6.0728036235328, 1.086228830312, 18.510640849299236], "label": "P", "properties": {}}, {"species": [{"element": "P", "occu": 1}], "abc": [0.74802881, 0.59066026, 0.30751054999999994], "xyz": [6.064113224648709, 7.7127796557527, 13.475007132391896], "label": "P", "properties": {}}, {"species": [{"element": "P", "occu": 1}], "abc": [0.24920999, 0.40955301, 0.35248160999999995], "xyz": [2.02029330404209, 5.34790020151395, 15.445623601489377], "label": "P", "properties": {}}, {"species": [{"element": "P", "occu": 1}], "abc": [0.7518877, 0.57115412, 0.45180736999999993], "xyz": [6.0953964393707, 7.4580705277774, 19.798044435279454], "label": "P", "properties": {}}, {"species": [{"element": "P", "occu": 1}], "abc": [0.26730979, 0.37739286, 0.50276212], "xyz": [2.1670245997838897, 4.9279563396297, 22.03086415375496], "label": "P", "properties": {}}, {"species": [{"element": "S", "occu": 1}], "abc": [0.47934086, 0.8581563, 0.08297815999999997], "xyz": [3.8859161697802596, 11.2057148589885, 3.6360745926692783], "label": "S", "properties": {}}, {"species": [{"element": "S", "occu": 1}], "abc": [0.51340795, 0.69369232, 0.009009999999999976], "xyz": [4.16209094838845, 9.0581614768664, 0.39481511857999896], "label": "S", "properties": {}}, {"species": [{"element": "S", "occu": 1}], "abc": [0.46826365, 0.34793046, 0.07140354999999997], "xyz": [3.7961155434471494, 4.5432394139817, 3.1288791409858985], "label": "S", "properties": {}}, {"species": [{"element": "S", "occu": 1}], "abc": [0.04932861, 0.3626175, 0.08701331999999998], "xyz": [0.39989673159051, 4.7350212401625, 3.812893923844559], "label": "S", "properties": {}}, {"species": [{"element": "S", "occu": 1}], "abc": [0.93039827, 0.70831077, 0.001875749999999976], "xyz": [7.542544321651569, 9.24904766202915, 0.08219472349349895], "label": "S", "properties": {}}, {"species": [{"element": "S", "occu": 1}], "abc": [0.05999138, 0.84689719, 0.07469596999999997], "xyz": [0.48633757946157996, 11.05869458281505, 3.2731518593782587], "label": "S", "properties": {}}, {"species": [{"element": "S", "occu": 1}], "abc": [0.2558889, 0.07089552, 0.08030462999999997], "xyz": [2.0744378315198997, 0.9257462561304001, 3.518921422416539], "label": "S", "properties": {}}, {"species": [{"element": "S", "occu": 1}], "abc": [0.28160991, 0.56924818, 0.08712468999999998], "xyz": [2.28295268389881, 7.4331829633811, 3.817774119156019], "label": "S", "properties": {}}, {"species": [{"element": "S", "occu": 1}], "abc": [0.72517034, 0.4788921, 0.99762026], "xyz": [5.87880438577894, 6.2533227581295, 43.71537860707108], "label": "S", "properties": {}}, {"species": [{"element": "S", "occu": 1}], "abc": [0.23801153, 0.89968935, 0.14222244999999997], "xyz": [1.92950972930023, 11.74804906491825, 6.232139118922098], "label": "S", "properties": {}}, {"species": [{"element": "S", "occu": 1}], "abc": [0.75834403, 0.11398491, 0.09043278999999997], "xyz": [6.147736557307729, 1.48840298636445, 3.9627339297858186], "label": "S", "properties": {}}, {"species": [{"element": "S", "occu": 1}], "abc": [0.77437777, 0.60322668, 0.06446022999999998], "xyz": [6.27771873643607, 7.8768706486386, 2.824625233201339], "label": "S", "properties": {}}, {"species": [{"element": "S", "occu": 1}], "abc": [0.18209869, 0.4511181, 0.021764849999999978], "xyz": [1.47623602120379, 5.8906527823995, 0.953728283421299], "label": "S", "properties": {}}, {"species": [{"element": "S", "occu": 1}], "abc": [0.46562209, 0.84572751, 0.21788218999999998], "xyz": [3.77470096861319, 11.043421024191451, 9.547523050091018], "label": "S", "properties": {}}, {"species": [{"element": "S", "occu": 1}], "abc": [0.54551439, 0.15724082, 0.15471524999999997], "xyz": [4.42237114722249, 2.0532341172739, 6.779569342384498], "label": "S", "properties": {}}, {"species": [{"element": "S", "occu": 1}], "abc": [0.54283034, 0.65319442, 0.14858046999999996], "xyz": [4.400612114838939, 8.529344150945901, 6.510745380879258], "label": "S", "properties": {}}, {"species": [{"element": "S", "occu": 1}], "abc": [0.46067007, 0.35145398, 0.22735911999999997], "xyz": [3.73455597744537, 4.5892491681721, 9.962798881580959], "label": "S", "properties": {}}, {"species": [{"element": "S", "occu": 1}], "abc": [0.03309844, 0.34265085, 0.22777992999999996], "xyz": [0.26832213550604, 4.47429882096075, 9.981238631863938], "label": "S", "properties": {}}, {"species": [{"element": "S", "occu": 1}], "abc": [0.96940235, 0.65634077, 0.15007287999999996], "xyz": [7.858742246358849, 8.57042885887915, 6.576142276675038], "label": "S", "properties": {}}, {"species": [{"element": "S", "occu": 1}], "abc": [0.96939435, 0.15768168, 0.15438874999999996], "xyz": [7.858677392030849, 2.0589908208636, 6.765262224047498], "label": "S", "properties": {}}, {"species": [{"element": "S", "occu": 1}], "abc": [0.03877861, 0.85498533, 0.21989256999999998], "xyz": [0.31437008654050996, 11.16430866568035, 9.635617214141059], "label": "S", "properties": {}}, {"species": [{"element": "S", "occu": 1}], "abc": [0.76086797, 0.94315423, 0.15339772999999998], "xyz": [6.16819761138427, 12.31560890414585, 6.721836066576339], "label": "S", "properties": {}}, {"species": [{"element": "S", "occu": 1}], "abc": [0.26136341, 0.06372148, 0.22033635], "xyz": [2.11881853991731, 0.8320683950846, 9.655063501968298], "label": "S", "properties": {}}, {"species": [{"element": "S", "occu": 1}], "abc": [0.23826602, 0.56062712, 0.22674457999999997], "xyz": [1.9315728265418197, 7.3206100671124, 9.935869948953638], "label": "S", "properties": {}}, {"species": [{"element": "S", "occu": 1}], "abc": [0.75596629, 0.44078918, 0.14810389999999998], "xyz": [6.12846071607539, 5.7557788295761005, 6.489862246466199], "label": "S", "properties": {}}, {"species": [{"element": "S", "occu": 1}], "abc": [0.25885091, 0.89475459, 0.28245128999999997], "xyz": [2.09845022752981, 11.68361148698805, 12.376918929458817], "label": "S", "properties": {}}, {"species": [{"element": "S", "occu": 1}], "abc": [0.7426298, 0.10459418, 0.23535665999999997], "xyz": [6.0203445789718, 1.3657798200511, 10.313248349222278], "label": "S", "properties": {}}, {"species": [{"element": "S", "occu": 1}], "abc": [0.75046903, 0.60008869, 0.21208522999999999], "xyz": [6.083895578182729, 7.83589510470755, 9.29350224545134], "label": "S", "properties": {}}, {"species": [{"element": "S", "occu": 1}], "abc": [0.2455322, 0.3951045, 0.16426866999999998], "xyz": [1.9904782291702, 5.1592330750275, 7.198196939514858], "label": "S", "properties": {}}, {"species": [{"element": "S", "occu": 1}], "abc": [0.45798614, 0.84421136, 0.36322590999999993], "xyz": [3.7127979178767396, 11.0236232966872, 15.916435152938776], "label": "S", "properties": {}}, {"species": [{"element": "S", "occu": 1}], "abc": [0.53232615, 0.15360187, 0.29939316999999993], "xyz": [4.31545684188465, 2.00571709026365, 13.119306316935855], "label": "S", "properties": {}}, {"species": [{"element": "S", "occu": 1}], "abc": [0.52993427, 0.65531937, 0.29293889999999995], "xyz": [4.29606637062757, 8.55709152492615, 12.836482412896197], "label": "S", "properties": {}}, {"species": [{"element": "S", "occu": 1}], "abc": [0.45468428, 0.3457054, 0.37158416999999994], "xyz": [3.6860304289454797, 4.514184814133, 16.282691247613855], "label": "S", "properties": {}}, {"species": [{"element": "S", "occu": 1}], "abc": [0.02888221, 0.34316503, 0.36504377999999993], "xyz": [0.23414204008810996, 4.4810129294118495, 15.996093594627236], "label": "S", "properties": {}}, {"species": [{"element": "S", "occu": 1}], "abc": [0.9569473, 0.65410894, 0.28886776999999997], "xyz": [7.757771759114299, 8.5412858570813, 12.658086888622657], "label": "S", "properties": {}}, {"species": [{"element": "S", "occu": 1}], "abc": [0.95882485, 0.14788775, 0.29841830999999996], "xyz": [7.772992664556349, 1.9311027112862502, 13.076588285137978], "label": "S", "properties": {}}, {"species": [{"element": "S", "occu": 1}], "abc": [0.03404904, 0.84114743, 0.36355574999999996], "xyz": [0.27602845103064, 10.98361482045985, 15.930888628933497], "label": "S", "properties": {}}, {"species": [{"element": "S", "occu": 1}], "abc": [0.74071316, 0.93695475, 0.29775527999999996], "xyz": [6.004806779069559, 12.23465674525125, 13.047534537294236], "label": "S", "properties": {}}, {"species": [{"element": "S", "occu": 1}], "abc": [0.23951475, 0.05706444, 0.3647578799999999], "xyz": [1.94169601966725, 0.7451414657538, 15.983565554405036], "label": "S", "properties": {}}, {"species": [{"element": "S", "occu": 1}], "abc": [0.24382916, 0.55802188, 0.36968568999999996], "xyz": [1.9766720398255597, 7.2865911167426, 16.19950050329402], "label": "S", "properties": {}}, {"species": [{"element": "S", "occu": 1}], "abc": [0.74216243, 0.44091025, 0.29113311], "xyz": [6.01655570806213, 5.75735974892375, 12.757353312676377], "label": "S", "properties": {}}, {"species": [{"element": "S", "occu": 1}], "abc": [0.24548322, 0.8851505, 0.42752021999999995], "xyz": [1.99008115854702, 11.5582022881975, 18.733789828484756], "label": "S", "properties": {}}, {"species": [{"element": "S", "occu": 1}], "abc": [0.76017975, 0.09982661, 0.37605439999999996], "xyz": [6.16261835568225, 1.30352539158595, 16.478575197395198], "label": "S", "properties": {}}, {"species": [{"element": "S", "occu": 1}], "abc": [0.75649791, 0.60478342, 0.35399994999999995], "xyz": [6.132770448306809, 7.8971983961009, 15.512156741017098], "label": "S", "properties": {}}, {"species": [{"element": "S", "occu": 1}], "abc": [0.25959911, 0.39810069, 0.30569642999999996], "xyz": [2.10451572855601, 5.19835700944755, 13.395513014420937], "label": "S", "properties": {}}, {"species": [{"element": "S", "occu": 1}], "abc": [0.52495338, 0.14007289, 0.4362726599999999], "xyz": [4.25568733640358, 1.8290570899665501, 19.117318755950276], "label": "S", "properties": {}}, {"species": [{"element": "S", "occu": 1}], "abc": [0.53552209, 0.64963135, 0.44524827999999994], "xyz": [4.3413656595131895, 8.482817957008251, 19.510627354688236], "label": "S", "properties": {}}, {"species": [{"element": "S", "occu": 1}], "abc": [0.49307004, 0.30925221, 0.50974982], "xyz": [3.99721576264164, 4.038182886697951, 22.33706277796156], "label": "S", "properties": {}}, {"species": [{"element": "S", "occu": 1}], "abc": [0.07577247, 0.29339174, 0.51710607], "xyz": [0.61427157784377, 3.8310785347873004, 22.659411137124057], "label": "S", "properties": {}}, {"species": [{"element": "S", "occu": 1}], "abc": [0.95475006, 0.63496095, 0.42993243999999997], "xyz": [7.739959193657459, 8.29125341420025, 18.839492483905516], "label": "S", "properties": {}}, {"species": [{"element": "S", "occu": 1}], "abc": [0.94515162, 0.15339224, 0.44277430999999995], "xyz": [7.662146646651419, 2.0029797637348, 19.402218835385977], "label": "S", "properties": {}}, {"species": [{"element": "S", "occu": 1}], "abc": [0.75016835, 0.92811399, 0.43789877999999993], "xyz": [6.08145802826485, 12.11921502945105, 19.188574778217237], "label": "S", "properties": {}}, {"species": [{"element": "S", "occu": 1}], "abc": [0.27908793, 0.52341869, 0.52039304], "xyz": [2.2625075191326296, 6.83474629505755, 22.803445038380318], "label": "S", "properties": {}}, {"species": [{"element": "S", "occu": 1}], "abc": [0.72469897, 0.42785807, 0.43130541999999994], "xyz": [5.87498308770527, 5.5869257529626495, 18.899655997946358], "label": "S", "properties": {}}, {"species": [{"element": "S", "occu": 1}], "abc": [0.82191404, 0.55230616, 0.49584571999999993], "xyz": [6.6630853422456395, 7.2119558451332, 21.727789871163754], "label": "S", "properties": {}}, {"species": [{"element": "S", "occu": 1}], "abc": [0.23013602, 0.39566316, 0.4540755799999999], "xyz": [1.8656646157118197, 5.1665279986482, 19.897436621751634], "label": "S", "properties": {}}]}, "formula": "(Li3PS4)14.0", "bandgap": 1.2888000000000002, "slab_thickness": 43.71099664127108}