{"miller": "101_0.09", "final_energy": -559.93498617, "gamma": 0.012567571461037126, "work_function": "Not calculated", "ionization_potentail": "Not calculated", "electron_affinity": "Not calculated", "is_stochiometric": true, "incar_parameters": {"SYSTEM": "unknown system", "LCOMPAT": false, "PREC": "normal", "ENMAX": 520.0, "ENAUG": 628.945, "EDIFF": 1e-05, "IALGO": 38, "IWAVPR": 11, "NBANDS": 370, "NBANDSLOW": -1, "NBANDSHIGH": -1, "NELECT": 608.0, "TURBO": 0, "IRESTART": 0, "NREBOOT": 0, "NMIN": 0, "EREF": 0.0, "ISMEAR": 0, "SIGMA": 0.05, "KSPACING": 0.5, "KGAMMA": true, "KBLOWUP": true, "LREAL": true, "ROPT": [-0.0005, -0.0005, -0.0005], "LMAXPAW": -100, "LMAXMIX": 2, "NLSPLINE": false, "ISTART": 0, "ICHARG": 2, "INIWAV": 1, "ISPIN": 1, "LNONCOLLINEAR": false, "MAGMOM": [0.6, 0.6, 0.6, 0.6, 0.6, 0.6, 0.6, 0.6, 0.6, 0.6, 0.6, 0.6, 0.6, 0.6, 0.6, 0.6, 0.6, 0.6, 0.6, 0.6, 0.6, 0.6, 0.6, 0.6, 0.6, 0.6, 0.6, 0.6, 0.6, 0.6, 0.6, 0.6, 0.6, 0.6, 0.6, 0.6, 0.6, 0.6, 0.6, 0.6, 0.6, 0.6, 0.6, 0.6, 0.6, 0.6, 0.6, 0.6, 0.6, 0.6, 0.6, 0.6, 0.6, 0.6, 0.6, 0.6, 0.6, 0.6, 0.6, 0.6, 0.6, 0.6, 0.6, 0.6, 0.6, 0.6, 0.6, 0.6, 0.6, 0.6, 0.6, 0.6, 0.6, 0.6, 0.6, 0.6, 0.6, 0.6, 0.6, 0.6, 0.6, 0.6, 0.6, 0.6, 0.6, 0.6, 0.6, 0.6, 0.6, 0.6, 0.6, 0.6, 0.6, 0.6, 0.6, 0.6, 0.6, 0.6, 0.6, 0.6, 0.6, 0.6, 0.6, 0.6, 0.6, 0.6, 0.6, 0.6, 0.6, 0.6, 0.6, 0.6, 0.6, 0.6, 0.6, 0.6, 0.6, 0.6, 0.6, 0.6, 0.6, 0.6, 0.6, 0.6, 0.6, 0.6, 0.6, 0.6], "NUPDOWN": -1.0, "LSORBIT": false, "SAXIS": [0.0, 0.0, 1.0], "LSPIRAL": false, "QSPIRAL": [0.0, 0.0, 0.0], "LZEROZ": false, "LASPH": false, "LMETAGGA": false, "NELM": 100, "NELMDL": -5, "NELMIN": 6, "ENINI": 520.0, "LDIAG": true, "LSUBROT": false, "WEIMIN": 0.001, "EBREAK": 1e-08, "DEPER": 0.3, "NRMM": 4, "TIME": 0.4, "AMIX": 0.4, "BMIX": 1.0, "AMIN": 0.1, "AMIX_MAG": 1.6, "BMIX_MAG": 1.0, "IMIX": 4, "MIXFIRST": false, "MAXMIX": -45, "WC": 100.0, "INIMIX": 1, "MIXPRE": 1, "MREMOVE": 5, "LDIPOL": false, "LMONO": false, "IDIPOL": 0, "EPSILON": 1.0, "DIPOL": [-100.0, -100.0, -100.0], "EFIELD": 0.0, "NGX": 48, "NGY": 84, "NGZ": 252, "NGXF": 96, "NGYF": 168, "NGZF": 504, "ADDGRID": false, "NSW": 150, "IBRION": 2, "MDALGO": 0, "ISIF": 2, "PSTRESS": 0.0, "EDIFFG": -0.01, "NFREE": 1, "POTIM": 0.5, "SMASS": -3.0, "SCALEE": 1.0, "TEBEG": 0.0001, "TEEND": 0.0001, "NBLOCK": 1, "KBLOCK": 150, "NPACO": 256, "APACO": 10.0, "ISYM": 0, "SYMPREC": 1e-05, "LORBIT": 11, "RWIGS": [-1.0, -1.0, -1.0], "NEDOS": 301, "EMIN": 10.0, "EMAX": -10.0, "EFERMI": 0.0, "NWRITE": 2, "LWAVE": false, "LDOWNSAMPLE": false, "LCHARG": false, "LPARD": false, "LVTOT": false, "LVHAR": false, "LELF": false, "LOPTICS": false, "STM": [0.0, 0.0, 0.0, 0.0, 0.0, 0.0, 0.0], "NPAR": 2, "NSIM": 4, "NBLK": -1, "LPLANE": true, "LSCALAPACK": true, "LSCAAWARE": false, "LSCALU": false, "LASYNC": false, "LORBITALREAL": false, "IDIOT": 3, "PHON_NSTRUCT": -1, "LMUSIC": false, "POMASS": [7.01, 30.974, 32.066], "DARWINR": [0.0, 0.0, 0.0], "DARWINV": [1.0, 1.0, 1.0], "LCORR": true, "GGA_COMPAT": true, "LBERRY": false, "ICORELEVEL": 0, "LDAU": false, "I_CONSTRAINED_M": 0, "GGA": "--", "VOSKOWN": 0, "LHFCALC": false, "PRECFOCK": "", "LSYMGRAD": false, "LHFONE": false, "LRHFCALC": false, "LTHOMAS": false, "LMODELHF": false, "LFOCKACE": false, "ENCUT4O": -1.0, "EXXOEP": 0, "FOURORBIT": 0, "AEXX": 0.0, "HFALPHA": 0.0, "MCALPHA": 0.0, "ALDAX": 1.0, "AGGAX": 1.0, "ALDAC": 1.0, "AGGAC": 1.0, "NKREDX": 1, "NKREDY": 1, "NKREDZ": 1, "SHIFTRED": false, "ODDONLY": false, "EVENONLY": false, "LMAXFOCK": 0, "NMAXFOCKAE": 0, "LFOCKAEDFT": false, "HFSCREEN": 0.0, "HFSCREENC": 0.0, "NBANDSGWLOW": 0, "LUSE_VDW": false, "Zab_VDW": -0.8491, "PARAM1": 0.1234, "PARAM2": 1.0, "PARAM3": 0.0, "MODEL_GW": 0, "MODEL_EPS0": 24.8498827, "MODEL_ALPHA": 1.0, "LEPSILON": false, "LRPA": false, "LNABLA": false, "LVEL": false, "CSHIFT": 0.1, "OMEGAMAX": -1.0, "DEG_THRESHOLD": 0.002, "RTIME": -0.1, "WPLASMAI": 0.0, "DFIELD": [0.0, 0.0, 0.0], "WPLASMA": [0.0, 0.0, 0.0, 0.0, 0.0, 0.0, 0.0, 0.0, 0.0], "NUCIND": false, "MAGPOS": [0.0, 0.0, 0.0], "LNICSALL": true, "ORBITALMAG": false, "LMAGBLOCH": false, "LCHIMAG": false, "LGAUGE": true, "MAGATOM": 0, "MAGDIPOL": [0.0, 0.0, 0.0], "AVECCONST": [0.0, 0.0, 0.0], "LFINITE_TEMPERATURE": false, "LADDER": false, "LRPAFORCE": false, "LFXC": false, "LHARTREE": true, "IBSE": 0, "KPOINT": [-1, 0, 0, 0], "LTCTC": false, "LTCTE": false, "LTETE": false, "LTRIPLET": false, "LFXCEPS": false, "LFXHEG": false, "NATURALO": 2, "LHOLEGF": false, "L2ORDER": false, "LDMP1": false, "LMP2LT": false, "LSMP2LT": false, "LGWLF": false, "ENCUTGW": -2.0, "ENCUTGWSOFT": -2.0, "ENCUTLF": -1.0, "LESF_SPLINES": false, "LMAXMP2": -1, "SCISSOR": 0.0, "NOMEGA": 0, "NOMEGAR": 0, "NBANDSGW": -1, "NBANDSO": -1, "NBANDSV": -1, "NELMGW": 1, "NELMHF": 1, "DIM": 3, "IESPILON": 4, "ANTIRES": 0, "OMEGAMIN": -30.0, "OMEGATL": -200.0, "OMEGAGRID": 0, "LSELFENERGY": false, "LSPECTRAL": false, "LSPECTRALGW": false, "LSINGLES": false, "LFERMIGW": false, "ODDONLYGW": false, "EVENONLYGW": false, "NKREDLFX": 1, "NKREDLFY": 1, "NKREDLFZ": 1, "MAXMEM": 2800, "TELESCOPE": 0, "NTAUPAR": -1, "NOMEGAPAR": -1, "DAMP_NEWTON": 0.80000001, "LAMBDA": 1.0, "OFIELD_KAPPA": 0.0, "OFIELD_K": [0.0, 0.0, 0.0], "OFIELD_Q6_NEAR": 0.0, "OFIELD_Q6_FAR": 0.0, "OFIELD_A": 0.0, "KPOINTS_OPT_MODE": 1, "LKPOINTS_OPT": false, "@module": "pymatgen.io.vasp.inputs", "@class": "Incar"}, "relaxed_structures": {"@module": "pymatgen.core.structure", "@class": "Structure", "charge": 0, "lattice": {"matrix": [[8.106791, 0.0, 0.0], [0.0, 14.48087, 0.0], [0.0, 0.0, 45.158492]], "a": 8.106791, "b": 14.48087, "c": 45.158492, "alpha": 90.0, "beta": 90.0, "gamma": 90.0, "volume": 5301.308309094782}, "sites": [{"species": [{"element": "Li", "occu": 1}], "abc": [0.96356278, 0.67875859, 0.04243966], "xyz": [7.8114020728389795, 9.8290149031733, 1.91651104659272], "label": "Li", "properties": {}}, {"species": [{"element": "Li", "occu": 1}], "abc": [0.03149486, 0.98218446, 0.056912880000000006], "xyz": [0.25532224759426, 14.2228854812802, 2.5700998361769605], "label": "Li", "properties": {}}, {"species": [{"element": "Li", "occu": 1}], "abc": [0.01784, 0.36310175, 0.014377900000000006], "xyz": [0.14462515144000002, 5.2580292385225, 0.6492842821268003], "label": "Li", "properties": {}}, {"species": [{"element": "Li", "occu": 1}], "abc": [0.74508156, 0.22620454, 0.06521614], "xyz": [6.04022048487396, 3.2756385371498, 2.9450625364608802], "label": "Li", "properties": {}}, {"species": [{"element": "Li", "occu": 1}], "abc": [0.44665017, 0.98182588, 0.06959827000000002], "xyz": [3.6208995783044697, 14.2176929309156, 3.1429529190088408], "label": "Li", "properties": {}}, {"species": [{"element": "Li", "occu": 1}], "abc": [0.51333582, 0.6792224, 0.04682999000000001], "xyz": [4.16150620555362, 9.835731275488, 2.1147717287750805], "label": "Li", "properties": {}}, {"species": [{"element": "Li", "occu": 1}], "abc": [0.46143903, 0.36797127, 0.01592769], "xyz": [3.7407897754527295, 5.3285441246049, 0.7192704614434801], "label": "Li", "properties": {}}, {"species": [{"element": "Li", "occu": 1}], "abc": [0.5417832, 0.88989021, 0.013428929999999999], "xyz": [4.3921231697111995, 12.8863844452827, 0.6064302279735599], "label": "Li", "properties": {}}, {"species": [{"element": "Li", "occu": 1}], "abc": [0.9553221, 0.49258727, 0.16979969], "xyz": [7.744596602381099, 7.1330922205249, 7.667897942467481], "label": "Li", "properties": {}}, {"species": [{"element": "Li", "occu": 1}], "abc": [0.0225165, 0.80129535, 0.18503912], "xyz": [0.18253655955149997, 11.603453794954499, 8.35608762020704], "label": "Li", "properties": {}}, {"species": [{"element": "Li", "occu": 1}], "abc": [0.02897767, 0.44825889, 0.09047931000000001], "xyz": [0.23491591435696998, 6.4911787124343, 4.085909196800521], "label": "Li", "properties": {}}, {"species": [{"element": "Li", "occu": 1}], "abc": [0.96672642, 0.02508382, 0.14397784], "xyz": [7.837049041118219, 0.36323553652339996, 6.50182213581728], "label": "Li", "properties": {}}, {"species": [{"element": "Li", "occu": 1}], "abc": [0.53732549, 0.02408235, 0.14924374], "xyz": [4.355985446402589, 0.34873337964449996, 6.739622238840081], "label": "Li", "properties": {}}, {"species": [{"element": "Li", "occu": 1}], "abc": [0.46852279, 0.44542722, 0.09206239000000002], "xyz": [3.79821633726689, 6.4501736672814, 4.157398702315882], "label": "Li", "properties": {}}, {"species": [{"element": "Li", "occu": 1}], "abc": [0.45736846, 0.79795787, 0.19084086], "xyz": [3.7077905152118595, 11.5551241809469, 8.61808544958312], "label": "Li", "properties": {}}, {"species": [{"element": "Li", "occu": 1}], "abc": [0.52415753, 0.48802827, 0.17640905], "xyz": [4.249235546786229, 7.0670739341949, 7.966366673152601], "label": "Li", "properties": {}}, {"species": [{"element": "Li", "occu": 1}], "abc": [0.05730583, 0.74353293, 0.10556518000000001], "xyz": [0.46456638689152996, 10.767003700049099, 4.767164336508561], "label": "Li", "properties": {}}, {"species": [{"element": "Li", "occu": 1}], "abc": [0.03675893, 0.2237448, 0.12304904], "xyz": [0.29799696289363, 3.2400193619759996, 5.55670908844768], "label": "Li", "properties": {}}, {"species": [{"element": "Li", "occu": 1}], "abc": [0.45303557, 0.2215143, 0.12415062000000002], "xyz": [3.6726646815558697, 3.207719781441, 5.606454780065041], "label": "Li", "properties": {}}, {"species": [{"element": "Li", "occu": 1}], "abc": [0.54502536, 0.73075356, 0.12521613], "xyz": [4.41840668321976, 10.5819473043972, 5.654571604875961], "label": "Li", "properties": {}}, {"species": [{"element": "Li", "occu": 1}], "abc": [0.95470836, 0.30346223, 0.29593982999999996], "xyz": [7.739621140472759, 4.3943971025401, 13.36419644553636], "label": "Li", "properties": {}}, {"species": [{"element": "Li", "occu": 1}], "abc": [0.02104184, 0.61313878, 0.3106288], "xyz": [0.17058179913543997, 8.8787829651386, 14.0275281797696], "label": "Li", "properties": {}}, {"species": [{"element": "Li", "occu": 1}], "abc": [0.02940589, 0.26804623, 0.21439938], "xyz": [0.23838740439898998, 3.8815426106201, 9.681952686534961], "label": "Li", "properties": {}}, {"species": [{"element": "Li", "occu": 1}], "abc": [0.96126001, 0.84528039, 0.27023331], "xyz": [7.79273399772791, 12.240395441139299, 12.203328767768522], "label": "Li", "properties": {}}, {"species": [{"element": "Li", "occu": 1}], "abc": [0.52701727, 0.83337141, 0.27245167], "xyz": [4.27241886128057, 12.0679430499267, 12.30350656008164], "label": "Li", "properties": {}}, {"species": [{"element": "Li", "occu": 1}], "abc": [0.46394965, 0.25602884, 0.21661908], "xyz": [3.76114284707315, 3.7075203482907995, 9.78219099122736], "label": "Li", "properties": {}}, {"species": [{"element": "Li", "occu": 1}], "abc": [0.45488778, 0.60833641, 0.31752205], "xyz": [3.6876801609139798, 8.8092404694767, 14.338816954748602], "label": "Li", "properties": {}}, {"species": [{"element": "Li", "occu": 1}], "abc": [0.5207321, 0.29942811, 0.30189667], "xyz": [4.2214663016911, 4.3359795352557, 13.633198357021639], "label": "Li", "properties": {}}, {"species": [{"element": "Li", "occu": 1}], "abc": [0.04792612, 0.55790375, 0.23405182], "xyz": [0.38852703828092, 8.078931676262501, 10.56942724105544], "label": "Li", "properties": {}}, {"species": [{"element": "Li", "occu": 1}], "abc": [0.93777424, 0.06729462, 0.23612304000000003], "xyz": [7.602339768863839, 0.9744846439193999, 10.662960412855682], "label": "Li", "properties": {}}, {"species": [{"element": "Li", "occu": 1}], "abc": [0.43774014, 0.0340698, 0.25034428], "xyz": [3.54866782729074, 0.49336034472599993, 11.305170165625759], "label": "Li", "properties": {}}, {"species": [{"element": "Li", "occu": 1}], "abc": [0.54765718, 0.54317177, 0.2529932], "xyz": [4.43974229790938, 7.8655997890399005, 11.4247913982544], "label": "Li", "properties": {}}, {"species": [{"element": "Li", "occu": 1}], "abc": [0.93963266, 0.11988704, 0.41732666999999996], "xyz": [7.61740559139406, 1.7360686409247998, 18.84584308858164], "label": "Li", "properties": {}}, {"species": [{"element": "Li", "occu": 1}], "abc": [0.01070973, 0.42100961, 0.44014666999999996], "xyz": [0.08682154277643, 6.096585431160699, 19.87635987602164], "label": "Li", "properties": {}}, {"species": [{"element": "Li", "occu": 1}], "abc": [0.03463033, 0.07726389, 0.33742712999999996], "xyz": [0.28074084757102996, 1.1188483467843, 15.237700350687959], "label": "Li", "properties": {}}, {"species": [{"element": "Li", "occu": 1}], "abc": [0.96867769, 0.65714014, 0.39446708999999996], "xyz": [7.8528675791927895, 9.515960939121799, 17.81353892802828], "label": "Li", "properties": {}}, {"species": [{"element": "Li", "occu": 1}], "abc": [0.53032639, 0.65023447, 0.39744171], "xyz": [4.29924520551449, 9.415960829588899, 17.94786828150132], "label": "Li", "properties": {}}, {"species": [{"element": "Li", "occu": 1}], "abc": [0.46540123, 0.07631396, 0.34286158], "xyz": [3.77291050275293, 1.1050925339452, 15.48311191753736], "label": "Li", "properties": {}}, {"species": [{"element": "Li", "occu": 1}], "abc": [0.45999619, 0.41832434, 0.44473814], "xyz": [3.72909297312629, 6.0577003853758, 20.083703737284882], "label": "Li", "properties": {}}, {"species": [{"element": "Li", "occu": 1}], "abc": [0.52794534, 0.11839171, 0.43019289], "xyz": [4.27994253080394, 1.7144149615876998, 19.42686218152188], "label": "Li", "properties": {}}, {"species": [{"element": "Li", "occu": 1}], "abc": [0.04328152, 0.36988525, 0.36151066], "xyz": [0.35087423680231994, 5.3562602201675, 16.32527624752472], "label": "Li", "properties": {}}, {"species": [{"element": "Li", "occu": 1}], "abc": [0.95253693, 0.88040877, 0.36270514], "xyz": [7.722017811291629, 12.7490849452299, 16.37921716304888], "label": "Li", "properties": {}}, {"species": [{"element": "Li", "occu": 1}], "abc": [0.53152603, 0.87604778, 0.36422916], "xyz": [4.308970436269729, 12.6859340159686, 16.448039608026722], "label": "Li", "properties": {}}, {"species": [{"element": "Li", "occu": 1}], "abc": [0.55870797, 0.35643293, 0.38123254], "xyz": [4.52932874282427, 5.1614589230491, 17.215886607729683], "label": "Li", "properties": {}}, {"species": [{"element": "Li", "occu": 1}], "abc": [0.24165735, 0.87446197, 0.42213954], "xyz": [1.9590656300638498, 12.6629701075139, 19.06318503997368], "label": "Li", "properties": {}}, {"species": [{"element": "Li", "occu": 1}], "abc": [0.51909105, 0.73734958, 0.47239277], "xyz": [4.208162652320549, 10.6774634125346, 21.332545124902843], "label": "Li", "properties": {}}, {"species": [{"element": "Li", "occu": 1}], "abc": [0.03956589, 0.20775242, 0.47401048], "xyz": [0.32075240095899, 3.0084357862054, 21.40559846899616], "label": "Li", "properties": {}}, {"species": [{"element": "Li", "occu": 1}], "abc": [0.96150356, 0.73252358, 0.47104771999999995], "xyz": [7.7947084066759595, 10.607578733914599, 21.271804695238238], "label": "Li", "properties": {}}, {"species": [{"element": "P", "occu": 1}], "abc": [0.23393561, 0.79050076, 0.02247765000000001], "xyz": [1.8964670977275098, 11.4471387404612, 1.0150567777038004], "label": "P", "properties": {}}, {"species": [{"element": "P", "occu": 1}], "abc": [0.7447363, 0.43066074, 0.04801064], "xyz": [6.0374215342132995, 6.2363421900438, 2.16808810235488], "label": "P", "properties": {}}, {"species": [{"element": "P", "occu": 1}], "abc": [0.24453687, 0.22453647, 0.06409677], "xyz": [1.9824092968841698, 3.2514834323288997, 2.89451347527084], "label": "P", "properties": {}}, {"species": [{"element": "P", "occu": 1}], "abc": [0.24659538, 0.60199287, 0.14992925000000001], "xyz": [1.99909720722558, 8.7173804913969, 6.770578836691001], "label": "P", "properties": {}}, {"species": [{"element": "P", "occu": 1}], "abc": [0.74990939, 0.87421999, 0.08688802000000001], "xyz": [6.07935869366749, 12.659466026591298, 3.923731956065841], "label": "P", "properties": {}}, {"species": [{"element": "P", "occu": 1}], "abc": [0.74713676, 0.24575017, 0.17221348], "xyz": [6.05688156173716, 3.5586762642478997, 7.77690105887216], "label": "P", "properties": {}}, {"species": [{"element": "P", "occu": 1}], "abc": [0.2390794, 0.04463341, 0.18960780000000002], "xyz": [1.9381667282053998, 0.6463306078666999, 8.562402319437602], "label": "P", "properties": {}}, {"species": [{"element": "P", "occu": 1}], "abc": [0.24498358, 0.41454677, 0.2754597], "xyz": [1.9860306814917799, 6.0029978852899, 12.4393446587724], "label": "P", "properties": {}}, {"species": [{"element": "P", "occu": 1}], "abc": [0.7466231, 0.68674366, 0.21163209000000002], "xyz": [6.0527174274721, 9.944645663784199, 9.556986043208282], "label": "P", "properties": {}}, {"species": [{"element": "P", "occu": 1}], "abc": [0.7373715, 0.0572286, 0.29704522], "xyz": [5.977716639856499, 0.828719916882, 13.41411419100824], "label": "P", "properties": {}}, {"species": [{"element": "P", "occu": 1}], "abc": [0.24543076, 0.85526051, 0.31455867], "xyz": [1.9896558762911598, 12.3849162614437, 14.20499518272564], "label": "P", "properties": {}}, {"species": [{"element": "P", "occu": 1}], "abc": [0.24671982, 0.22621746, 0.40021425], "xyz": [2.00010601629762, 3.2758256299902, 18.073072006911], "label": "P", "properties": {}}, {"species": [{"element": "P", "occu": 1}], "abc": [0.74507501, 0.49882312, 0.33722072], "xyz": [6.040167385392909, 7.2233927537144, 15.228379186354239], "label": "P", "properties": {}}, {"species": [{"element": "P", "occu": 1}], "abc": [0.74255119, 0.87647329, 0.42285094], "xyz": [6.019707304131289, 12.692095770962299, 19.09531079118248], "label": "P", "properties": {}}, {"species": [{"element": "P", "occu": 1}], "abc": [0.24354663, 0.66919377, 0.43912247], "xyz": [1.9743816281643298, 9.6905079881799, 19.83010854851524], "label": "P", "properties": {}}, {"species": [{"element": "P", "occu": 1}], "abc": [0.73266699, 0.309128, 0.46491991999999993], "xyz": [5.93957816052909, 4.47644238136, 20.995082487960637], "label": "P", "properties": {}}, {"species": [{"element": "S", "occu": 1}], "abc": [0.4411908, 0.74652298, 0.00010000000000000286], "xyz": [3.5766416067227995, 10.810302225392599, 0.00451584920000013], "label": "S", "properties": {}}, {"species": [{"element": "S", "occu": 1}], "abc": [0.53145562, 0.50465323, 0.041945039999999996], "xyz": [4.30839963711542, 7.307817818710099, 1.89417475327968], "label": "S", "properties": {}}, {"species": [{"element": "S", "occu": 1}], "abc": [0.95786447, 0.50314682, 0.04018111], "xyz": [7.765207064615769, 7.286003691333399, 1.81451833448612], "label": "S", "properties": {}}, {"species": [{"element": "S", "occu": 1}], "abc": [0.02139686, 0.77093011, 0.0009657799999999994], "xyz": [0.17345987207625999, 11.1637387019957, 0.04361316840375998], "label": "S", "properties": {}}, {"species": [{"element": "S", "occu": 1}], "abc": [0.26961926, 0.93294267, 0.029828200000000006], "xyz": [2.18574699039466, 13.509821521722898, 1.3469965310744003], "label": "S", "properties": {}}, {"species": [{"element": "S", "occu": 1}], "abc": [0.73926251, 0.31860129, 0.01923715], "xyz": [5.993046662705409, 4.613623862322299, 0.8687206843778001], "label": "S", "properties": {}}, {"species": [{"element": "S", "occu": 1}], "abc": [0.23598772, 0.71501894, 0.06225569000000001], "xyz": [1.91310312460652, 10.354096317677799, 2.8113730788194804], "label": "S", "properties": {}}, {"species": [{"element": "S", "occu": 1}], "abc": [0.7329384, 0.95474147, 0.049576089999999996], "xyz": [5.9417784246744, 13.8254871106789, 2.23878146365628], "label": "S", "properties": {}}, {"species": [{"element": "S", "occu": 1}], "abc": [0.2438331, 0.26277942, 0.020419670000000008], "xyz": [1.9767039805820998, 3.8052746196953997, 0.9221215043376404], "label": "S", "properties": {}}, {"species": [{"element": "S", "occu": 1}], "abc": [0.46474779, 0.56684749, 0.12940581], "xyz": [3.7676132012418897, 8.2084448125163, 5.8437712356385205], "label": "S", "properties": {}}, {"species": [{"element": "S", "occu": 1}], "abc": [0.54710872, 0.89881885, 0.11324079000000001], "xyz": [4.43529604731752, 13.015678920399498, 5.113783309288681], "label": "S", "properties": {}}, {"species": [{"element": "S", "occu": 1}], "abc": [0.53123965, 0.31842018, 0.16691589], "xyz": [4.306648813463149, 4.6110012319566, 7.537669883237881], "label": "S", "properties": {}}, {"species": [{"element": "S", "occu": 1}], "abc": [0.45582555, 0.15120992, 0.07361034], "xyz": [3.69528246631005, 2.1896511942303998, 3.32413195000728], "label": "S", "properties": {}}, {"species": [{"element": "S", "occu": 1}], "abc": [0.03623519, 0.14883395, 0.07350045000000002], "xyz": [0.29375111217529, 2.1552450815364996, 3.319169483321401], "label": "S", "properties": {}}, {"species": [{"element": "S", "occu": 1}], "abc": [0.95785507, 0.32204307, 0.16504665000000002], "xyz": [7.76513086078037, 4.663463831070899, 7.453257823651801], "label": "S", "properties": {}}, {"species": [{"element": "S", "occu": 1}], "abc": [0.97176789, 0.90606406, 0.10636832000000002], "xyz": [7.877919184740989, 13.120595864532199, 4.803432927773441], "label": "S", "properties": {}}, {"species": [{"element": "S", "occu": 1}], "abc": [0.03739796, 0.57724134, 0.12554378000000002], "xyz": [0.30317744554636, 8.3589568031658, 5.669367784779761], "label": "S", "properties": {}}, {"species": [{"element": "S", "occu": 1}], "abc": [0.74912073, 0.73268343, 0.080073], "xyz": [6.0729651918774294, 10.6098935009841, 3.6159759299160004], "label": "S", "properties": {}}, {"species": [{"element": "S", "occu": 1}], "abc": [0.25385479, 0.74475986, 0.15439879], "xyz": [2.05794772687889, 10.784770713878201, 6.97241652302468], "label": "S", "properties": {}}, {"species": [{"element": "S", "occu": 1}], "abc": [0.24504919, 0.33041665, 0.09580031], "xyz": [1.9865625680492898, 4.784720554485499, 4.32619753273252], "label": "S", "properties": {}}, {"species": [{"element": "S", "occu": 1}], "abc": [0.7461212, 0.14466539, 0.13932059000000002], "xyz": [6.0486486290692, 2.0948807060892998, 6.2915077489502815], "label": "S", "properties": {}}, {"species": [{"element": "S", "occu": 1}], "abc": [0.23653589, 0.52747961, 0.18855574], "xyz": [1.9175470242289898, 7.6383636600606994, 8.51489287634408], "label": "S", "properties": {}}, {"species": [{"element": "S", "occu": 1}], "abc": [0.73670819, 0.75984951, 0.17292703], "xyz": [5.972339324318289, 11.0032819738737, 7.8091239008387605], "label": "S", "properties": {}}, {"species": [{"element": "S", "occu": 1}], "abc": [0.74952346, 0.38020962, 0.09078237], "xyz": [6.07623003981686, 5.5057660799694, 4.09959492938604], "label": "S", "properties": {}}, {"species": [{"element": "S", "occu": 1}], "abc": [0.24961374, 0.09334058, 0.14665813], "xyz": [2.02356642090834, 1.3516528047046001, 6.62285999033996], "label": "S", "properties": {}}, {"species": [{"element": "S", "occu": 1}], "abc": [0.46159248, 0.37945138, 0.25434198999999996], "xyz": [3.7420337625316797, 5.4947861051006, 11.485700720679079], "label": "S", "properties": {}}, {"species": [{"element": "S", "occu": 1}], "abc": [0.5354403, 0.71080366, 0.2356017], "xyz": [4.3407026050773, 10.293055395984199, 10.6394174846364], "label": "S", "properties": {}}, {"species": [{"element": "S", "occu": 1}], "abc": [0.52163006, 0.13063655, 0.2926524], "xyz": [4.228745875737459, 1.8917308977984997, 13.2157410641808], "label": "S", "properties": {}}, {"species": [{"element": "S", "occu": 1}], "abc": [0.44842197, 0.96926111, 0.19780799000000002], "xyz": [3.6352631905982697, 14.0357441299657, 8.93271053395108], "label": "S", "properties": {}}, {"species": [{"element": "S", "occu": 1}], "abc": [0.02394501, 0.97071294, 0.19403119], "xyz": [0.19411719156291, 14.056767891457799, 8.76215594136548], "label": "S", "properties": {}}, {"species": [{"element": "S", "occu": 1}], "abc": [0.94654996, 0.13265399, 0.28873709], "xyz": [7.673482696778359, 1.9209451841713, 13.03893156886828], "label": "S", "properties": {}}, {"species": [{"element": "S", "occu": 1}], "abc": [0.96305811, 0.72197088, 0.23272837999999998], "xyz": [7.807310818625009, 10.454766457065599, 10.50966268640296], "label": "S", "properties": {}}, {"species": [{"element": "S", "occu": 1}], "abc": [0.03439665, 0.3904528, 0.25136305], "xyz": [0.27884645265015, 5.654096237936, 11.3511762825206], "label": "S", "properties": {}}, {"species": [{"element": "S", "occu": 1}], "abc": [0.7546868, 0.54348165, 0.20736186000000004], "xyz": [6.118088158058799, 7.870087121035501, 9.364148895915122], "label": "S", "properties": {}}, {"species": [{"element": "S", "occu": 1}], "abc": [0.25305071, 0.55771225, 0.27993541], "xyz": [2.05142921837161, 8.0761585896575, 12.64146097300172], "label": "S", "properties": {}}, {"species": [{"element": "S", "occu": 1}], "abc": [0.23356747, 0.14451561, 0.22262914000000003], "xyz": [1.8934826636887698, 2.0927117613807, 10.053596237656881], "label": "S", "properties": {}}, {"species": [{"element": "S", "occu": 1}], "abc": [0.73220013, 0.95705569, 0.26407502], "xyz": [5.935793424082829, 13.858999029650299, 11.92522967806984], "label": "S", "properties": {}}, {"species": [{"element": "S", "occu": 1}], "abc": [0.23484868, 0.34111356, 0.3141097], "xyz": [1.90386916538588, 4.939621117597199, 14.1847203745724], "label": "S", "properties": {}}, {"species": [{"element": "S", "occu": 1}], "abc": [0.73453782, 0.57336913, 0.29859969], "xyz": [5.95474458833562, 8.302883833543099, 13.484311712067479], "label": "S", "properties": {}}, {"species": [{"element": "S", "occu": 1}], "abc": [0.75000672, 0.19734805, 0.21485008000000003], "xyz": [6.08014772763552, 2.8577714568035, 9.702305618879361], "label": "S", "properties": {}}, {"species": [{"element": "S", "occu": 1}], "abc": [0.24804792, 0.90379708, 0.27194725], "xyz": [2.01087264542472, 13.087768021859599, 12.280727713547], "label": "S", "properties": {}}, {"species": [{"element": "S", "occu": 1}], "abc": [0.46867067, 0.19450513, 0.38069156], "xyz": [3.79941516951997, 2.8166035018630997, 17.19145676672752], "label": "S", "properties": {}}, {"species": [{"element": "S", "occu": 1}], "abc": [0.53609768, 0.52325275, 0.36165422999999997], "xyz": [4.34603184734488, 7.5771550498925, 16.33175965222116], "label": "S", "properties": {}}, {"species": [{"element": "S", "occu": 1}], "abc": [0.53360264, 0.95181035, 0.41365454999999995], "xyz": [4.32580507952824, 13.7830419430045, 18.6800156869386], "label": "S", "properties": {}}, {"species": [{"element": "S", "occu": 1}], "abc": [0.45628289, 0.77898129, 0.32173788], "xyz": [3.6989900261059896, 11.2803267929223, 14.52919748007696], "label": "S", "properties": {}}, {"species": [{"element": "S", "occu": 1}], "abc": [0.02943663, 0.78269581, 0.31999539], "xyz": [0.23863660715432997, 11.334116274154699, 14.45050925935188], "label": "S", "properties": {}}, {"species": [{"element": "S", "occu": 1}], "abc": [0.95310772, 0.95041323, 0.41322168], "xyz": [7.72664508652652, 13.762810429910099, 18.66046793050656], "label": "S", "properties": {}}, {"species": [{"element": "S", "occu": 1}], "abc": [0.96329053, 0.53389534, 0.35768106], "xyz": [7.809194998989229, 7.7312690121458, 16.152337286561522], "label": "S", "properties": {}}, {"species": [{"element": "S", "occu": 1}], "abc": [0.04402522, 0.20192689, 0.37377359], "xyz": [0.35690325726901995, 2.9240770435942998, 16.87905167382628], "label": "S", "properties": {}}, {"species": [{"element": "S", "occu": 1}], "abc": [0.75215674, 0.35604594, 0.33264171], "xyz": [6.097577490421339, 5.1558549711678, 15.02159799990132], "label": "S", "properties": {}}, {"species": [{"element": "S", "occu": 1}], "abc": [0.24643916, 0.36765583, 0.40707326], "xyz": [1.9978307643355597, 5.3239762789721, 18.38281455512392], "label": "S", "properties": {}}, {"species": [{"element": "S", "occu": 1}], "abc": [0.2441374, 0.95650054, 0.34744063999999997], "xyz": [1.9791708770833998, 13.850959974669799, 15.68989536191488], "label": "S", "properties": {}}, {"species": [{"element": "S", "occu": 1}], "abc": [0.74229583, 0.7705245, 0.39119972], "xyz": [6.017637153981529, 11.157865116315, 17.66598942602224], "label": "S", "properties": {}}, {"species": [{"element": "S", "occu": 1}], "abc": [0.22955387, 0.14504595, 0.43738258999999996], "xyz": [1.8609452473311698, 2.1003915459765, 19.75153819145428], "label": "S", "properties": {}}, {"species": [{"element": "S", "occu": 1}], "abc": [0.73346118, 0.38393497, 0.42501366999999995], "xyz": [5.94601649287338, 5.5597123890238995, 19.19297641658564], "label": "S", "properties": {}}, {"species": [{"element": "S", "occu": 1}], "abc": [0.74803054, 0.00861101, 0.33998430999999996], "xyz": [6.064127249397139, 0.1246949163787, 15.35317874326052], "label": "S", "properties": {}}, {"species": [{"element": "S", "occu": 1}], "abc": [0.25044419, 0.72028916, 0.39644569999999996], "xyz": [2.03029870549429, 10.4304136883692, 17.9028899718844], "label": "S", "properties": {}}, {"species": [{"element": "S", "occu": 1}], "abc": [0.52169299, 0.33019147, 0.48677264], "xyz": [4.22925603609509, 4.7814597521788995, 21.98191836925888], "label": "S", "properties": {}}, {"species": [{"element": "S", "occu": 1}], "abc": [0.45529418, 0.59573143, 0.44719971999999997], "xyz": [3.69097476077638, 8.626709392744099, 20.19486497802224], "label": "S", "properties": {}}, {"species": [{"element": "S", "occu": 1}], "abc": [0.0289069, 0.5960312, 0.44474079], "xyz": [0.23434219675789997, 8.631050323143999, 20.08382340728868], "label": "S", "properties": {}}, {"species": [{"element": "S", "occu": 1}], "abc": [0.94184939, 0.35237596, 0.48685703999999996], "xyz": [7.63537615820749, 5.1027104678852, 21.98572974598368], "label": "S", "properties": {}}, {"species": [{"element": "S", "occu": 1}], "abc": [0.765703, 0.16643027, 0.45765846], "xyz": [6.207394189073, 2.4100551039348996, 20.66716590464232], "label": "S", "properties": {}}, {"species": [{"element": "S", "occu": 1}], "abc": [0.2391579, 0.7811567, 0.46797016999999996], "xyz": [1.9388031112989, 11.311828622329001, 21.13282717818364], "label": "S", "properties": {}}, {"species": [{"element": "S", "occu": 1}], "abc": [0.74370945, 0.83810837, 0.46651597], "xyz": [6.029097075874949, 12.1365383518819, 21.067157699117242], "label": "S", "properties": {}}]}, "formula": "(Li3PS4)16.0", "bandgap": 2.0214, "slab_thickness": 21.98121389678368}