{"miller": "101_0.46", "final_energy": -559.92523947, "gamma": 0.012609084446918705, "work_function": "Not calculated", "ionization_potentail": "Not calculated", "electron_affinity": "Not calculated", "is_stochiometric": true, "incar_parameters": {"SYSTEM": "unknown system", "LCOMPAT": false, "PREC": "normal", "ENMAX": 520.0, "ENAUG": 628.945, "EDIFF": 1e-05, "IALGO": 38, "IWAVPR": 11, "NBANDS": 370, "NBANDSLOW": -1, "NBANDSHIGH": -1, "NELECT": 608.0, "TURBO": 0, "IRESTART": 0, "NREBOOT": 0, "NMIN": 0, "EREF": 0.0, "ISMEAR": 0, "SIGMA": 0.05, "KSPACING": 0.5, "KGAMMA": true, "KBLOWUP": true, "LREAL": true, "ROPT": [-0.0005, -0.0005, -0.0005], "LMAXPAW": -100, "LMAXMIX": 2, "NLSPLINE": false, "ISTART": 0, "ICHARG": 2, "INIWAV": 1, "ISPIN": 1, "LNONCOLLINEAR": false, "MAGMOM": [0.6, 0.6, 0.6, 0.6, 0.6, 0.6, 0.6, 0.6, 0.6, 0.6, 0.6, 0.6, 0.6, 0.6, 0.6, 0.6, 0.6, 0.6, 0.6, 0.6, 0.6, 0.6, 0.6, 0.6, 0.6, 0.6, 0.6, 0.6, 0.6, 0.6, 0.6, 0.6, 0.6, 0.6, 0.6, 0.6, 0.6, 0.6, 0.6, 0.6, 0.6, 0.6, 0.6, 0.6, 0.6, 0.6, 0.6, 0.6, 0.6, 0.6, 0.6, 0.6, 0.6, 0.6, 0.6, 0.6, 0.6, 0.6, 0.6, 0.6, 0.6, 0.6, 0.6, 0.6, 0.6, 0.6, 0.6, 0.6, 0.6, 0.6, 0.6, 0.6, 0.6, 0.6, 0.6, 0.6, 0.6, 0.6, 0.6, 0.6, 0.6, 0.6, 0.6, 0.6, 0.6, 0.6, 0.6, 0.6, 0.6, 0.6, 0.6, 0.6, 0.6, 0.6, 0.6, 0.6, 0.6, 0.6, 0.6, 0.6, 0.6, 0.6, 0.6, 0.6, 0.6, 0.6, 0.6, 0.6, 0.6, 0.6, 0.6, 0.6, 0.6, 0.6, 0.6, 0.6, 0.6, 0.6, 0.6, 0.6, 0.6, 0.6, 0.6, 0.6, 0.6, 0.6, 0.6, 0.6], "NUPDOWN": -1.0, "LSORBIT": false, "SAXIS": [0.0, 0.0, 1.0], "LSPIRAL": false, "QSPIRAL": [0.0, 0.0, 0.0], "LZEROZ": false, "LASPH": false, "LMETAGGA": false, "NELM": 100, "NELMDL": -5, "NELMIN": 6, "ENINI": 520.0, "LDIAG": true, "LSUBROT": false, "WEIMIN": 0.001, "EBREAK": 1e-08, "DEPER": 0.3, "NRMM": 4, "TIME": 0.4, "AMIX": 0.4, "BMIX": 1.0, "AMIN": 0.1, "AMIX_MAG": 1.6, "BMIX_MAG": 1.0, "IMIX": 4, "MIXFIRST": false, "MAXMIX": -45, "WC": 100.0, "INIMIX": 1, "MIXPRE": 1, "MREMOVE": 5, "LDIPOL": false, "LMONO": false, "IDIPOL": 0, "EPSILON": 1.0, "DIPOL": [-100.0, -100.0, -100.0], "EFIELD": 0.0, "NGX": 48, "NGY": 84, "NGZ": 252, "NGXF": 96, "NGYF": 168, "NGZF": 504, "ADDGRID": false, "NSW": 150, "IBRION": 2, "MDALGO": 0, "ISIF": 2, "PSTRESS": 0.0, "EDIFFG": -0.01, "NFREE": 1, "POTIM": 0.5, "SMASS": -3.0, "SCALEE": 1.0, "TEBEG": 0.0001, "TEEND": 0.0001, "NBLOCK": 1, "KBLOCK": 150, "NPACO": 256, "APACO": 10.0, "ISYM": 0, "SYMPREC": 1e-05, "LORBIT": 11, "RWIGS": [-1.0, -1.0, -1.0], "NEDOS": 301, "EMIN": 10.0, "EMAX": -10.0, "EFERMI": 0.0, "NWRITE": 2, "LWAVE": false, "LDOWNSAMPLE": false, "LCHARG": false, "LPARD": false, "LVTOT": false, "LVHAR": false, "LELF": false, "LOPTICS": false, "STM": [0.0, 0.0, 0.0, 0.0, 0.0, 0.0, 0.0], "NPAR": 2, "NSIM": 4, "NBLK": -1, "LPLANE": true, "LSCALAPACK": true, "LSCAAWARE": false, "LSCALU": false, "LASYNC": false, "LORBITALREAL": false, "IDIOT": 3, "PHON_NSTRUCT": -1, "LMUSIC": false, "POMASS": [7.01, 30.974, 32.066], "DARWINR": [0.0, 0.0, 0.0], "DARWINV": [1.0, 1.0, 1.0], "LCORR": true, "GGA_COMPAT": true, "LBERRY": false, "ICORELEVEL": 0, "LDAU": false, "I_CONSTRAINED_M": 0, "GGA": "--", "VOSKOWN": 0, "LHFCALC": false, "PRECFOCK": "", "LSYMGRAD": false, "LHFONE": false, "LRHFCALC": false, "LTHOMAS": false, "LMODELHF": false, "LFOCKACE": false, "ENCUT4O": -1.0, "EXXOEP": 0, "FOURORBIT": 0, "AEXX": 0.0, "HFALPHA": 0.0, "MCALPHA": 0.0, "ALDAX": 1.0, "AGGAX": 1.0, "ALDAC": 1.0, "AGGAC": 1.0, "NKREDX": 1, "NKREDY": 1, "NKREDZ": 1, "SHIFTRED": false, "ODDONLY": false, "EVENONLY": false, "LMAXFOCK": 0, "NMAXFOCKAE": 0, "LFOCKAEDFT": false, "HFSCREEN": 0.0, "HFSCREENC": 0.0, "NBANDSGWLOW": 0, "LUSE_VDW": false, "Zab_VDW": -0.8491, "PARAM1": 0.1234, "PARAM2": 1.0, "PARAM3": 0.0, "MODEL_GW": 0, "MODEL_EPS0": 24.8498827, "MODEL_ALPHA": 1.0, "LEPSILON": false, "LRPA": false, "LNABLA": false, "LVEL": false, "CSHIFT": 0.1, "OMEGAMAX": -1.0, "DEG_THRESHOLD": 0.002, "RTIME": -0.1, "WPLASMAI": 0.0, "DFIELD": [0.0, 0.0, 0.0], "WPLASMA": [0.0, 0.0, 0.0, 0.0, 0.0, 0.0, 0.0, 0.0, 0.0], "NUCIND": false, "MAGPOS": [0.0, 0.0, 0.0], "LNICSALL": true, "ORBITALMAG": false, "LMAGBLOCH": false, "LCHIMAG": false, "LGAUGE": true, "MAGATOM": 0, "MAGDIPOL": [0.0, 0.0, 0.0], "AVECCONST": [0.0, 0.0, 0.0], "LFINITE_TEMPERATURE": false, "LADDER": false, "LRPAFORCE": false, "LFXC": false, "LHARTREE": true, "IBSE": 0, "KPOINT": [-1, 0, 0, 0], "LTCTC": false, "LTCTE": false, "LTETE": false, "LTRIPLET": false, "LFXCEPS": false, "LFXHEG": false, "NATURALO": 2, "LHOLEGF": false, "L2ORDER": false, "LDMP1": false, "LMP2LT": false, "LSMP2LT": false, "LGWLF": false, "ENCUTGW": -2.0, "ENCUTGWSOFT": -2.0, "ENCUTLF": -1.0, "LESF_SPLINES": false, "LMAXMP2": -1, "SCISSOR": 0.0, "NOMEGA": 0, "NOMEGAR": 0, "NBANDSGW": -1, "NBANDSO": -1, "NBANDSV": -1, "NELMGW": 1, "NELMHF": 1, "DIM": 3, "IESPILON": 4, "ANTIRES": 0, "OMEGAMIN": -30.0, "OMEGATL": -200.0, "OMEGAGRID": 0, "LSELFENERGY": false, "LSPECTRAL": false, "LSPECTRALGW": false, "LSINGLES": false, "LFERMIGW": false, "ODDONLYGW": false, "EVENONLYGW": false, "NKREDLFX": 1, "NKREDLFY": 1, "NKREDLFZ": 1, "MAXMEM": 2800, "TELESCOPE": 0, "NTAUPAR": -1, "NOMEGAPAR": -1, "DAMP_NEWTON": 0.80000001, "LAMBDA": 1.0, "OFIELD_KAPPA": 0.0, "OFIELD_K": [0.0, 0.0, 0.0], "OFIELD_Q6_NEAR": 0.0, "OFIELD_Q6_FAR": 0.0, "OFIELD_A": 0.0, "KPOINTS_OPT_MODE": 1, "LKPOINTS_OPT": false, "@module": "pymatgen.io.vasp.inputs", "@class": "Incar"}, "relaxed_structures": {"@module": "pymatgen.core.structure", "@class": "Structure", "charge": 0, "lattice": {"matrix": [[8.106791, 0.0, 0.0], [0.0, 14.48087, 0.0], [0.0, 0.0, 45.158492]], "a": 8.106791, "b": 14.48087, "c": 45.158492, "alpha": 90.0, "beta": 90.0, "gamma": 90.0, "volume": 5301.308309094782}, "sites": [{"species": [{"element": "Li", "occu": 1}], "abc": [0.96005639, 0.74939118, 0.04207730999999999], "xyz": [7.782976501944489, 10.8518362567266, 1.9001478670165197], "label": "Li", "properties": {}}, {"species": [{"element": "Li", "occu": 1}], "abc": [0.03068226, 0.05253771, 0.05609796], "xyz": [0.24873466922765997, 0.7607917486077, 2.53329927787632], "label": "Li", "properties": {}}, {"species": [{"element": "Li", "occu": 1}], "abc": [0.02800482, 0.51802507, 0.08944663], "xyz": [0.22702922273261997, 7.501453695410899, 4.03927492528196], "label": "Li", "properties": {}}, {"species": [{"element": "Li", "occu": 1}], "abc": [0.01781034, 0.43150341, 0.013869259999999998], "xyz": [0.14438470401894, 6.2485447847666995, 0.62631486675592], "label": "Li", "properties": {}}, {"species": [{"element": "Li", "occu": 1}], "abc": [0.74061519, 0.29450628, 0.063496], "xyz": [6.004012556755289, 4.2647071548636, 2.867383608032], "label": "Li", "properties": {}}, {"species": [{"element": "Li", "occu": 1}], "abc": [0.46786046, 0.51399851, 0.09169834], "xyz": [3.7928469663838595, 7.443145603503699, 4.140958753303281], "label": "Li", "properties": {}}, {"species": [{"element": "Li", "occu": 1}], "abc": [0.44423286, 0.05127463, 0.06876153], "xyz": [3.6013029513522596, 0.7425012513281, 3.1051670024127604], "label": "Li", "properties": {}}, {"species": [{"element": "Li", "occu": 1}], "abc": [0.51083011, 0.74821522, 0.04692604], "xyz": [4.14119293827701, 10.834807332841399, 2.11910920193168], "label": "Li", "properties": {}}, {"species": [{"element": "Li", "occu": 1}], "abc": [0.46037872, 0.43936024, 0.014444449999999998], "xyz": [3.73219406388752, 6.3623185186088, 0.6522895797693999], "label": "Li", "properties": {}}, {"species": [{"element": "Li", "occu": 1}], "abc": [0.54107635, 0.9596792, 0.01275871], "xyz": [4.3863928844928495, 13.896989736903999, 0.57616410346532], "label": "Li", "properties": {}}, {"species": [{"element": "Li", "occu": 1}], "abc": [0.95197636, 0.56242339, 0.1692152], "xyz": [7.7174733874607595, 8.144379995549299, 7.641503255478401], "label": "Li", "properties": {}}, {"species": [{"element": "Li", "occu": 1}], "abc": [0.0219279, 0.86933173, 0.18494126], "xyz": [0.1777649023689, 12.588679769005099, 8.35166841017992], "label": "Li", "properties": {}}, {"species": [{"element": "Li", "occu": 1}], "abc": [0.03090399, 0.33608443, 0.21372995], "xyz": [0.25053218799608995, 4.8667949398541, 9.6517222372354], "label": "Li", "properties": {}}, {"species": [{"element": "Li", "occu": 1}], "abc": [0.96628707, 0.09415256, 0.14359506], "xyz": [7.83348732249237, 1.3634109815272, 6.48453636824952], "label": "Li", "properties": {}}, {"species": [{"element": "Li", "occu": 1}], "abc": [0.53782103, 0.09396178, 0.14898821], "xyz": [4.36000268561473, 1.3606483211485998, 6.728082889379321], "label": "Li", "properties": {}}, {"species": [{"element": "Li", "occu": 1}], "abc": [0.46472423, 0.32574025, 0.21613879], "xyz": [3.76742220524593, 4.7170022140175, 9.76050181910468], "label": "Li", "properties": {}}, {"species": [{"element": "Li", "occu": 1}], "abc": [0.45620385, 0.86582852, 0.19048115000000002], "xyz": [3.69834926534535, 12.5379502404124, 8.601841488425801], "label": "Li", "properties": {}}, {"species": [{"element": "Li", "occu": 1}], "abc": [0.52094162, 0.55789506, 0.17679013], "xyz": [4.22316483654142, 8.0788058375022, 7.98357567128396], "label": "Li", "properties": {}}, {"species": [{"element": "Li", "occu": 1}], "abc": [0.05284665, 0.81241415, 0.10549098], "xyz": [0.42841674660015, 11.764463692310498, 4.7638135764021605], "label": "Li", "properties": {}}, {"species": [{"element": "Li", "occu": 1}], "abc": [0.02499745, 0.29579044, 0.12164936000000001], "xyz": [0.20264910268295, 4.2833029088828, 5.493501650365121], "label": "Li", "properties": {}}, {"species": [{"element": "Li", "occu": 1}], "abc": [0.44985983, 0.29059389, 0.12411891], "xyz": [3.6469196211055297, 4.2080523438843, 5.6050228042837205], "label": "Li", "properties": {}}, {"species": [{"element": "Li", "occu": 1}], "abc": [0.54225677, 0.79956751, 0.12491370000000002], "xyz": [4.39596230272507, 11.5784331685337, 5.640914322140401], "label": "Li", "properties": {}}, {"species": [{"element": "Li", "occu": 1}], "abc": [0.95794572, 0.37189204, 0.29554644], "xyz": [7.76586574138452, 5.3853202852747994, 13.346431546368482], "label": "Li", "properties": {}}, {"species": [{"element": "Li", "occu": 1}], "abc": [0.02213898, 0.68361095, 0.30995173], "xyz": [0.17947608381317998, 9.8992812975265, 13.99695271959116], "label": "Li", "properties": {}}, {"species": [{"element": "Li", "occu": 1}], "abc": [0.03726413, 0.14737595, 0.33750826], "xyz": [0.30209251370683, 2.1341319730765, 15.24136405914392], "label": "Li", "properties": {}}, {"species": [{"element": "Li", "occu": 1}], "abc": [0.96522164, 0.91571221, 0.2696437], "xyz": [7.82485010415724, 13.2603094704227, 12.1767028693004], "label": "Li", "properties": {}}, {"species": [{"element": "Li", "occu": 1}], "abc": [0.53051063, 0.90186635, 0.27230177], "xyz": [4.30073880068833, 13.0598093717245, 12.296737302130841], "label": "Li", "properties": {}}, {"species": [{"element": "Li", "occu": 1}], "abc": [0.46560066, 0.14437679, 0.34240412], "xyz": [3.7745272400820595, 2.0907015270073, 15.46245371378704], "label": "Li", "properties": {}}, {"species": [{"element": "Li", "occu": 1}], "abc": [0.4548022, 0.67710078, 0.31688413], "xyz": [3.6869863817401995, 9.8050083720786, 14.310009449531961], "label": "Li", "properties": {}}, {"species": [{"element": "Li", "occu": 1}], "abc": [0.52373049, 0.36974867, 0.30151354], "xyz": [4.24577362275759, 5.3542824229429, 13.615896783981682], "label": "Li", "properties": {}}, {"species": [{"element": "Li", "occu": 1}], "abc": [0.04747419, 0.62642478, 0.23377421], "xyz": [0.38486333622429, 9.0711758039586, 10.556890792091322], "label": "Li", "properties": {}}, {"species": [{"element": "Li", "occu": 1}], "abc": [0.93832492, 0.13719139, 0.23580651], "xyz": [7.6068040165317194, 1.9866506837092999, 10.64866639538292], "label": "Li", "properties": {}}, {"species": [{"element": "Li", "occu": 1}], "abc": [0.44078374, 0.10144368, 0.25019627], "xyz": [3.57334165637834, 1.4689927424015998, 11.298486257224841], "label": "Li", "properties": {}}, {"species": [{"element": "Li", "occu": 1}], "abc": [0.54865166, 0.61288252, 0.2527193], "xyz": [4.44780433942306, 8.8750720973924, 11.4124224872956], "label": "Li", "properties": {}}, {"species": [{"element": "Li", "occu": 1}], "abc": [0.94347855, 0.18909302, 0.41761004], "xyz": [7.648583417833049, 2.7382314405273998, 18.858639650459683], "label": "Li", "properties": {}}, {"species": [{"element": "Li", "occu": 1}], "abc": [0.01456809, 0.48802447, 0.4403073], "xyz": [0.11810046089918999, 7.0670189068889, 19.8836136845916], "label": "Li", "properties": {}}, {"species": [{"element": "Li", "occu": 1}], "abc": [0.24033952, 0.94269159, 0.42208291], "xyz": [1.9483822576803198, 13.6509943648833, 19.06062771457172], "label": "Li", "properties": {}}, {"species": [{"element": "Li", "occu": 1}], "abc": [0.96874498, 0.72411166, 0.39451875000000003], "xyz": [7.853413085159179, 10.4857668139442, 17.815871815725004], "label": "Li", "properties": {}}, {"species": [{"element": "Li", "occu": 1}], "abc": [0.5306978, 0.72000394, 0.39713914], "xyz": [4.3022561487598, 10.4262834546278, 17.934204676576883], "label": "Li", "properties": {}}, {"species": [{"element": "Li", "occu": 1}], "abc": [0.51648589, 0.80833399, 0.47200599], "xyz": [4.18704316467899, 11.705379425771298, 21.31507872336708], "label": "Li", "properties": {}}, {"species": [{"element": "Li", "occu": 1}], "abc": [0.46359539, 0.48827817, 0.44439995], "xyz": [3.7582709352934898, 7.0706927036079, 20.068431586875402], "label": "Li", "properties": {}}, {"species": [{"element": "Li", "occu": 1}], "abc": [0.53096701, 0.18567418, 0.42988977], "xyz": [4.30443857796491, 2.6887236629366, 19.413173739426842], "label": "Li", "properties": {}}, {"species": [{"element": "Li", "occu": 1}], "abc": [0.04666196, 0.44038306, 0.36122163], "xyz": [0.37827875737036, 6.3771298420622, 16.31222408858196], "label": "Li", "properties": {}}, {"species": [{"element": "Li", "occu": 1}], "abc": [0.95171181, 0.94872285, 0.36245414], "xyz": [7.71532873590171, 13.738332256879499, 16.36788238155688], "label": "Li", "properties": {}}, {"species": [{"element": "Li", "occu": 1}], "abc": [0.53241356, 0.94556158, 0.36395365], "xyz": [4.316165456485959, 13.692554316974599, 16.4355979918958], "label": "Li", "properties": {}}, {"species": [{"element": "Li", "occu": 1}], "abc": [0.55968445, 0.42508998, 0.38090102], "xyz": [4.53724486209995, 6.1556727386826, 17.20091566446184], "label": "Li", "properties": {}}, {"species": [{"element": "Li", "occu": 1}], "abc": [0.04135434, 0.27750573, 0.47341547], "xyz": [0.33525099132294, 4.0185244003850995, 21.37872871467124], "label": "Li", "properties": {}}, {"species": [{"element": "Li", "occu": 1}], "abc": [0.9598379, 0.79839881, 0.47082646], "xyz": [7.7812052491789, 11.5615093757647, 21.261812927298323], "label": "Li", "properties": {}}, {"species": [{"element": "P", "occu": 1}], "abc": [0.23339616, 0.85961911, 0.022065609999999996], "xyz": [1.8920938893225598, 12.4480325814257, 0.9964496726601199], "label": "P", "properties": {}}, {"species": [{"element": "P", "occu": 1}], "abc": [0.7475093, 0.9440078, 0.08642361], "xyz": [6.0599016656563, 13.670054230785999, 3.90275990079612], "label": "P", "properties": {}}, {"species": [{"element": "P", "occu": 1}], "abc": [0.74336912, 0.50007894, 0.04710499], "xyz": [6.026338091693919, 7.2415781198778, 2.1271903140750803], "label": "P", "properties": {}}, {"species": [{"element": "P", "occu": 1}], "abc": [0.24286445, 0.29422278, 0.06359607], "xyz": [1.96885133747995, 4.2606018282186, 2.8719026183264402], "label": "P", "properties": {}}, {"species": [{"element": "P", "occu": 1}], "abc": [0.24515647, 0.67032344, 0.14948082000000001], "xyz": [1.9874322645877698, 9.7068665925928, 6.750328414123441], "label": "P", "properties": {}}, {"species": [{"element": "P", "occu": 1}], "abc": [0.74577751, 0.75590776, 0.21133513], "xyz": [6.04586240607041, 10.9462020045512, 9.54357577742396], "label": "P", "properties": {}}, {"species": [{"element": "P", "occu": 1}], "abc": [0.74661275, 0.31567458, 0.17188686], "xyz": [6.05263352218525, 4.571242555284599, 7.76215139221512], "label": "P", "properties": {}}, {"species": [{"element": "P", "occu": 1}], "abc": [0.23892064, 0.11299096, 0.18927956], "xyz": [1.9368796940662398, 1.6362074029352, 8.547579496023522], "label": "P", "properties": {}}, {"species": [{"element": "P", "occu": 1}], "abc": [0.24677701, 0.48357861, 0.27492724], "xyz": [2.00056964367491, 7.0026389861907, 12.415299568122082], "label": "P", "properties": {}}, {"species": [{"element": "P", "occu": 1}], "abc": [0.74676467, 0.56838658, 0.33669927], "xyz": [6.05386510587397, 8.230732174724599, 15.20483129070084], "label": "P", "properties": {}}, {"species": [{"element": "P", "occu": 1}], "abc": [0.73907265, 0.12655444, 0.29683557], "xyz": [5.9915075073661495, 1.8326183935627998, 13.40464671316044], "label": "P", "properties": {}}, {"species": [{"element": "P", "occu": 1}], "abc": [0.24669076, 0.9244602, 0.31432175], "xyz": [1.9998704329511598, 13.386987976373998, 14.194296232801001], "label": "P", "properties": {}}, {"species": [{"element": "P", "occu": 1}], "abc": [0.24841064, 0.29558352, 0.39975576], "xyz": [2.01381314065624, 4.2803065272623995, 18.05236728991392], "label": "P", "properties": {}}, {"species": [{"element": "P", "occu": 1}], "abc": [0.73378061, 0.37763214, 0.46472404], "xyz": [5.94860604512251, 5.4684419271618, 20.986236842547683], "label": "P", "properties": {}}, {"species": [{"element": "P", "occu": 1}], "abc": [0.74385543, 0.94454936, 0.42268648], "xyz": [6.03028050522513, 13.6778964907432, 19.08788402558816], "label": "P", "properties": {}}, {"species": [{"element": "P", "occu": 1}], "abc": [0.24426297, 0.73727967, 0.43896305], "xyz": [1.9801888468292699, 10.676451054912901, 19.822909381720603], "label": "P", "properties": {}}, {"species": [{"element": "S", "occu": 1}], "abc": [0.44188244, 0.81538552, 9.99999999999994e-05], "xyz": [3.5822485876500396, 11.8074917150024, 0.004515849199999973], "label": "S", "properties": {}}, {"species": [{"element": "S", "occu": 1}], "abc": [0.54449245, 0.96862431, 0.11267278], "xyz": [4.41408649322795, 14.026522711949701, 5.0881328342477605], "label": "S", "properties": {}}, {"species": [{"element": "S", "occu": 1}], "abc": [0.52963342, 0.57399525, 0.041494279999999995], "xyz": [4.29362744255522, 8.311950595867499, 1.8738191114257599], "label": "S", "properties": {}}, {"species": [{"element": "S", "occu": 1}], "abc": [0.45315825, 0.22036956, 0.07339559], "xyz": [3.6736592226757496, 3.1911429503171997, 3.31443416385028], "label": "S", "properties": {}}, {"species": [{"element": "S", "occu": 1}], "abc": [0.03338088, 0.21880627, 0.0724455], "xyz": [0.27061181755608, 3.1685051510549, 3.271529532186], "label": "S", "properties": {}}, {"species": [{"element": "S", "occu": 1}], "abc": [0.95618259, 0.57284709, 0.039313299999999995], "xyz": [7.75157241496869, 8.2953242401683, 1.7753293435436], "label": "S", "properties": {}}, {"species": [{"element": "S", "occu": 1}], "abc": [0.96946565, 0.97574568, 0.10582529], "xyz": [7.859255406229149, 14.129646345141598, 4.77891051186268], "label": "S", "properties": {}}, {"species": [{"element": "S", "occu": 1}], "abc": [0.02213517, 0.83912573, 0.00024258999999999913], "xyz": [0.17944519693946998, 12.151270609785099, 0.010954998574279961], "label": "S", "properties": {}}, {"species": [{"element": "S", "occu": 1}], "abc": [0.74658391, 0.80225006, 0.07978078000000001], "xyz": [6.05239972233281, 11.6172788263522, 3.6027797153837606], "label": "S", "properties": {}}, {"species": [{"element": "S", "occu": 1}], "abc": [0.26811567, 0.00242708, 0.02897842], "xyz": [2.1735577005149698, 0.0351462299596, 1.30862174774264], "label": "S", "properties": {}}, {"species": [{"element": "S", "occu": 1}], "abc": [0.24202738, 0.39970229, 0.09537229], "xyz": [1.9620653859375798, 5.7880369001923, 4.30686879498668], "label": "S", "properties": {}}, {"species": [{"element": "S", "occu": 1}], "abc": [0.73759997, 0.38886903, 0.01794842], "xyz": [5.9795687983962695, 5.6311618704561, 0.81052358098264], "label": "S", "properties": {}}, {"species": [{"element": "S", "occu": 1}], "abc": [0.23360316, 0.78522427, 0.06203106], "xyz": [1.89377199505956, 11.3707305747149, 2.80122912676152], "label": "S", "properties": {}}, {"species": [{"element": "S", "occu": 1}], "abc": [0.73142237, 0.02429085, 0.049018820000000005], "xyz": [5.92948828631467, 0.3517526410395, 2.21361599081944], "label": "S", "properties": {}}, {"species": [{"element": "S", "occu": 1}], "abc": [0.74886676, 0.44845219, 0.08974206], "xyz": [6.070906310167159, 6.4939778646052995, 4.0526160985735205], "label": "S", "properties": {}}, {"species": [{"element": "S", "occu": 1}], "abc": [0.24473433, 0.33277167, 0.019940619999999996], "xyz": [1.9840100638350298, 4.8188232929529, 0.9004883287450398], "label": "S", "properties": {}}, {"species": [{"element": "S", "occu": 1}], "abc": [0.46398895, 0.6353423, 0.12920972], "xyz": [3.76146144395945, 9.200309251801, 5.834916106942241], "label": "S", "properties": {}}, {"species": [{"element": "S", "occu": 1}], "abc": [0.53448964, 0.7800013, 0.23526603000000001], "xyz": [4.33299580314524, 11.295097425130999, 10.624259133626762], "label": "S", "properties": {}}, {"species": [{"element": "S", "occu": 1}], "abc": [0.53054659, 0.38817397, 0.16653437000000001], "xyz": [4.30103032089269, 5.6210967969539, 7.520441015370041], "label": "S", "properties": {}}, {"species": [{"element": "S", "occu": 1}], "abc": [0.44813136, 0.03728004, 0.1974538], "xyz": [3.6329072760657595, 0.5398474128348, 8.9167158476696], "label": "S", "properties": {}}, {"species": [{"element": "S", "occu": 1}], "abc": [0.02342867, 0.0392484, 0.19379017], "xyz": [0.18993133109796997, 0.5683509781080001, 8.751271841623641], "label": "S", "properties": {}}, {"species": [{"element": "S", "occu": 1}], "abc": [0.95683298, 0.39210837, 0.16465066], "xyz": [7.7568449907671795, 5.6780703318819, 7.435375512404721], "label": "S", "properties": {}}, {"species": [{"element": "S", "occu": 1}], "abc": [0.96187179, 0.7907007, 0.2325772], "xyz": [7.797693570325889, 11.450034045609, 10.502835625582401], "label": "S", "properties": {}}, {"species": [{"element": "S", "occu": 1}], "abc": [0.0366645, 0.64572971, 0.12488708000000001], "xyz": [0.2972314386195, 9.3507279856477, 5.639712203083361], "label": "S", "properties": {}}, {"species": [{"element": "S", "occu": 1}], "abc": [0.75377583, 0.61265674, 0.20706789], "xyz": [6.11070311466153, 8.8718026065638, 9.35087365402188], "label": "S", "properties": {}}, {"species": [{"element": "S", "occu": 1}], "abc": [0.25212063, 0.8130345, 0.15409406], "xyz": [2.04388925419833, 11.773446900015, 6.9586553757575205], "label": "S", "properties": {}}, {"species": [{"element": "S", "occu": 1}], "abc": [0.234535, 0.21300552, 0.22232722], "xyz": [1.9013262271849998, 3.0845052444024, 10.03996198575224], "label": "S", "properties": {}}, {"species": [{"element": "S", "occu": 1}], "abc": [0.74539346, 0.21457442, 0.13896218], "xyz": [6.042748992986859, 3.1072242813454, 6.27532249383256], "label": "S", "properties": {}}, {"species": [{"element": "S", "occu": 1}], "abc": [0.23329428, 0.59584165, 0.18810539], "xyz": [1.8912679694554797, 8.6283054742355, 8.49455574947188], "label": "S", "properties": {}}, {"species": [{"element": "S", "occu": 1}], "abc": [0.73624576, 0.82875751, 0.17257809], "xyz": [5.968590500956159, 12.0011297638337, 7.79336629664028], "label": "S", "properties": {}}, {"species": [{"element": "S", "occu": 1}], "abc": [0.75012409, 0.26694208, 0.21447836], "xyz": [6.081099221695189, 3.8655535580096, 9.685519304233122], "label": "S", "properties": {}}, {"species": [{"element": "S", "occu": 1}], "abc": [0.24864834, 0.16224759, 0.14644914], "xyz": [2.01574012487694, 2.3494862586033, 6.61342231709688], "label": "S", "properties": {}}, {"species": [{"element": "S", "occu": 1}], "abc": [0.46365043, 0.44894783, 0.2538465], "xyz": [3.75871713307013, 6.5011551630121, 11.463325139478], "label": "S", "properties": {}}, {"species": [{"element": "S", "occu": 1}], "abc": [0.53846738, 0.59272193, 0.36132172], "xyz": [4.3652425099775805, 8.583129214479099, 16.316744002046242], "label": "S", "properties": {}}, {"species": [{"element": "S", "occu": 1}], "abc": [0.52392231, 0.20031855, 0.29232866], "xyz": [4.24732866740721, 2.9007868811385, 13.201121453980722], "label": "S", "properties": {}}, {"species": [{"element": "S", "occu": 1}], "abc": [0.45664853, 0.8476482, 0.32161663], "xyz": [3.7019541931672295, 12.274683389934, 14.523722012921962], "label": "S", "properties": {}}, {"species": [{"element": "S", "occu": 1}], "abc": [0.02973845, 0.8526856, 0.31942256], "xyz": [0.24108339881394997, 12.347629324472, 14.424641120379523], "label": "S", "properties": {}}, {"species": [{"element": "S", "occu": 1}], "abc": [0.94902997, 0.20127939, 0.28852089000000003], "xyz": [7.693587619526269, 2.9147006802693, 13.029168302897881], "label": "S", "properties": {}}, {"species": [{"element": "S", "occu": 1}], "abc": [0.96551846, 0.60362413, 0.35696083], "xyz": [7.827256361861859, 8.7410025553931, 16.119812785868362], "label": "S", "properties": {}}, {"species": [{"element": "S", "occu": 1}], "abc": [0.03642132, 0.45865629, 0.25081771], "xyz": [0.29526002918412, 6.6417421101723, 11.326549550493322], "label": "S", "properties": {}}, {"species": [{"element": "S", "occu": 1}], "abc": [0.75442799, 0.42570789, 0.33209207], "xyz": [6.11599003948009, 6.164620613064299, 14.996777086358442], "label": "S", "properties": {}}, {"species": [{"element": "S", "occu": 1}], "abc": [0.25371177, 0.6268598, 0.27928305], "xyz": [2.05678829363007, 9.077475272026, 12.6120013791606], "label": "S", "properties": {}}, {"species": [{"element": "S", "occu": 1}], "abc": [0.24541856, 0.02519918, 0.34735403], "xyz": [1.98955697344096, 0.3649060496866, 15.68598418492276], "label": "S", "properties": {}}, {"species": [{"element": "S", "occu": 1}], "abc": [0.73343596, 0.02620371, 0.26388053], "xyz": [5.94581203960436, 0.3794525180277, 11.916446802960762], "label": "S", "properties": {}}, {"species": [{"element": "S", "occu": 1}], "abc": [0.23732, 0.41044773, 0.31363244], "xyz": [1.9239036401199998, 5.9436402199251, 14.163168032680481], "label": "S", "properties": {}}, {"species": [{"element": "S", "occu": 1}], "abc": [0.73523277, 0.64316354, 0.29811911], "xyz": [5.960378402741069, 9.3135676114798, 13.462609443982121], "label": "S", "properties": {}}, {"species": [{"element": "S", "occu": 1}], "abc": [0.74954278, 0.07793048, 0.33979725], "xyz": [6.07638666301898, 1.1285011499175999, 15.344731395747], "label": "S", "properties": {}}, {"species": [{"element": "S", "occu": 1}], "abc": [0.25102613, 0.97328296, 0.27173294], "xyz": [2.03501637144883, 14.0939840169752, 12.27104979712648], "label": "S", "properties": {}}, {"species": [{"element": "S", "occu": 1}], "abc": [0.46944789, 0.26317158, 0.38008601000000003], "xyz": [3.8057159296209897, 3.8109534376746, 17.164111041896923], "label": "S", "properties": {}}, {"species": [{"element": "S", "occu": 1}], "abc": [0.52171118, 0.3983625, 0.48629966], "xyz": [4.22940349862338, 5.768635575375, 21.96055930571272], "label": "S", "properties": {}}, {"species": [{"element": "S", "occu": 1}], "abc": [0.53394789, 0.01938808, 0.41366131], "xyz": [4.328603949120989, 0.28075626602959997, 18.68032095834452], "label": "S", "properties": {}}, {"species": [{"element": "S", "occu": 1}], "abc": [0.45748653, 0.66541652, 0.44719374], "xyz": [3.7087476840252296, 9.6358101219724, 20.194594930240083], "label": "S", "properties": {}}, {"species": [{"element": "S", "occu": 1}], "abc": [0.03102736, 0.66278947, 0.44451537], "xyz": [0.25153232280175997, 9.5977681524389, 20.073643780022042], "label": "S", "properties": {}}, {"species": [{"element": "S", "occu": 1}], "abc": [0.95363161, 0.01903744, 0.41303336], "xyz": [7.730892153263509, 0.27567869377279997, 18.651963683293122], "label": "S", "properties": {}}, {"species": [{"element": "S", "occu": 1}], "abc": [0.94178828, 0.42093759, 0.48699503], "xyz": [7.6348807522094795, 6.095542518903299, 21.99196116629476], "label": "S", "properties": {}}, {"species": [{"element": "S", "occu": 1}], "abc": [0.04415629, 0.27184897, 0.37369618], "xyz": [0.35796581436539, 3.9366095942039, 16.87555595496056], "label": "S", "properties": {}}, {"species": [{"element": "S", "occu": 1}], "abc": [0.7675602, 0.23494389, 0.45755196], "xyz": [6.2224501213182, 3.4021919283843, 20.66235652524432], "label": "S", "properties": {}}, {"species": [{"element": "S", "occu": 1}], "abc": [0.24895828, 0.43701489, 0.40674212], "xyz": [2.0182527436794797, 6.328355810154299, 18.36786077208304], "label": "S", "properties": {}}, {"species": [{"element": "S", "occu": 1}], "abc": [0.23644941, 0.84924379, 0.46782901], "xyz": [1.9168459489433098, 12.2977889212973, 21.126452605452922], "label": "S", "properties": {}}, {"species": [{"element": "S", "occu": 1}], "abc": [0.7443581, 0.83901754, 0.39089913], "xyz": [6.0343555458571, 12.149703924459798, 17.65241523491196], "label": "S", "properties": {}}, {"species": [{"element": "S", "occu": 1}], "abc": [0.23208278, 0.21470948, 0.43702885], "xyz": [1.8814465921589798, 3.1091800676476, 19.735563826494204], "label": "S", "properties": {}}, {"species": [{"element": "S", "occu": 1}], "abc": [0.73631276, 0.45241592, 0.42480078], "xyz": [5.96913365595316, 6.5513761234504, 19.18336262522376], "label": "S", "properties": {}}, {"species": [{"element": "S", "occu": 1}], "abc": [0.74524732, 0.90590805, 0.46632064], "xyz": [6.04156426655012, 13.118336704003498, 21.05833689087488], "label": "S", "properties": {}}, {"species": [{"element": "S", "occu": 1}], "abc": [0.25043947, 0.78834526, 0.39627135], "xyz": [2.03026044144077, 11.415925225176201, 17.895016588804204], "label": "S", "properties": {}}]}, "formula": "(Li3PS4)16.0", "bandgap": 2.0254, "slab_thickness": 21.98744531709476}