{"miller": "101_0.17", "final_energy": -559.9311338, "gamma": 0.012583979412592008, "work_function": "Not calculated", "ionization_potentail": "Not calculated", "electron_affinity": "Not calculated", "is_stochiometric": true, "incar_parameters": {"SYSTEM": "unknown system", "LCOMPAT": false, "PREC": "normal", "ENMAX": 520.0, "ENAUG": 628.945, "EDIFF": 1e-05, "IALGO": 38, "IWAVPR": 11, "NBANDS": 370, "NBANDSLOW": -1, "NBANDSHIGH": -1, "NELECT": 608.0, "TURBO": 0, "IRESTART": 0, "NREBOOT": 0, "NMIN": 0, "EREF": 0.0, "ISMEAR": 0, "SIGMA": 0.05, "KSPACING": 0.5, "KGAMMA": true, "KBLOWUP": true, "LREAL": true, "ROPT": [-0.0005, -0.0005, -0.0005], "LMAXPAW": -100, "LMAXMIX": 2, "NLSPLINE": false, "ISTART": 0, "ICHARG": 2, "INIWAV": 1, "ISPIN": 1, "LNONCOLLINEAR": false, "MAGMOM": [0.6, 0.6, 0.6, 0.6, 0.6, 0.6, 0.6, 0.6, 0.6, 0.6, 0.6, 0.6, 0.6, 0.6, 0.6, 0.6, 0.6, 0.6, 0.6, 0.6, 0.6, 0.6, 0.6, 0.6, 0.6, 0.6, 0.6, 0.6, 0.6, 0.6, 0.6, 0.6, 0.6, 0.6, 0.6, 0.6, 0.6, 0.6, 0.6, 0.6, 0.6, 0.6, 0.6, 0.6, 0.6, 0.6, 0.6, 0.6, 0.6, 0.6, 0.6, 0.6, 0.6, 0.6, 0.6, 0.6, 0.6, 0.6, 0.6, 0.6, 0.6, 0.6, 0.6, 0.6, 0.6, 0.6, 0.6, 0.6, 0.6, 0.6, 0.6, 0.6, 0.6, 0.6, 0.6, 0.6, 0.6, 0.6, 0.6, 0.6, 0.6, 0.6, 0.6, 0.6, 0.6, 0.6, 0.6, 0.6, 0.6, 0.6, 0.6, 0.6, 0.6, 0.6, 0.6, 0.6, 0.6, 0.6, 0.6, 0.6, 0.6, 0.6, 0.6, 0.6, 0.6, 0.6, 0.6, 0.6, 0.6, 0.6, 0.6, 0.6, 0.6, 0.6, 0.6, 0.6, 0.6, 0.6, 0.6, 0.6, 0.6, 0.6, 0.6, 0.6, 0.6, 0.6, 0.6, 0.6], "NUPDOWN": -1.0, "LSORBIT": false, "SAXIS": [0.0, 0.0, 1.0], "LSPIRAL": false, "QSPIRAL": [0.0, 0.0, 0.0], "LZEROZ": false, "LASPH": false, "LMETAGGA": false, "NELM": 100, "NELMDL": -5, "NELMIN": 6, "ENINI": 520.0, "LDIAG": true, "LSUBROT": false, "WEIMIN": 0.001, "EBREAK": 1e-08, "DEPER": 0.3, "NRMM": 4, "TIME": 0.4, "AMIX": 0.4, "BMIX": 1.0, "AMIN": 0.1, "AMIX_MAG": 1.6, "BMIX_MAG": 1.0, "IMIX": 4, "MIXFIRST": false, "MAXMIX": -45, "WC": 100.0, "INIMIX": 1, "MIXPRE": 1, "MREMOVE": 5, "LDIPOL": false, "LMONO": false, "IDIPOL": 0, "EPSILON": 1.0, "DIPOL": [-100.0, -100.0, -100.0], "EFIELD": 0.0, "NGX": 48, "NGY": 84, "NGZ": 252, "NGXF": 96, "NGYF": 168, "NGZF": 504, "ADDGRID": false, "NSW": 150, "IBRION": 2, "MDALGO": 0, "ISIF": 2, "PSTRESS": 0.0, "EDIFFG": -0.01, "NFREE": 1, "POTIM": 0.5, "SMASS": -3.0, "SCALEE": 1.0, "TEBEG": 0.0001, "TEEND": 0.0001, "NBLOCK": 1, "KBLOCK": 150, "NPACO": 256, "APACO": 10.0, "ISYM": 0, "SYMPREC": 1e-05, "LORBIT": 11, "RWIGS": [-1.0, -1.0, -1.0], "NEDOS": 301, "EMIN": 10.0, "EMAX": -10.0, "EFERMI": 0.0, "NWRITE": 2, "LWAVE": false, "LDOWNSAMPLE": false, "LCHARG": false, "LPARD": false, "LVTOT": false, "LVHAR": false, "LELF": false, "LOPTICS": false, "STM": [0.0, 0.0, 0.0, 0.0, 0.0, 0.0, 0.0], "NPAR": 2, "NSIM": 4, "NBLK": -1, "LPLANE": true, "LSCALAPACK": true, "LSCAAWARE": false, "LSCALU": false, "LASYNC": false, "LORBITALREAL": false, "IDIOT": 3, "PHON_NSTRUCT": -1, "LMUSIC": false, "POMASS": [7.01, 30.974, 32.066], "DARWINR": [0.0, 0.0, 0.0], "DARWINV": [1.0, 1.0, 1.0], "LCORR": true, "GGA_COMPAT": true, "LBERRY": false, "ICORELEVEL": 0, "LDAU": false, "I_CONSTRAINED_M": 0, "GGA": "--", "VOSKOWN": 0, "LHFCALC": false, "PRECFOCK": "", "LSYMGRAD": false, "LHFONE": false, "LRHFCALC": false, "LTHOMAS": false, "LMODELHF": false, "LFOCKACE": false, "ENCUT4O": -1.0, "EXXOEP": 0, "FOURORBIT": 0, "AEXX": 0.0, "HFALPHA": 0.0, "MCALPHA": 0.0, "ALDAX": 1.0, "AGGAX": 1.0, "ALDAC": 1.0, "AGGAC": 1.0, "NKREDX": 1, "NKREDY": 1, "NKREDZ": 1, "SHIFTRED": false, "ODDONLY": false, "EVENONLY": false, "LMAXFOCK": 0, "NMAXFOCKAE": 0, "LFOCKAEDFT": false, "HFSCREEN": 0.0, "HFSCREENC": 0.0, "NBANDSGWLOW": 0, "LUSE_VDW": false, "Zab_VDW": -0.8491, "PARAM1": 0.1234, "PARAM2": 1.0, "PARAM3": 0.0, "MODEL_GW": 0, "MODEL_EPS0": 24.8498827, "MODEL_ALPHA": 1.0, "LEPSILON": false, "LRPA": false, "LNABLA": false, "LVEL": false, "CSHIFT": 0.1, "OMEGAMAX": -1.0, "DEG_THRESHOLD": 0.002, "RTIME": -0.1, "WPLASMAI": 0.0, "DFIELD": [0.0, 0.0, 0.0], "WPLASMA": [0.0, 0.0, 0.0, 0.0, 0.0, 0.0, 0.0, 0.0, 0.0], "NUCIND": false, "MAGPOS": [0.0, 0.0, 0.0], "LNICSALL": true, "ORBITALMAG": false, "LMAGBLOCH": false, "LCHIMAG": false, "LGAUGE": true, "MAGATOM": 0, "MAGDIPOL": [0.0, 0.0, 0.0], "AVECCONST": [0.0, 0.0, 0.0], "LFINITE_TEMPERATURE": false, "LADDER": false, "LRPAFORCE": false, "LFXC": false, "LHARTREE": true, "IBSE": 0, "KPOINT": [-1, 0, 0, 0], "LTCTC": false, "LTCTE": false, "LTETE": false, "LTRIPLET": false, "LFXCEPS": false, "LFXHEG": false, "NATURALO": 2, "LHOLEGF": false, "L2ORDER": false, "LDMP1": false, "LMP2LT": false, "LSMP2LT": false, "LGWLF": false, "ENCUTGW": -2.0, "ENCUTGWSOFT": -2.0, "ENCUTLF": -1.0, "LESF_SPLINES": false, "LMAXMP2": -1, "SCISSOR": 0.0, "NOMEGA": 0, "NOMEGAR": 0, "NBANDSGW": -1, "NBANDSO": -1, "NBANDSV": -1, "NELMGW": 1, "NELMHF": 1, "DIM": 3, "IESPILON": 4, "ANTIRES": 0, "OMEGAMIN": -30.0, "OMEGATL": -200.0, "OMEGAGRID": 0, "LSELFENERGY": false, "LSPECTRAL": false, "LSPECTRALGW": false, "LSINGLES": false, "LFERMIGW": false, "ODDONLYGW": false, "EVENONLYGW": false, "NKREDLFX": 1, "NKREDLFY": 1, "NKREDLFZ": 1, "MAXMEM": 2800, "TELESCOPE": 0, "NTAUPAR": -1, "NOMEGAPAR": -1, "DAMP_NEWTON": 0.80000001, "LAMBDA": 1.0, "OFIELD_KAPPA": 0.0, "OFIELD_K": [0.0, 0.0, 0.0], "OFIELD_Q6_NEAR": 0.0, "OFIELD_Q6_FAR": 0.0, "OFIELD_A": 0.0, "KPOINTS_OPT_MODE": 1, "LKPOINTS_OPT": false, "@module": "pymatgen.io.vasp.inputs", "@class": "Incar"}, "relaxed_structures": {"@module": "pymatgen.core.structure", "@class": "Structure", "charge": 0, "lattice": {"matrix": [[8.106791, 0.0, 0.0], [0.0, 14.48087, 0.0], [0.0, 0.0, 45.158492]], "a": 8.106791, "b": 14.48087, "c": 45.158492, "alpha": 90.0, "beta": 90.0, "gamma": 90.0, "volume": 5301.308309094782}, "sites": [{"species": [{"element": "Li", "occu": 1}], "abc": [0.9612293, 0.69416951, 0.04223417], "xyz": [7.792485038176299, 10.052178432273701, 1.9072314280716403], "label": "Li", "properties": {}}, {"species": [{"element": "Li", "occu": 1}], "abc": [0.03161817, 0.99520292, 0.05713911000000001], "xyz": [0.25632189599247, 14.411404108140399, 2.5803160418221203], "label": "Li", "properties": {}}, {"species": [{"element": "Li", "occu": 1}], "abc": [0.02082698, 0.37687716, 0.014573570000000008], "xyz": [0.16883997402117998, 5.4575091599292, 0.6581204442564403], "label": "Li", "properties": {}}, {"species": [{"element": "Li", "occu": 1}], "abc": [0.74094379, 0.23968768, 0.06425597000000001], "xyz": [6.006676448277889, 3.4708861346816, 2.9017027071972405], "label": "Li", "properties": {}}, {"species": [{"element": "Li", "occu": 1}], "abc": [0.44488088, 0.99441259, 0.06893663], "xyz": [3.6065563140560797, 14.3999594421533, 3.11307425436196], "label": "Li", "properties": {}}, {"species": [{"element": "Li", "occu": 1}], "abc": [0.51135916, 0.69272628, 0.046869759999999996], "xyz": [4.14548183605556, 10.0312792062636, 2.11656768200192], "label": "Li", "properties": {}}, {"species": [{"element": "Li", "occu": 1}], "abc": [0.46392191, 0.38079427, 0.015383010000000003], "xyz": [3.7609179646908095, 5.5142323206149, 0.6946735340209201], "label": "Li", "properties": {}}, {"species": [{"element": "Li", "occu": 1}], "abc": [0.54096226, 0.90438664, 0.013033850000000007], "xyz": [4.38546798070766, 13.0963053635768, 0.5885890109542004], "label": "Li", "properties": {}}, {"species": [{"element": "Li", "occu": 1}], "abc": [0.95469057, 0.50569821, 0.1699097], "xyz": [7.73947692066087, 7.3229500382427, 7.672865828172401], "label": "Li", "properties": {}}, {"species": [{"element": "Li", "occu": 1}], "abc": [0.0216258, 0.81389078, 0.18502022], "xyz": [0.1753158408078, 11.7858465793786, 8.355234124708241], "label": "Li", "properties": {}}, {"species": [{"element": "Li", "occu": 1}], "abc": [0.02766839, 0.46363522, 0.08994065], "xyz": [0.22430185503649, 6.7138413482414, 4.0615841234998005], "label": "Li", "properties": {}}, {"species": [{"element": "Li", "occu": 1}], "abc": [0.96781188, 0.03980262, 0.1437238], "xyz": [7.845848638477079, 0.5763765658793999, 6.490350072509601], "label": "Li", "properties": {}}, {"species": [{"element": "Li", "occu": 1}], "abc": [0.53689923, 0.03622803, 0.14929311], "xyz": [4.352529845670929, 0.5246133927861, 6.741851713590121], "label": "Li", "properties": {}}, {"species": [{"element": "Li", "occu": 1}], "abc": [0.46819935, 0.45832377, 0.09146094], "xyz": [3.7955942767858497, 6.6369269312799, 4.130238127302481], "label": "Li", "properties": {}}, {"species": [{"element": "Li", "occu": 1}], "abc": [0.45577696, 0.81055007, 0.19141985], "xyz": [3.69488855733536, 11.7374701921609, 8.6442317648662], "label": "Li", "properties": {}}, {"species": [{"element": "Li", "occu": 1}], "abc": [0.52197276, 0.50049161, 0.17592619999999998], "xyz": [4.23152407301316, 7.2475539405006995, 7.944561895290399], "label": "Li", "properties": {}}, {"species": [{"element": "Li", "occu": 1}], "abc": [0.05239016, 0.7560129, 0.10552905], "xyz": [0.42471607757655994, 10.947724523223, 4.7655327601926], "label": "Li", "properties": {}}, {"species": [{"element": "Li", "occu": 1}], "abc": [0.03052762, 0.23874339, 0.12198447], "xyz": [0.24748103506741997, 3.4572119939493, 5.50863471261924], "label": "Li", "properties": {}}, {"species": [{"element": "Li", "occu": 1}], "abc": [0.45127678, 0.23303292, 0.12423885999999999], "xyz": [3.65840653861298, 3.3745194202404, 5.61043956539912], "label": "Li", "properties": {}}, {"species": [{"element": "Li", "occu": 1}], "abc": [0.54232158, 0.74400879, 0.12542262999999998], "xyz": [4.39648770384978, 10.7738945668473, 5.6638968334739594], "label": "Li", "properties": {}}, {"species": [{"element": "Li", "occu": 1}], "abc": [0.95650178, 0.31618713, 0.29590117], "xyz": [7.754160021587979, 4.578664725203099, 13.36245061823564], "label": "Li", "properties": {}}, {"species": [{"element": "Li", "occu": 1}], "abc": [0.02053419, 0.62730537, 0.30960782], "xyz": [0.16646638668429, 9.083927513271899, 13.98142226260744], "label": "Li", "properties": {}}, {"species": [{"element": "Li", "occu": 1}], "abc": [0.03116338, 0.28067955, 0.21370525], "xyz": [0.25263500851358, 4.0644840752085, 9.650606822483], "label": "Li", "properties": {}}, {"species": [{"element": "Li", "occu": 1}], "abc": [0.96528191, 0.85974218, 0.27010627], "xyz": [7.825338700450809, 12.4498147420966, 12.19759183294484], "label": "Li", "properties": {}}, {"species": [{"element": "Li", "occu": 1}], "abc": [0.53128771, 0.84673706, 0.27286336], "xyz": [4.307038425838609, 12.261489290042201, 12.322097859653121], "label": "Li", "properties": {}}, {"species": [{"element": "Li", "occu": 1}], "abc": [0.46494909, 0.26845035, 0.21634278], "xyz": [3.76924509827019, 3.8873946198044997, 9.769713699887761], "label": "Li", "properties": {}}, {"species": [{"element": "Li", "occu": 1}], "abc": [0.45275968, 0.62065977, 0.31721621], "xyz": [3.67042809898688, 8.9876934435999, 14.325005681555322], "label": "Li", "properties": {}}, {"species": [{"element": "Li", "occu": 1}], "abc": [0.52298074, 0.31487551, 0.30141741], "xyz": [4.23969555620534, 4.5596713264937, 13.61155569814572], "label": "Li", "properties": {}}, {"species": [{"element": "Li", "occu": 1}], "abc": [0.0468877, 0.57122605, 0.23394656999999996], "xyz": [0.38010878437069995, 8.2718501706635, 10.564674309772439], "label": "Li", "properties": {}}, {"species": [{"element": "Li", "occu": 1}], "abc": [0.93786241, 0.08255057, 0.23569648999999998], "xyz": [7.60305454462631, 1.1954040725959, 10.64369805809308], "label": "Li", "properties": {}}, {"species": [{"element": "Li", "occu": 1}], "abc": [0.43798805, 0.04650178, 0.25098067], "xyz": [3.55067758184755, 0.6733862309486, 11.333908578349641], "label": "Li", "properties": {}}, {"species": [{"element": "Li", "occu": 1}], "abc": [0.54768552, 0.55610025, 0.25237262], "xyz": [4.4399720443663195, 8.0528154272175, 11.39676694128904], "label": "Li", "properties": {}}, {"species": [{"element": "Li", "occu": 1}], "abc": [0.94068319, 0.1324125, 0.4179012], "xyz": [7.62592201854329, 1.9174481988749998, 18.8717879969904], "label": "Li", "properties": {}}, {"species": [{"element": "Li", "occu": 1}], "abc": [0.01133086, 0.43456523, 0.43973032], "xyz": [0.09185691387025999, 6.2928826021501, 19.85755813787744], "label": "Li", "properties": {}}, {"species": [{"element": "Li", "occu": 1}], "abc": [0.03647657, 0.09085312, 0.33765306], "xyz": [0.29570792938686996, 1.3156322198144, 15.24790300878552], "label": "Li", "properties": {}}, {"species": [{"element": "Li", "occu": 1}], "abc": [0.96846393, 0.67068911, 0.39477697], "xyz": [7.851134671548629, 9.7121618123257, 17.827532641529242], "label": "Li", "properties": {}}, {"species": [{"element": "Li", "occu": 1}], "abc": [0.52890339, 0.66597038, 0.39659578], "xyz": [4.2877092419214895, 9.6438304966306, 17.909667358363762], "label": "Li", "properties": {}}, {"species": [{"element": "Li", "occu": 1}], "abc": [0.46581785, 0.08957013, 0.34285161999999997], "xyz": [3.7762879540193497, 1.2970534084131, 15.48266213895704], "label": "Li", "properties": {}}, {"species": [{"element": "Li", "occu": 1}], "abc": [0.46164203, 0.43463731, 0.44392208], "xyz": [3.7424354540257294, 6.293926383259699, 20.04685169830336], "label": "Li", "properties": {}}, {"species": [{"element": "Li", "occu": 1}], "abc": [0.52979783, 0.13282047, 0.4305063], "xyz": [4.29496028006353, 1.9233559594088998, 19.4410153044996], "label": "Li", "properties": {}}, {"species": [{"element": "Li", "occu": 1}], "abc": [0.04649302, 0.38499196, 0.36139267999999997], "xyz": [0.37690919609882, 5.5750185238052, 16.31994844863856], "label": "Li", "properties": {}}, {"species": [{"element": "Li", "occu": 1}], "abc": [0.95407111, 0.89410822, 0.3628605], "xyz": [7.734455087908009, 12.947464899751399, 16.386232986366], "label": "Li", "properties": {}}, {"species": [{"element": "Li", "occu": 1}], "abc": [0.5326415, 0.8907639, 0.36425764], "xyz": [4.3180133184265, 12.899036236593, 16.449325721878882], "label": "Li", "properties": {}}, {"species": [{"element": "Li", "occu": 1}], "abc": [0.55726361, 0.36975344, 0.38089068], "xyz": [4.51761961817551, 5.3543514966928, 17.20044872565456], "label": "Li", "properties": {}}, {"species": [{"element": "Li", "occu": 1}], "abc": [0.24348475, 0.8880336, 0.42254259], "xyz": [1.97387997993725, 12.859499117232, 19.08138617017428], "label": "Li", "properties": {}}, {"species": [{"element": "Li", "occu": 1}], "abc": [0.51917099, 0.74992495, 0.47270876], "xyz": [4.20881070919309, 10.8595657107065, 21.34681475678992], "label": "Li", "properties": {}}, {"species": [{"element": "Li", "occu": 1}], "abc": [0.04064086, 0.22538138, 0.47361598], "xyz": [0.32946695808026, 3.2637184642005996, 21.387783443902162], "label": "Li", "properties": {}}, {"species": [{"element": "Li", "occu": 1}], "abc": [0.9624119, 0.74441081, 0.47150833], "xyz": [7.802072129212899, 10.779716166204699, 21.29260514823836], "label": "Li", "properties": {}}, {"species": [{"element": "P", "occu": 1}], "abc": [0.23304782, 0.80453957, 0.02213475000000001], "xyz": [1.8892699697456197, 11.6504329230259, 0.9995719307970005], "label": "P", "properties": {}}, {"species": [{"element": "P", "occu": 1}], "abc": [0.74512179, 0.44466181, 0.04753988000000001], "xyz": [6.040546621075889, 6.4390898645747, 2.1468292906609605], "label": "P", "properties": {}}, {"species": [{"element": "P", "occu": 1}], "abc": [0.24357423, 0.23778286, 0.06383776000000001], "xyz": [1.9746053755959299, 3.4433026838882, 2.8828169742579206], "label": "P", "properties": {}}, {"species": [{"element": "P", "occu": 1}], "abc": [0.24489436, 0.61524141, 0.14987703000000002], "xyz": [1.98530739359876, 8.9092308768267, 6.768220660238762], "label": "P", "properties": {}}, {"species": [{"element": "P", "occu": 1}], "abc": [0.74811738, 0.88759361, 0.08675832000000001], "xyz": [6.06483124312758, 12.8531276792407, 3.917874899653441], "label": "P", "properties": {}}, {"species": [{"element": "P", "occu": 1}], "abc": [0.74680827, 0.25918245, 0.17193155999999998], "xyz": [6.05421856196157, 3.7531873647315, 7.76416997680752], "label": "P", "properties": {}}, {"species": [{"element": "P", "occu": 1}], "abc": [0.23962305, 0.05717896, 0.18968753], "xyz": [1.9425739851325499, 0.8280010864952, 8.56600280600476], "label": "P", "properties": {}}, {"species": [{"element": "P", "occu": 1}], "abc": [0.24540304, 0.42744373, 0.27491677999999997], "xyz": [1.9894311560446398, 6.1897570864451, 12.41482721029576], "label": "P", "properties": {}}, {"species": [{"element": "P", "occu": 1}], "abc": [0.74577868, 0.70019747, 0.21156642999999997], "xyz": [6.04587189101588, 10.1394685373989, 9.554020936623559], "label": "P", "properties": {}}, {"species": [{"element": "P", "occu": 1}], "abc": [0.73918369, 0.07057759, 0.29715268], "xyz": [5.992407685438789, 1.0220249057033, 13.41896692255856], "label": "P", "properties": {}}, {"species": [{"element": "P", "occu": 1}], "abc": [0.24693802, 0.8683594, 0.31464294], "xyz": [2.00187491809382, 12.574599584678, 14.20880068884648], "label": "P", "properties": {}}, {"species": [{"element": "P", "occu": 1}], "abc": [0.24615427, 0.23997088, 0.4000577], "xyz": [1.9955212206475699, 3.4749871170656, 18.066002444988403], "label": "P", "properties": {}}, {"species": [{"element": "P", "occu": 1}], "abc": [0.74560066, 0.51272659, 0.33696293], "xyz": [6.04442872008206, 7.424727095333299, 15.21673777870156], "label": "P", "properties": {}}, {"species": [{"element": "P", "occu": 1}], "abc": [0.74392095, 0.88963851, 0.42302614], "xyz": [6.03081166217145, 12.8827396103037, 19.10322255898088], "label": "P", "properties": {}}, {"species": [{"element": "P", "occu": 1}], "abc": [0.24475656, 0.68294057, 0.43895753], "xyz": [1.98419027779896, 9.8895736118959, 19.82266010684476], "label": "P", "properties": {}}, {"species": [{"element": "P", "occu": 1}], "abc": [0.73216497, 0.32413901, 0.46458658], "xyz": [5.93550838931127, 4.6938148657387, 20.980029356237363], "label": "P", "properties": {}}, {"species": [{"element": "S", "occu": 1}], "abc": [0.44125762, 0.76023211, 0.00010000000000000286], "xyz": [3.57718330249742, 11.0088223547357, 0.00451584920000013], "label": "S", "properties": {}}, {"species": [{"element": "S", "occu": 1}], "abc": [0.53102686, 0.51793698, 0.041484530000000006], "xyz": [4.304923769406259, 7.5001780755726, 1.8733788161287603], "label": "S", "properties": {}}, {"species": [{"element": "S", "occu": 1}], "abc": [0.45396301, 0.16393019, 0.07358515], "xyz": [3.6801832438009097, 2.3738517704653, 3.3229944075938005], "label": "S", "properties": {}}, {"species": [{"element": "S", "occu": 1}], "abc": [0.03409497, 0.16252565, 0.07289595], "xyz": [0.27640079594127, 2.3535128093154998, 3.2918711749074], "label": "S", "properties": {}}, {"species": [{"element": "S", "occu": 1}], "abc": [0.95733167, 0.51792964, 0.0397874], "xyz": [7.760887766370969, 7.500071785986799, 1.7967389846008002], "label": "S", "properties": {}}, {"species": [{"element": "S", "occu": 1}], "abc": [0.02128132, 0.78428247, 0.0004467800000000008], "xyz": [0.17252321344411997, 11.357092491348899, 0.020175911055760037], "label": "S", "properties": {}}, {"species": [{"element": "S", "occu": 1}], "abc": [0.26825068, 0.94728282, 0.02917309], "xyz": [2.17465219836788, 13.717479369653399, 1.31741275138028], "label": "S", "properties": {}}, {"species": [{"element": "S", "occu": 1}], "abc": [0.74173227, 0.33281087, 0.01862255], "xyz": [6.013068490845569, 4.8193909430568995, 0.8409662751946001], "label": "S", "properties": {}}, {"species": [{"element": "S", "occu": 1}], "abc": [0.23401475, 0.72994173, 0.0620946], "xyz": [1.8971086691672499, 10.5701912997051, 2.8040984973432], "label": "S", "properties": {}}, {"species": [{"element": "S", "occu": 1}], "abc": [0.73308134, 0.9674679, 0.049284190000000005], "xyz": [5.94293720937994, 14.009776889073, 2.22559969984148], "label": "S", "properties": {}}, {"species": [{"element": "S", "occu": 1}], "abc": [0.24529944, 0.27594953, 0.020155610000000004], "xyz": [1.98859129249704, 3.9959892704911, 0.9101969529401203], "label": "S", "properties": {}}, {"species": [{"element": "S", "occu": 1}], "abc": [0.46210288, 0.5799699, 0.12904031], "xyz": [3.74617146865808, 8.398468725813, 5.82726580681252], "label": "S", "properties": {}}, {"species": [{"element": "S", "occu": 1}], "abc": [0.54391137, 0.91227343, 0.11274128000000001], "xyz": [4.409375799113669, 13.2105129442841, 5.091226190949761], "label": "S", "properties": {}}, {"species": [{"element": "S", "occu": 1}], "abc": [0.5302571, 0.33115735, 0.16660988], "xyz": [4.2986834859661, 4.7954465348945, 7.5238509331009595], "label": "S", "properties": {}}, {"species": [{"element": "S", "occu": 1}], "abc": [0.44882151, 0.98189532, 0.19809904], "xyz": [3.6385021778744098, 14.2186984825284, 8.945853913047682], "label": "S", "properties": {}}, {"species": [{"element": "S", "occu": 1}], "abc": [0.02393977, 0.98372992, 0.19397682], "xyz": [0.19407471197806997, 14.2452650866304, 8.75970067415544], "label": "S", "properties": {}}, {"species": [{"element": "S", "occu": 1}], "abc": [0.9572105, 0.3355018, 0.16457816000000003], "xyz": [7.759905466505499, 4.858357950566, 7.4321015217347215], "label": "S", "properties": {}}, {"species": [{"element": "S", "occu": 1}], "abc": [0.96924701, 0.91933408, 0.10648907], "xyz": [7.857482937444909, 13.3127572990496, 4.808885815682441], "label": "S", "properties": {}}, {"species": [{"element": "S", "occu": 1}], "abc": [0.034866, 0.59069432, 0.12567943999999998], "xyz": [0.282651375006, 8.5537676576584, 5.675493985804479], "label": "S", "properties": {}}, {"species": [{"element": "S", "occu": 1}], "abc": [0.74779625, 0.74588856, 0.08012232000000001], "xyz": [6.06222790933375, 10.8011152718472, 3.6182031467414406], "label": "S", "properties": {}}, {"species": [{"element": "S", "occu": 1}], "abc": [0.25321212, 0.75788932, 0.15448429000000002], "xyz": [2.05273773550692, 10.974896717308399, 6.976277574090681], "label": "S", "properties": {}}, {"species": [{"element": "S", "occu": 1}], "abc": [0.24318014, 0.3438077, 0.09543314000000001], "xyz": [1.9714105703307399, 4.978634608699, 4.309616689224881], "label": "S", "properties": {}}, {"species": [{"element": "S", "occu": 1}], "abc": [0.74545848, 0.15771038, 0.13915845999999998], "xyz": [6.04327609653768, 2.2837835104306, 6.28418620264232], "label": "S", "properties": {}}, {"species": [{"element": "S", "occu": 1}], "abc": [0.23565974, 0.54052587, 0.18848362000000002], "xyz": [1.9104442592943398, 7.827284855106899, 8.51163604590104], "label": "S", "properties": {}}, {"species": [{"element": "S", "occu": 1}], "abc": [0.73520526, 0.77345478, 0.17290641], "xyz": [5.960155384920659, 11.2002981200586, 7.808192732733721], "label": "S", "properties": {}}, {"species": [{"element": "S", "occu": 1}], "abc": [0.74938483, 0.39371226, 0.09025380000000001], "xyz": [6.075106195380529, 5.7012960544662, 4.075725505269601], "label": "S", "properties": {}}, {"species": [{"element": "S", "occu": 1}], "abc": [0.25037748, 0.10580781, 0.1467347], "xyz": [2.0297579014666796, 1.5321891415947, 6.6263177760724], "label": "S", "properties": {}}, {"species": [{"element": "S", "occu": 1}], "abc": [0.4616948, 0.39248486, 0.25367109], "xyz": [3.7428632493868, 5.6835222346281995, 11.45540388839628], "label": "S", "properties": {}}, {"species": [{"element": "S", "occu": 1}], "abc": [0.53578793, 0.72433452, 0.23583203999999997], "xyz": [4.34352076883263, 10.488994020632399, 10.649819291683679], "label": "S", "properties": {}}, {"species": [{"element": "S", "occu": 1}], "abc": [0.52400171, 0.14461836, 0.29280202], "xyz": [4.24797234661261, 2.0941996707732, 13.222497677753841], "label": "S", "properties": {}}, {"species": [{"element": "S", "occu": 1}], "abc": [0.45702731, 0.79179276, 0.3220557], "xyz": [3.70502488346221, 11.465848024501199, 14.5435497520044], "label": "S", "properties": {}}, {"species": [{"element": "S", "occu": 1}], "abc": [0.03018499, 0.79645571, 0.31988772], "xyz": [0.24470340526708997, 11.533371597267701, 14.44564704451824], "label": "S", "properties": {}}, {"species": [{"element": "S", "occu": 1}], "abc": [0.94879024, 0.14559177, 0.28882471], "xyz": [7.691644178519839, 2.1082954944399, 13.04288835593732], "label": "S", "properties": {}}, {"species": [{"element": "S", "occu": 1}], "abc": [0.96245841, 0.73512787, 0.23264554999999998], "xyz": [7.802449176062309, 10.6452911188469, 10.505922208510599], "label": "S", "properties": {}}, {"species": [{"element": "S", "occu": 1}], "abc": [0.03444082, 0.40297051, 0.25097601999999997], "xyz": [0.27920452960861997, 5.8353635691437, 11.33369859136184], "label": "S", "properties": {}}, {"species": [{"element": "S", "occu": 1}], "abc": [0.75297403, 0.55694226, 0.20708767], "xyz": [6.104203089637729, 8.0650084645662, 9.351766888993641], "label": "S", "properties": {}}, {"species": [{"element": "S", "occu": 1}], "abc": [0.25335233, 0.57068625, 0.27928195], "xyz": [2.05387438867303, 8.2640333970375, 12.6119517048194], "label": "S", "properties": {}}, {"species": [{"element": "S", "occu": 1}], "abc": [0.23416968, 0.15748246, 0.22259925999999997], "xyz": [1.8983646542968797, 2.2804830305402, 10.052246901915918], "label": "S", "properties": {}}, {"species": [{"element": "S", "occu": 1}], "abc": [0.73377484, 0.97066064, 0.26411636], "xyz": [5.94855926893844, 14.056010541956798, 11.92709653012912], "label": "S", "properties": {}}, {"species": [{"element": "S", "occu": 1}], "abc": [0.23655546, 0.35440101, 0.31364724], "xyz": [1.9177056741288598, 5.1320349536787, 14.163836378362081], "label": "S", "properties": {}}, {"species": [{"element": "S", "occu": 1}], "abc": [0.73336359, 0.58661259, 0.29822284], "xyz": [5.9452253511396895, 8.4946606561533, 13.46729373435728], "label": "S", "properties": {}}, {"species": [{"element": "S", "occu": 1}], "abc": [0.75079929, 0.21137954, 0.21464351999999998], "xyz": [6.0865729269783895, 3.0609596393997998, 9.69297768077184], "label": "S", "properties": {}}, {"species": [{"element": "S", "occu": 1}], "abc": [0.25120806, 0.91680241, 0.27198669], "xyz": [2.0364912399354598, 13.276096514896699, 12.28250876447148], "label": "S", "properties": {}}, {"species": [{"element": "S", "occu": 1}], "abc": [0.46803122, 0.20774715, 0.38060773], "xyz": [3.79423128201502, 3.0083594720204996, 17.18767113034316], "label": "S", "properties": {}}, {"species": [{"element": "S", "occu": 1}], "abc": [0.53697409, 0.53699904, 0.36153381], "xyz": [4.353136720045189, 7.7762132883648, 16.326321666614522], "label": "S", "properties": {}}, {"species": [{"element": "S", "occu": 1}], "abc": [0.53522069, 0.96546413, 0.41401087], "xyz": [4.338922272705791, 13.980760556193099, 18.69610656080804], "label": "S", "properties": {}}, {"species": [{"element": "S", "occu": 1}], "abc": [0.45759402, 0.60999762, 0.44655474], "xyz": [3.7096190829898195, 8.8332962355294, 20.16573865385208], "label": "S", "properties": {}}, {"species": [{"element": "S", "occu": 1}], "abc": [0.03100381, 0.60917611, 0.44471198], "xyz": [0.25134140787370995, 8.821400056015701, 20.082522391134162], "label": "S", "properties": {}}, {"species": [{"element": "S", "occu": 1}], "abc": [0.9548528, 0.96351445, 0.41362979], "xyz": [7.740792085364799, 13.9525274935715, 18.67889756267668], "label": "S", "properties": {}}, {"species": [{"element": "S", "occu": 1}], "abc": [0.96409508, 0.54878621, 0.35716696], "xyz": [7.8157173176882795, 7.946901764802701, 16.12912130582432], "label": "S", "properties": {}}, {"species": [{"element": "S", "occu": 1}], "abc": [0.04272553, 0.21558348, 0.37389797999999996], "xyz": [0.34636694207422997, 3.1218363480275997, 16.884668938646158], "label": "S", "properties": {}}, {"species": [{"element": "S", "occu": 1}], "abc": [0.75325587, 0.36994673, 0.33247269], "xyz": [6.10648790761317, 5.3571505040551, 15.013965311583481], "label": "S", "properties": {}}, {"species": [{"element": "S", "occu": 1}], "abc": [0.24674666, 0.38166042, 0.4066314], "xyz": [2.0003236025680597, 5.5267749261654, 18.3628608238488], "label": "S", "properties": {}}, {"species": [{"element": "S", "occu": 1}], "abc": [0.24536692, 0.96957006, 0.34753874], "xyz": [1.9891383387537198, 14.040217994752199, 15.694325409980081], "label": "S", "properties": {}}, {"species": [{"element": "S", "occu": 1}], "abc": [0.74380137, 0.78464287, 0.39106688], "xyz": [6.02984225210367, 11.3623113968969, 17.65999057194496], "label": "S", "properties": {}}, {"species": [{"element": "S", "occu": 1}], "abc": [0.23002928, 0.1598565, 0.43749138], "xyz": [1.8647992968404798, 2.314861195155, 19.75645098379896], "label": "S", "properties": {}}, {"species": [{"element": "S", "occu": 1}], "abc": [0.73461699, 0.39775869, 0.42445576], "xyz": [5.95538640297909, 5.7598918812603, 19.16778204231392], "label": "S", "properties": {}}, {"species": [{"element": "S", "occu": 1}], "abc": [0.74935279, 0.02166679, 0.34008258999999996], "xyz": [6.07484645379689, 0.3137539693073, 15.35761691985428], "label": "S", "properties": {}}, {"species": [{"element": "S", "occu": 1}], "abc": [0.24977578, 0.73509362, 0.39638434], "xyz": [2.02488004532198, 10.644795149049399, 17.90011904681528], "label": "S", "properties": {}}, {"species": [{"element": "S", "occu": 1}], "abc": [0.51955875, 0.3449517, 0.48594559], "xyz": [4.21195419847125, 4.995200723979, 21.94457003845028], "label": "S", "properties": {}}, {"species": [{"element": "S", "occu": 1}], "abc": [0.93952592, 0.36890271, 0.48673649], "xyz": [7.61654027252272, 5.3420321861577005, 21.980285889773082], "label": "S", "properties": {}}, {"species": [{"element": "S", "occu": 1}], "abc": [0.76716808, 0.1812554, 0.45792432], "xyz": [6.21927128643128, 2.624735884198, 20.67917174132544], "label": "S", "properties": {}}, {"species": [{"element": "S", "occu": 1}], "abc": [0.23988291, 0.79394143, 0.46816219], "xyz": [1.94468061584181, 11.496962635444099, 21.14149851181748], "label": "S", "properties": {}}, {"species": [{"element": "S", "occu": 1}], "abc": [0.74470675, 0.85002384, 0.46660129999999994], "xyz": [6.037181978539249, 12.3090847239408, 21.0710110732396], "label": "S", "properties": {}}]}, "formula": "(Li3PS4)16.0", "bandgap": 2.0269, "slab_thickness": 21.97577004057308}