{"miller": "101_1.00", "final_energy": -419.15508388, "gamma": 0.012816652187386684, "work_function": 5.0827484371322225, "ionization_potentail": -5.344348437132223, "electron_affinity": -3.193648437132223, "is_stochiometric": true, "incar_parameters": {"SYSTEM": "unknown system", "LCOMPAT": false, "PREC": "normal", "ENMAX": 520.0, "ENAUG": 628.945, "EDIFF": 1e-05, "IALGO": 38, "IWAVPR": 11, "NBANDS": 278, "NBANDSLOW": -1, "NBANDSHIGH": -1, "NELECT": 456.0, "TURBO": 0, "IRESTART": 0, "NREBOOT": 0, "NMIN": 0, "EREF": 0.0, "ISMEAR": 0, "SIGMA": 0.05, "KSPACING": 0.5, "KGAMMA": true, "KBLOWUP": true, "LREAL": true, "ROPT": [-0.0005, -0.0005, -0.0005], "LMAXPAW": -100, "LMAXMIX": 2, "NLSPLINE": false, "ISTART": 0, "ICHARG": 2, "INIWAV": 1, "ISPIN": 1, "LNONCOLLINEAR": false, "MAGMOM": [0.6, 0.6, 0.6, 0.6, 0.6, 0.6, 0.6, 0.6, 0.6, 0.6, 0.6, 0.6, 0.6, 0.6, 0.6, 0.6, 0.6, 0.6, 0.6, 0.6, 0.6, 0.6, 0.6, 0.6, 0.6, 0.6, 0.6, 0.6, 0.6, 0.6, 0.6, 0.6, 0.6, 0.6, 0.6, 0.6, 0.6, 0.6, 0.6, 0.6, 0.6, 0.6, 0.6, 0.6, 0.6, 0.6, 0.6, 0.6, 0.6, 0.6, 0.6, 0.6, 0.6, 0.6, 0.6, 0.6, 0.6, 0.6, 0.6, 0.6, 0.6, 0.6, 0.6, 0.6, 0.6, 0.6, 0.6, 0.6, 0.6, 0.6, 0.6, 0.6, 0.6, 0.6, 0.6, 0.6, 0.6, 0.6, 0.6, 0.6, 0.6, 0.6, 0.6, 0.6, 0.6, 0.6, 0.6, 0.6, 0.6, 0.6, 0.6, 0.6, 0.6, 0.6, 0.6, 0.6], "NUPDOWN": -1.0, "LSORBIT": false, "SAXIS": [0.0, 0.0, 1.0], "LSPIRAL": false, "QSPIRAL": [0.0, 0.0, 0.0], "LZEROZ": false, "LASPH": false, "LMETAGGA": false, "NELM": 100, "NELMDL": -5, "NELMIN": 6, "ENINI": 520.0, "LDIAG": true, "LSUBROT": false, "WEIMIN": 0.001, "EBREAK": 1e-08, "DEPER": 0.3, "NRMM": 4, "TIME": 0.4, "AMIX": 0.4, "BMIX": 1.0, "AMIN": 0.1, "AMIX_MAG": 1.6, "BMIX_MAG": 1.0, "IMIX": 4, "MIXFIRST": false, "MAXMIX": -45, "WC": 100.0, "INIMIX": 1, "MIXPRE": 1, "MREMOVE": 5, "LDIPOL": false, "LMONO": false, "IDIPOL": 0, "EPSILON": 1.0, "DIPOL": [-100.0, -100.0, -100.0], "EFIELD": 0.0, "NGX": 48, "NGY": 84, "NGZ": 252, "NGXF": 96, "NGYF": 168, "NGZF": 504, "ADDGRID": false, "NSW": 150, "IBRION": 2, "MDALGO": 0, "ISIF": 2, "PSTRESS": 0.0, "EDIFFG": -0.01, "NFREE": 1, "POTIM": 0.5, "SMASS": -3.0, "SCALEE": 1.0, "TEBEG": 0.0001, "TEEND": 0.0001, "NBLOCK": 1, "KBLOCK": 150, "NPACO": 256, "APACO": 10.0, "ISYM": 0, "SYMPREC": 1e-05, "LORBIT": 11, "RWIGS": [-1.0, -1.0, -1.0], "NEDOS": 301, "EMIN": 10.0, "EMAX": -10.0, "EFERMI": 0.0, "NWRITE": 2, "LWAVE": false, "LDOWNSAMPLE": false, "LCHARG": false, "LPARD": false, "LVTOT": false, "LVHAR": false, "LELF": false, "LOPTICS": false, "STM": [0.0, 0.0, 0.0, 0.0, 0.0, 0.0, 0.0], "NPAR": 2, "NSIM": 4, "NBLK": -1, "LPLANE": true, "LSCALAPACK": true, "LSCAAWARE": false, "LSCALU": false, "LASYNC": false, "LORBITALREAL": false, "IDIOT": 3, "PHON_NSTRUCT": -1, "LMUSIC": false, "POMASS": [7.01, 30.974, 32.066], "DARWINR": [0.0, 0.0, 0.0], "DARWINV": [1.0, 1.0, 1.0], "LCORR": true, "GGA_COMPAT": true, "LBERRY": false, "ICORELEVEL": 0, "LDAU": false, "I_CONSTRAINED_M": 0, "GGA": "--", "VOSKOWN": 0, "LHFCALC": false, "PRECFOCK": "", "LSYMGRAD": false, "LHFONE": false, "LRHFCALC": false, "LTHOMAS": false, "LMODELHF": false, "LFOCKACE": false, "ENCUT4O": -1.0, "EXXOEP": 0, "FOURORBIT": 0, "AEXX": 0.0, "HFALPHA": 0.0, "MCALPHA": 0.0, "ALDAX": 1.0, "AGGAX": 1.0, "ALDAC": 1.0, "AGGAC": 1.0, "NKREDX": 1, "NKREDY": 1, "NKREDZ": 1, "SHIFTRED": false, "ODDONLY": false, "EVENONLY": false, "LMAXFOCK": 0, "NMAXFOCKAE": 0, "LFOCKAEDFT": false, "HFSCREEN": 0.0, "HFSCREENC": 0.0, "NBANDSGWLOW": 0, "LUSE_VDW": false, "Zab_VDW": -0.8491, "PARAM1": 0.1234, "PARAM2": 1.0, "PARAM3": 0.0, "MODEL_GW": 0, "MODEL_EPS0": 33.13317693, "MODEL_ALPHA": 1.0, "LEPSILON": false, "LRPA": false, "LNABLA": false, "LVEL": false, "CSHIFT": 0.1, "OMEGAMAX": -1.0, "DEG_THRESHOLD": 0.002, "RTIME": -0.1, "WPLASMAI": 0.0, "DFIELD": [0.0, 0.0, 0.0], "WPLASMA": [0.0, 0.0, 0.0, 0.0, 0.0, 0.0, 0.0, 0.0, 0.0], "NUCIND": false, "MAGPOS": [0.0, 0.0, 0.0], "LNICSALL": true, "ORBITALMAG": false, "LMAGBLOCH": false, "LCHIMAG": false, "LGAUGE": true, "MAGATOM": 0, "MAGDIPOL": [0.0, 0.0, 0.0], "AVECCONST": [0.0, 0.0, 0.0], "LFINITE_TEMPERATURE": false, "LADDER": false, "LRPAFORCE": false, "LFXC": false, "LHARTREE": true, "IBSE": 0, "KPOINT": [-1, 0, 0, 0], "LTCTC": false, "LTCTE": false, "LTETE": false, "LTRIPLET": false, "LFXCEPS": false, "LFXHEG": false, "NATURALO": 2, "LHOLEGF": false, "L2ORDER": false, "LDMP1": false, "LMP2LT": false, "LSMP2LT": false, "LGWLF": false, "ENCUTGW": -2.0, "ENCUTGWSOFT": -2.0, "ENCUTLF": -1.0, "LESF_SPLINES": false, "LMAXMP2": -1, "SCISSOR": 0.0, "NOMEGA": 0, "NOMEGAR": 0, "NBANDSGW": -1, "NBANDSO": -1, "NBANDSV": -1, "NELMGW": 1, "NELMHF": 1, "DIM": 3, "IESPILON": 4, "ANTIRES": 0, "OMEGAMIN": -30.0, "OMEGATL": -200.0, "OMEGAGRID": 0, "LSELFENERGY": false, "LSPECTRAL": false, "LSPECTRALGW": false, "LSINGLES": false, "LFERMIGW": false, "ODDONLYGW": false, "EVENONLYGW": false, "NKREDLFX": 1, "NKREDLFY": 1, "NKREDLFZ": 1, "MAXMEM": 2800, "TELESCOPE": 0, "NTAUPAR": -1, "NOMEGAPAR": -1, "DAMP_NEWTON": 0.80000001, "LAMBDA": 1.0, "OFIELD_KAPPA": 0.0, "OFIELD_K": [0.0, 0.0, 0.0], "OFIELD_Q6_NEAR": 0.0, "OFIELD_Q6_FAR": 0.0, "OFIELD_A": 0.0, "KPOINTS_OPT_MODE": 1, "LKPOINTS_OPT": false, "@module": "pymatgen.io.vasp.inputs", "@class": "Incar"}, "relaxed_structures": {"@module": "pymatgen.core.structure", "@class": "Structure", "charge": 0, "lattice": {"matrix": [[8.106791, 0.0, 0.0], [0.0, 14.48087, 0.0], [0.0, 0.0, 45.158492]], "a": 8.106791, "b": 14.48087, "c": 45.158492, "alpha": 90.0, "beta": 90.0, "gamma": 90.0, "volume": 5301.308309094782}, "sites": [{"species": [{"element": "Li", "occu": 1}], "abc": [0.9648082, 0.66066898, 0.044297], "xyz": [7.8214984324862, 9.5670616124126, 2.000385720124], "label": "Li", "properties": {}}, {"species": [{"element": "Li", "occu": 1}], "abc": [0.02480962, 0.34713719, 0.015383900000000006], "xyz": [0.20112640412941998, 5.0268485205552995, 0.6947137250788004], "label": "Li", "properties": {}}, {"species": [{"element": "Li", "occu": 1}], "abc": [0.7494409, 0.2069638, 0.06538263000000001], "xyz": [6.075560743151899, 2.997015882506, 2.952580973793961], "label": "Li", "properties": {}}, {"species": [{"element": "Li", "occu": 1}], "abc": [0.51214986, 0.65346343, 0.04474564], "xyz": [4.15189187569926, 9.4627189795841, 2.0206456259748804], "label": "Li", "properties": {}}, {"species": [{"element": "Li", "occu": 1}], "abc": [0.46913181, 0.33962323, 0.01495223000000001], "xyz": [3.8031535351217096, 4.9180398426101, 0.6752201588371606], "label": "Li", "properties": {}}, {"species": [{"element": "Li", "occu": 1}], "abc": [0.54205333, 0.8723634, 0.013174930000000015], "xyz": [4.394313057164029, 12.632580988157999, 0.5949599710055608], "label": "Li", "properties": {}}, {"species": [{"element": "Li", "occu": 1}], "abc": [0.96071481, 0.47677992, 0.17462350999999998], "xyz": [7.78831417527471, 6.9041880401304, 7.8857343793469195], "label": "Li", "properties": {}}, {"species": [{"element": "Li", "occu": 1}], "abc": [0.03090385, 0.96305647, 0.05719430000000002], "xyz": [0.25053105304535, 13.9458955447289, 2.582808338995601], "label": "Li", "properties": {}}, {"species": [{"element": "Li", "occu": 1}], "abc": [0.02186436, 0.42904002, 0.09138244], "xyz": [0.17724979686876, 6.2128727544174005, 4.12669318568048], "label": "Li", "properties": {}}, {"species": [{"element": "Li", "occu": 1}], "abc": [0.96709715, 0.00430773, 0.14427183], "xyz": [7.840054471745649, 0.0623796781251, 6.51509828088036], "label": "Li", "properties": {}}, {"species": [{"element": "Li", "occu": 1}], "abc": [0.53388109, 0.00638874, 0.14716193], "xyz": [4.328062415482189, 0.0925145134038, 6.64561083860956], "label": "Li", "properties": {}}, {"species": [{"element": "Li", "occu": 1}], "abc": [0.46095091, 0.42762133, 0.09110526000000001], "xyz": [3.7368326886298098, 6.1923288889571, 4.114176154867921], "label": "Li", "properties": {}}, {"species": [{"element": "Li", "occu": 1}], "abc": [0.44832183, 0.96865946, 0.06802042000000001], "xyz": [3.6344513765475295, 14.0270317145302, 3.071699592406641], "label": "Li", "properties": {}}, {"species": [{"element": "Li", "occu": 1}], "abc": [0.52631681, 0.4771627, 0.17356885], "xyz": [4.266740378456709, 6.909731027548999, 7.8381075241742], "label": "Li", "properties": {}}, {"species": [{"element": "Li", "occu": 1}], "abc": [0.03122049, 0.72008785, 0.10839373000000001], "xyz": [0.25309798734759, 10.427498544429499, 4.894897389055161], "label": "Li", "properties": {}}, {"species": [{"element": "Li", "occu": 1}], "abc": [0.03630119, 0.20353237, 0.12394382], "xyz": [0.29428616038128996, 2.9473257907618997, 5.5971160039194405], "label": "Li", "properties": {}}, {"species": [{"element": "Li", "occu": 1}], "abc": [0.4511257, 0.20583954, 0.12417029], "xyz": [3.6571817646287, 2.9807356195997996, 5.60734304760268], "label": "Li", "properties": {}}, {"species": [{"element": "Li", "occu": 1}], "abc": [0.45562341, 0.71936967, 0.1088078], "xyz": [3.6936437595773097, 10.4170986732129, 4.9135961658376], "label": "Li", "properties": {}}, {"species": [{"element": "Li", "occu": 1}], "abc": [0.94861218, 0.28358237, 0.29358606000000004], "xyz": [7.690200683314379, 4.1065194342619, 13.257903741821522], "label": "Li", "properties": {}}, {"species": [{"element": "Li", "occu": 1}], "abc": [0.02547822, 0.77539175, 0.18749108000000003], "xyz": [0.20654660459201998, 11.2283471308225, 8.466814436251362], "label": "Li", "properties": {}}, {"species": [{"element": "Li", "occu": 1}], "abc": [0.03154517, 0.24520171, 0.21493187000000002], "xyz": [0.25573010024946996, 3.5507340862877, 9.705999131940041], "label": "Li", "properties": {}}, {"species": [{"element": "Li", "occu": 1}], "abc": [0.96306451, 0.82508174, 0.27084099], "xyz": [7.80736270208741, 11.9479014163138, 12.230770680187081], "label": "Li", "properties": {}}, {"species": [{"element": "Li", "occu": 1}], "abc": [0.52266976, 0.82217111, 0.27010445], "xyz": [4.23717450634016, 11.9057529616657, 12.1975096444894], "label": "Li", "properties": {}}, {"species": [{"element": "Li", "occu": 1}], "abc": [0.46440582, 0.24990998, 0.21680922000000002], "xyz": [3.76484092192362, 3.6189139320826, 9.790777426896241], "label": "Li", "properties": {}}, {"species": [{"element": "Li", "occu": 1}], "abc": [0.46037788, 0.7745995, 0.18676536000000005], "xyz": [3.73218725418308, 11.216874661564999, 8.434042015437123], "label": "Li", "properties": {}}, {"species": [{"element": "Li", "occu": 1}], "abc": [0.53111448, 0.28994868, 0.30440494], "xyz": [4.30563408643368, 4.1987091417516, 13.746468047750481], "label": "Li", "properties": {}}, {"species": [{"element": "Li", "occu": 1}], "abc": [0.95610616, 0.53351808, 0.25272997], "xyz": [7.750952812932559, 7.7258059591296, 11.412904328405242], "label": "Li", "properties": {}}, {"species": [{"element": "Li", "occu": 1}], "abc": [0.95193703, 0.04725414, 0.23702102000000003], "xyz": [7.717154547370729, 0.6842810583018, 10.703511835501843], "label": "Li", "properties": {}}, {"species": [{"element": "Li", "occu": 1}], "abc": [0.53829771, 0.04985727, 0.23735767000000002], "xyz": [4.36386703074861, 0.7219766454249, 10.718714441833642], "label": "Li", "properties": {}}, {"species": [{"element": "Li", "occu": 1}], "abc": [0.53249651, 0.53165987, 0.25291372], "xyz": [4.316837914799409, 7.6988974616869, 11.42120220131024], "label": "Li", "properties": {}}, {"species": [{"element": "Li", "occu": 1}], "abc": [0.01218416, 0.59939422, 0.31646752], "xyz": [0.09877443863055999, 8.679749778571399, 14.29119597017984], "label": "Li", "properties": {}}, {"species": [{"element": "Li", "occu": 1}], "abc": [0.25058965, 0.04425737, 0.29540174], "xyz": [2.03147791931315, 0.6408852215119, 13.339897112576082], "label": "Li", "properties": {}}, {"species": [{"element": "Li", "occu": 1}], "abc": [0.52568642, 0.90538219, 0.34663203000000004], "xyz": [4.26162993847822, 13.110721793705299, 15.653379753698763], "label": "Li", "properties": {}}, {"species": [{"element": "Li", "occu": 1}], "abc": [0.46337405, 0.59240148, 0.3166721], "xyz": [3.7564765781735496, 8.5784888196876, 14.300434494473201], "label": "Li", "properties": {}}, {"species": [{"element": "Li", "occu": 1}], "abc": [0.04238503, 0.38077736, 0.34905367000000004], "xyz": [0.34360657973872993, 5.5139874491032, 15.762737364265643], "label": "Li", "properties": {}}, {"species": [{"element": "Li", "occu": 1}], "abc": [0.97022001, 0.91204577, 0.34655153], "xyz": [7.865370845087909, 13.207216229419899, 15.649744495092762], "label": "Li", "properties": {}}, {"species": [{"element": "P", "occu": 1}], "abc": [0.23575336, 0.77339887, 0.023276900000000003], "xyz": [1.9112032170677598, 11.199488494616899, 1.0511497024348002], "label": "P", "properties": {}}, {"species": [{"element": "P", "occu": 1}], "abc": [0.74413019, 0.41047738, 0.047689800000000004], "xyz": [6.03250792712029, 5.9440695777206, 2.1535994517816004], "label": "P", "properties": {}}, {"species": [{"element": "P", "occu": 1}], "abc": [0.24153796, 0.58253385, 0.1488006], "xyz": [1.9580977602863598, 8.4355969524495, 6.7196107046952], "label": "P", "properties": {}}, {"species": [{"element": "P", "occu": 1}], "abc": [0.74312562, 0.85596828, 0.08559219], "xyz": [6.02436408808542, 12.3951653868036, 3.8652142273774803], "label": "P", "properties": {}}, {"species": [{"element": "P", "occu": 1}], "abc": [0.74608959, 0.22715675, 0.17207516], "xyz": [6.048392373405689, 3.2894273663724998, 7.770654736258721], "label": "P", "properties": {}}, {"species": [{"element": "P", "occu": 1}], "abc": [0.24367842, 0.20553866, 0.06428362], "xyz": [1.9754500221502198, 2.9763786154342, 2.90295133950104], "label": "P", "properties": {}}, {"species": [{"element": "P", "occu": 1}], "abc": [0.24321984, 0.39651063, 0.27590842000000004], "xyz": [1.97173240993344, 5.741818886648099, 12.459608177302643], "label": "P", "properties": {}}, {"species": [{"element": "P", "occu": 1}], "abc": [0.74250191, 0.66991348, 0.21251104000000004], "xyz": [6.019307801470809, 9.700930015127598, 9.596678099751683], "label": "P", "properties": {}}, {"species": [{"element": "P", "occu": 1}], "abc": [0.74450073, 0.04648176, 0.29712538000000005], "xyz": [6.03551181745743, 0.6730963239311999, 13.417734095726964], "label": "P", "properties": {}}, {"species": [{"element": "P", "occu": 1}], "abc": [0.24627339, 0.02573506, 0.18940747000000002], "xyz": [1.99648690159149, 0.3726660583022, 8.553355718735242], "label": "P", "properties": {}}, {"species": [{"element": "P", "occu": 1}], "abc": [0.73575724, 0.47926497, 0.33787459000000003], "xyz": [5.9646301714168395, 6.9401737261239, 15.257906969518283], "label": "P", "properties": {}}, {"species": [{"element": "P", "occu": 1}], "abc": [0.24557594, 0.84181716, 0.31389826000000004], "xyz": [1.9908328202085397, 12.1902448577292, 14.175172063023922], "label": "P", "properties": {}}, {"species": [{"element": "S", "occu": 1}], "abc": [0.43936824, 0.72864683, 0.00010000000000000286], "xyz": [3.5618664937178397, 10.5514400211421, 0.00451584920000013], "label": "S", "properties": {}}, {"species": [{"element": "S", "occu": 1}], "abc": [0.52847865, 0.4808369, 0.04002329], "xyz": [4.2842659635121505, 6.962936640103, 1.8073914212786801], "label": "S", "properties": {}}, {"species": [{"element": "S", "occu": 1}], "abc": [0.95544043, 0.48555739, 0.040742420000000015], "xyz": [7.745555878960129, 7.031293442129299, 1.8398662476306409], "label": "S", "properties": {}}, {"species": [{"element": "S", "occu": 1}], "abc": [0.02176837, 0.75082892, 0.002697640000000015], "xyz": [0.17647162600066998, 10.8726559827604, 0.12182135435888068], "label": "S", "properties": {}}, {"species": [{"element": "S", "occu": 1}], "abc": [0.2690579, 0.91592887, 0.02946346000000001], "xyz": [2.1811961621989, 13.2634468957169, 1.3305254227023207], "label": "S", "properties": {}}, {"species": [{"element": "S", "occu": 1}], "abc": [0.74895438, 0.29764649, 0.019170820000000005], "xyz": [6.0716166271945795, 4.3101801276463, 0.8657253216034403], "label": "S", "properties": {}}, {"species": [{"element": "S", "occu": 1}], "abc": [0.73359296, 0.93769077, 0.048323800000000014], "xyz": [5.947084805791359, 13.578578140569899, 2.182229935709601], "label": "S", "properties": {}}, {"species": [{"element": "S", "occu": 1}], "abc": [0.24234964, 0.24188407, 0.020442440000000006], "xyz": [1.9646778804052398, 3.5026917727409, 0.9231497632004804], "label": "S", "properties": {}}, {"species": [{"element": "S", "occu": 1}], "abc": [0.45588485, 0.5539541, 0.12595035], "xyz": [3.69576319901635, 8.021737308067, 5.6877278728722], "label": "S", "properties": {}}, {"species": [{"element": "S", "occu": 1}], "abc": [0.53787005, 0.88251821, 0.11109238], "xyz": [4.3604000805095495, 12.779631471642698, 5.01676435349096], "label": "S", "properties": {}}, {"species": [{"element": "S", "occu": 1}], "abc": [0.53290584, 0.30207383, 0.16661992000000003], "xyz": [4.320156267559439, 4.3742918626320995, 7.524304324360642], "label": "S", "properties": {}}, {"species": [{"element": "S", "occu": 1}], "abc": [0.45702785, 0.13450218, 0.07394244000000001], "xyz": [3.70502926112935, 1.9477085832966, 3.3391290852004807], "label": "S", "properties": {}}, {"species": [{"element": "S", "occu": 1}], "abc": [0.0371313, 0.12877347, 0.07388483], "xyz": [0.3010156886583, 1.8647518785189, 3.33652750447636], "label": "S", "properties": {}}, {"species": [{"element": "S", "occu": 1}], "abc": [0.95763774, 0.30294084, 0.16619655], "xyz": [7.7633690118923395, 4.3868469217307995, 7.5051855736026], "label": "S", "properties": {}}, {"species": [{"element": "S", "occu": 1}], "abc": [0.96299756, 0.88592239, 0.10595442000000001], "xyz": [7.80681995242996, 12.828926959679299, 4.78474182793464], "label": "S", "properties": {}}, {"species": [{"element": "S", "occu": 1}], "abc": [0.02546239, 0.55435017, 0.12661714000000002], "xyz": [0.20641827409049, 8.027472746247899, 5.7178391037528815], "label": "S", "properties": {}}, {"species": [{"element": "S", "occu": 1}], "abc": [0.7395964, 0.71455148, 0.07866451], "xyz": [5.9957534391524, 10.3473270901876, 3.5523706455189203], "label": "S", "properties": {}}, {"species": [{"element": "S", "occu": 1}], "abc": [0.24203034, 0.7267506, 0.15243227000000004], "xyz": [1.96208938203894, 10.523980961022, 6.883611445336842], "label": "S", "properties": {}}, {"species": [{"element": "S", "occu": 1}], "abc": [0.24049542, 0.31183662, 0.09575164000000001], "xyz": [1.9496461063972197, 4.5156655554594, 4.323999668926881], "label": "S", "properties": {}}, {"species": [{"element": "S", "occu": 1}], "abc": [0.74760919, 0.12642701, 0.13918751000000001], "xyz": [6.06071145300929, 1.8307730962987, 6.285498056834921], "label": "S", "properties": {}}, {"species": [{"element": "S", "occu": 1}], "abc": [0.24028637, 0.6994552, 0.06388201], "xyz": [1.9479513817386698, 10.128719822024001, 2.88481523752892], "label": "S", "properties": {}}, {"species": [{"element": "S", "occu": 1}], "abc": [0.74350463, 0.73786788, 0.17327211000000003], "xyz": [6.027436642942329, 10.6849688474556, 7.824707193258122], "label": "S", "properties": {}}, {"species": [{"element": "S", "occu": 1}], "abc": [0.74299987, 0.36128271, 0.09051802000000002], "xyz": [6.0233446591171695, 5.2316879567577, 4.087657282025841], "label": "S", "properties": {}}, {"species": [{"element": "S", "occu": 1}], "abc": [0.2489507, 0.07588687, 0.14651203000000002], "xyz": [2.0181912942037, 1.0989078991769, 6.616262334658761], "label": "S", "properties": {}}, {"species": [{"element": "S", "occu": 1}], "abc": [0.46296838, 0.36632986, 0.25552342], "xyz": [3.75318789626858, 5.3047750797782, 11.539052317882641], "label": "S", "properties": {}}, {"species": [{"element": "S", "occu": 1}], "abc": [0.52621668, 0.6977677, 0.23471790000000003], "xyz": [4.265928645473879, 10.104283353899, 10.599506409406802], "label": "S", "properties": {}}, {"species": [{"element": "S", "occu": 1}], "abc": [0.53813306, 0.12355031, 0.28753748], "xyz": [4.36253224761046, 1.7891159775696999, 12.984758990280161], "label": "S", "properties": {}}, {"species": [{"element": "S", "occu": 1}], "abc": [0.45667171, 0.94917782, 0.19564639], "xyz": [3.70214210858261, 13.744920618303398, 8.83509593764388], "label": "S", "properties": {}}, {"species": [{"element": "S", "occu": 1}], "abc": [0.03255605, 0.95117223, 0.19452912], "xyz": [0.26392509313555, 13.773801410240099, 8.78464170928704], "label": "S", "properties": {}}, {"species": [{"element": "S", "occu": 1}], "abc": [0.95796127, 0.11748131, 0.28741582000000004], "xyz": [7.765991801984569, 1.7012315775397, 12.979265008143443], "label": "S", "properties": {}}, {"species": [{"element": "S", "occu": 1}], "abc": [0.95671854, 0.6992607, 0.23526806], "xyz": [7.755917249605139, 10.125903292809, 10.62435080536552], "label": "S", "properties": {}}, {"species": [{"element": "S", "occu": 1}], "abc": [0.03778478, 0.36986881, 0.25046859000000005], "xyz": [0.30631331444098, 5.3560221546647, 11.310783817766282], "label": "S", "properties": {}}, {"species": [{"element": "S", "occu": 1}], "abc": [0.74269888, 0.5256731, 0.2089013], "xyz": [6.020904596094079, 7.6122038235969995, 9.433667684839602], "label": "S", "properties": {}}, {"species": [{"element": "S", "occu": 1}], "abc": [0.23938798, 0.53808403, 0.28257342], "xyz": [1.9406683217721798, 7.7919248875061005, 12.760589526482642], "label": "S", "properties": {}}, {"species": [{"element": "S", "occu": 1}], "abc": [0.24748117, 0.12649621, 0.22231694000000002], "xyz": [2.0062781216254697, 1.8317751725026998, 10.039497756454482], "label": "S", "properties": {}}, {"species": [{"element": "S", "occu": 1}], "abc": [0.74126251, 0.94010047, 0.26574967000000005], "xyz": [6.009260244705409, 13.6134726930089, 12.000854346697643], "label": "S", "properties": {}}, {"species": [{"element": "S", "occu": 1}], "abc": [0.2437561, 0.51432911, 0.18796842000000002], "xyz": [1.9760797576751, 7.4479329791257, 8.488370390822642], "label": "S", "properties": {}}, {"species": [{"element": "S", "occu": 1}], "abc": [0.74040789, 0.55313425, 0.29724605000000004], "xyz": [6.002332018980989, 8.0098651667975, 13.423183370956602], "label": "S", "properties": {}}, {"species": [{"element": "S", "occu": 1}], "abc": [0.7467432, 0.17732163, 0.21502466000000003], "xyz": [6.0536910530712, 2.5677714722181, 9.710189388412722], "label": "S", "properties": {}}, {"species": [{"element": "S", "occu": 1}], "abc": [0.24460594, 0.89009764, 0.27094111000000004], "xyz": [1.9829692329385398, 12.8893882121468, 12.235291948406122], "label": "S", "properties": {}}, {"species": [{"element": "S", "occu": 1}], "abc": [0.52112794, 0.50190531, 0.35823066000000003], "xyz": [4.224675293840539, 7.2680255464197, 16.177156393764722], "label": "S", "properties": {}}, {"species": [{"element": "S", "occu": 1}], "abc": [0.45698493, 0.76704139, 0.32103354], "xyz": [3.70468131765963, 11.1074266532093, 14.49739054782168], "label": "S", "properties": {}}, {"species": [{"element": "S", "occu": 1}], "abc": [0.0299089, 0.77133035, 0.3216299], "xyz": [0.24246520133989996, 11.1695345254045, 14.524321266110801], "label": "S", "properties": {}}, {"species": [{"element": "S", "occu": 1}], "abc": [0.93866514, 0.52469539, 0.36113737], "xyz": [7.60956210896574, 7.598045732189299, 16.308419034046043], "label": "S", "properties": {}}, {"species": [{"element": "S", "occu": 1}], "abc": [0.76962328, 0.33664026, 0.33207527000000003], "xyz": [6.23917507969448, 4.8748438418262, 14.996018423692842], "label": "S", "properties": {}}, {"species": [{"element": "S", "occu": 1}], "abc": [0.24966277, 0.95502848, 0.34219036], "xyz": [2.02396389687107, 13.829643265177598, 15.452800634537121], "label": "S", "properties": {}}, {"species": [{"element": "S", "occu": 1}], "abc": [0.23391649, 0.31555052, 0.31330403], "xyz": [1.89631209588359, 4.5694460585523995, 14.148337532322762], "label": "S", "properties": {}}, {"species": [{"element": "S", "occu": 1}], "abc": [0.74395103, 0.01044202, 0.34103829], "xyz": [6.031055514444729, 0.1512095341574, 15.400774890658681], "label": "S", "properties": {}}]}, "formula": "(Li3PS4)12.0", "bandgap": 2.1507, "slab_thickness": 16.303903184846043}