{"miller": "102_0.09", "final_energy": -767.99958093, "gamma": 0.020348054824700857, "work_function": "Not calculated", "ionization_potentail": "Not calculated", "electron_affinity": "Not calculated", "is_stochiometric": true, "incar_parameters": {"SYSTEM": "unknown system", "LCOMPAT": false, "PREC": "normal", "ENMAX": 520.0, "ENAUG": 628.945, "EDIFF": 1e-05, "IALGO": 38, "IWAVPR": 11, "NBANDS": 508, "NBANDSLOW": -1, "NBANDSHIGH": -1, "NELECT": 836.0, "TURBO": 0, "IRESTART": 0, "NREBOOT": 0, "NMIN": 0, "EREF": 0.0, "ISMEAR": 0, "SIGMA": 0.05, "KSPACING": 0.5, "KGAMMA": true, "KBLOWUP": true, "LREAL": true, "ROPT": [-0.0005, -0.0005, -0.0005], "LMAXPAW": -100, "LMAXMIX": 2, "NLSPLINE": false, "ISTART": 0, "ICHARG": 2, "INIWAV": 1, "ISPIN": 1, "LNONCOLLINEAR": false, "MAGMOM": [0.6, 0.6, 0.6, 0.6, 0.6, 0.6, 0.6, 0.6, 0.6, 0.6, 0.6, 0.6, 0.6, 0.6, 0.6, 0.6, 0.6, 0.6, 0.6, 0.6, 0.6, 0.6, 0.6, 0.6, 0.6, 0.6, 0.6, 0.6, 0.6, 0.6, 0.6, 0.6, 0.6, 0.6, 0.6, 0.6, 0.6, 0.6, 0.6, 0.6, 0.6, 0.6, 0.6, 0.6, 0.6, 0.6, 0.6, 0.6, 0.6, 0.6, 0.6, 0.6, 0.6, 0.6, 0.6, 0.6, 0.6, 0.6, 0.6, 0.6, 0.6, 0.6, 0.6, 0.6, 0.6, 0.6, 0.6, 0.6, 0.6, 0.6, 0.6, 0.6, 0.6, 0.6, 0.6, 0.6, 0.6, 0.6, 0.6, 0.6, 0.6, 0.6, 0.6, 0.6, 0.6, 0.6, 0.6, 0.6, 0.6, 0.6, 0.6, 0.6, 0.6, 0.6, 0.6, 0.6, 0.6, 0.6, 0.6, 0.6, 0.6, 0.6, 0.6, 0.6, 0.6, 0.6, 0.6, 0.6, 0.6, 0.6, 0.6, 0.6, 0.6, 0.6, 0.6, 0.6, 0.6, 0.6, 0.6, 0.6, 0.6, 0.6, 0.6, 0.6, 0.6, 0.6, 0.6, 0.6, 0.6, 0.6, 0.6, 0.6, 0.6, 0.6, 0.6, 0.6, 0.6, 0.6, 0.6, 0.6, 0.6, 0.6, 0.6, 0.6, 0.6, 0.6, 0.6, 0.6, 0.6, 0.6, 0.6, 0.6, 0.6, 0.6, 0.6, 0.6, 0.6, 0.6, 0.6, 0.6, 0.6, 0.6, 0.6, 0.6, 0.6, 0.6, 0.6, 0.6, 0.6, 0.6, 0.6, 0.6, 0.6, 0.6, 0.6, 0.6], "NUPDOWN": -1.0, "LSORBIT": false, "SAXIS": [0.0, 0.0, 1.0], "LSPIRAL": false, "QSPIRAL": [0.0, 0.0, 0.0], "LZEROZ": false, "LASPH": false, "LMETAGGA": false, "NELM": 100, "NELMDL": -5, "NELMIN": 6, "ENINI": 520.0, "LDIAG": true, "LSUBROT": false, "WEIMIN": 0.001, "EBREAK": 0.0, "DEPER": 0.3, "NRMM": 4, "TIME": 0.4, "AMIX": 0.4, "BMIX": 1.0, "AMIN": 0.1, "AMIX_MAG": 1.6, "BMIX_MAG": 1.0, "IMIX": 4, "MIXFIRST": false, "MAXMIX": -45, "WC": 100.0, "INIMIX": 1, "MIXPRE": 1, "MREMOVE": 5, "LDIPOL": false, "LMONO": false, "IDIPOL": 0, "EPSILON": 1.0, "DIPOL": [-100.0, -100.0, -100.0], "EFIELD": 0.0, "NGX": 48, "NGY": 108, "NGZ": 252, "NGXF": 96, "NGYF": 216, "NGZF": 504, "ADDGRID": false, "NSW": 150, "IBRION": 2, "MDALGO": 0, "ISIF": 2, "PSTRESS": 0.0, "EDIFFG": -0.01, "NFREE": 1, "POTIM": 0.5, "SMASS": -3.0, "SCALEE": 1.0, "TEBEG": 0.0001, "TEEND": 0.0001, "NBLOCK": 1, "KBLOCK": 150, "NPACO": 256, "APACO": 10.0, "ISYM": 0, "SYMPREC": 1e-05, "LORBIT": 11, "RWIGS": [-1.0, -1.0, -1.0], "NEDOS": 301, "EMIN": 10.0, "EMAX": -10.0, "EFERMI": 0.0, "NWRITE": 2, "LWAVE": false, "LDOWNSAMPLE": false, "LCHARG": false, "LPARD": false, "LVTOT": false, "LVHAR": false, "LELF": false, "LOPTICS": false, "STM": [0.0, 0.0, 0.0, 0.0, 0.0, 0.0, 0.0], "NPAR": 2, "NSIM": 4, "NBLK": -1, "LPLANE": true, "LSCALAPACK": true, "LSCAAWARE": false, "LSCALU": false, "LASYNC": false, "LORBITALREAL": false, "IDIOT": 3, "PHON_NSTRUCT": -1, "LMUSIC": false, "POMASS": [7.01, 30.974, 32.066], "DARWINR": [0.0, 0.0, 0.0], "DARWINV": [1.0, 1.0, 1.0], "LCORR": true, "GGA_COMPAT": true, "LBERRY": false, "ICORELEVEL": 0, "LDAU": false, "I_CONSTRAINED_M": 0, "GGA": "--", "VOSKOWN": 0, "LHFCALC": false, "PRECFOCK": "", "LSYMGRAD": false, "LHFONE": false, "LRHFCALC": false, "LTHOMAS": false, "LMODELHF": false, "LFOCKACE": false, "ENCUT4O": -1.0, "EXXOEP": 0, "FOURORBIT": 0, "AEXX": 0.0, "HFALPHA": 0.0, "MCALPHA": 0.0, "ALDAX": 1.0, "AGGAX": 1.0, "ALDAC": 1.0, "AGGAC": 1.0, "NKREDX": 1, "NKREDY": 1, "NKREDZ": 1, "SHIFTRED": false, "ODDONLY": false, "EVENONLY": false, "LMAXFOCK": 0, "NMAXFOCKAE": 0, "LFOCKAEDFT": false, "HFSCREEN": 0.0, "HFSCREENC": 0.0, "NBANDSGWLOW": 0, "LUSE_VDW": false, "Zab_VDW": -0.8491, "PARAM1": 0.1234, "PARAM2": 1.0, "PARAM3": 0.0, "MODEL_GW": 0, "MODEL_EPS0": 22.59080271, "MODEL_ALPHA": 1.0, "LEPSILON": false, "LRPA": false, "LNABLA": false, "LVEL": false, "CSHIFT": 0.1, "OMEGAMAX": -1.0, "DEG_THRESHOLD": 0.002, "RTIME": -0.1, "WPLASMAI": 0.0, "DFIELD": [0.0, 0.0, 0.0], "WPLASMA": [0.0, 0.0, 0.0, 0.0, 0.0, 0.0, 0.0, 0.0, 0.0], "NUCIND": false, "MAGPOS": [0.0, 0.0, 0.0], "LNICSALL": true, "ORBITALMAG": false, "LMAGBLOCH": false, "LCHIMAG": false, "LGAUGE": true, "MAGATOM": 0, "MAGDIPOL": [0.0, 0.0, 0.0], "AVECCONST": [0.0, 0.0, 0.0], "LFINITE_TEMPERATURE": false, "LADDER": false, "LRPAFORCE": false, "LFXC": false, "LHARTREE": true, "IBSE": 0, "KPOINT": [-1, 0, 0, 0], "LTCTC": false, "LTCTE": false, "LTETE": false, "LTRIPLET": false, "LFXCEPS": false, "LFXHEG": false, "NATURALO": 2, "LHOLEGF": false, "L2ORDER": false, "LDMP1": false, "LMP2LT": false, "LSMP2LT": false, "LGWLF": false, "ENCUTGW": -2.0, "ENCUTGWSOFT": -2.0, "ENCUTLF": -1.0, "LESF_SPLINES": false, "LMAXMP2": -1, "SCISSOR": 0.0, "NOMEGA": 0, "NOMEGAR": 0, "NBANDSGW": -1, "NBANDSO": -1, "NBANDSV": -1, "NELMGW": 1, "NELMHF": 1, "DIM": 3, "IESPILON": 4, "ANTIRES": 0, "OMEGAMIN": -30.0, "OMEGATL": -200.0, "OMEGAGRID": 0, "LSELFENERGY": false, "LSPECTRAL": false, "LSPECTRALGW": false, "LSINGLES": false, "LFERMIGW": false, "ODDONLYGW": false, "EVENONLYGW": false, "NKREDLFX": 1, "NKREDLFY": 1, "NKREDLFZ": 1, "MAXMEM": 2800, "TELESCOPE": 0, "NTAUPAR": -1, "NOMEGAPAR": -1, "DAMP_NEWTON": 0.80000001, "LAMBDA": 1.0, "OFIELD_KAPPA": 0.0, "OFIELD_K": [0.0, 0.0, 0.0], "OFIELD_Q6_NEAR": 0.0, "OFIELD_Q6_FAR": 0.0, "OFIELD_A": 0.0, "KPOINTS_OPT_MODE": 1, "LKPOINTS_OPT": false, "@module": "pymatgen.io.vasp.inputs", "@class": "Incar"}, "relaxed_structures": {"@module": "pymatgen.core.structure", "@class": "Structure", "charge": 0, "lattice": {"matrix": [[8.106791, 0.0, 0.0], [0.0, 18.090234, 0.0], [0.0, 0.0, 45.185586]], "a": 8.106791, "b": 18.090234, "c": 45.185586, "alpha": 90.0, "beta": 90.0, "gamma": 90.0, "volume": 6626.635460197623}, "sites": [{"species": [{"element": "Li", "occu": 1}], "abc": [0.97455472, 0.6549366, 0.0612536], "xyz": [7.900511433103519, 11.847956349164399, 2.7677798106096], "label": "Li", "properties": {}}, {"species": [{"element": "Li", "occu": 1}], "abc": [0.96552657, 0.33319135, 0.01068797], "xyz": [7.827322107936869, 6.0275094882759, 0.48294218760042], "label": "Li", "properties": {}}, {"species": [{"element": "Li", "occu": 1}], "abc": [0.03594686, 0.46310359, 0.08094756], "xyz": [0.29141368112626, 8.377652309340059, 3.65766293387016], "label": "Li", "properties": {}}, {"species": [{"element": "Li", "occu": 1}], "abc": [0.00656911, 0.14332907, 0.09057571], "xyz": [0.053254401826009996, 2.59285641530238, 4.09271653371606], "label": "Li", "properties": {}}, {"species": [{"element": "Li", "occu": 1}], "abc": [0.49337397, 0.14332503, 0.09057314000000001], "xyz": [3.9996796596302695, 2.59278333075702, 4.092600406760041], "label": "Li", "properties": {}}, {"species": [{"element": "Li", "occu": 1}], "abc": [0.46365188, 0.46310465, 0.08095100000000001], "xyz": [3.75872888791708, 8.377671484988099, 3.6578183722860005], "label": "Li", "properties": {}}, {"species": [{"element": "Li", "occu": 1}], "abc": [0.53274128, 0.33280172, 0.0103354], "xyz": [4.31882221403248, 6.02046099040248, 0.4670111055444], "label": "Li", "properties": {}}, {"species": [{"element": "Li", "occu": 1}], "abc": [0.52506496, 0.6551095, 0.0612672], "xyz": [4.25659189214336, 11.851084150622999, 2.7683943345792], "label": "Li", "properties": {}}, {"species": [{"element": "Li", "occu": 1}], "abc": [0.97060785, 0.8645271, 0.05626278], "xyz": [7.86851498290935, 15.639497538341399, 2.5422666842890798], "label": "Li", "properties": {}}, {"species": [{"element": "Li", "occu": 1}], "abc": [0.95945639, 0.30426218, 0.08942220000000001], "xyz": [7.77811242734449, 5.50417403355012, 4.0405945084092005], "label": "Li", "properties": {}}, {"species": [{"element": "Li", "occu": 1}], "abc": [0.54053779, 0.30427822, 0.08940942], "xyz": [4.38202689113189, 5.504464200903479, 4.04001703662012], "label": "Li", "properties": {}}, {"species": [{"element": "Li", "occu": 1}], "abc": [0.52854871, 0.86445861, 0.05638497], "xyz": [4.28483392528961, 15.638258538214739, 2.54778791104242], "label": "Li", "properties": {}}, {"species": [{"element": "Li", "occu": 1}], "abc": [0.96500365, 0.43853862, 0.16754875], "xyz": [7.8230829047871495, 7.933266253837079, 7.5707884523175], "label": "Li", "properties": {}}, {"species": [{"element": "Li", "occu": 1}], "abc": [0.04275687, 0.90479676, 0.11655355], "xyz": [0.34662100890416997, 16.36798511084184, 5.266540457130301], "label": "Li", "properties": {}}, {"species": [{"element": "Li", "occu": 1}], "abc": [0.04133568, 0.22413907, 0.18509566], "xyz": [0.33509971860287996, 4.054728224842379, 8.36365586315676], "label": "Li", "properties": {}}, {"species": [{"element": "Li", "occu": 1}], "abc": [0.96559339, 0.85921337, 0.19557967999999998], "xyz": [7.827863803711489, 15.543370919228579, 8.837382450492479], "label": "Li", "properties": {}}, {"species": [{"element": "Li", "occu": 1}], "abc": [0.53250792, 0.85867597, 0.19535], "xyz": [4.3169304132847195, 15.533649227476978, 8.8270042251], "label": "Li", "properties": {}}, {"species": [{"element": "Li", "occu": 1}], "abc": [0.4586167, 0.22417922, 0.18507331], "xyz": [3.7179097360096995, 4.05545454773748, 8.36264596530966], "label": "Li", "properties": {}}, {"species": [{"element": "Li", "occu": 1}], "abc": [0.45594, 0.90485412, 0.11656349], "xyz": [3.6962102885399997, 16.369022766664077, 5.2669896018551405], "label": "Li", "properties": {}}, {"species": [{"element": "Li", "occu": 1}], "abc": [0.53455387, 0.43840247, 0.16755061], "xyz": [4.33351650233117, 7.9308032684779795, 7.57087249750746], "label": "Li", "properties": {}}, {"species": [{"element": "Li", "occu": 1}], "abc": [0.03136658, 0.66837087, 0.13122986], "xyz": [0.25428230844477995, 12.090985437083578, 5.9296981247979605], "label": "Li", "properties": {}}, {"species": [{"element": "Li", "occu": 1}], "abc": [0.9685066, 0.05331009, 0.18358246], "xyz": [7.8514805883206, 0.9643920026610598, 8.29528103442156], "label": "Li", "properties": {}}, {"species": [{"element": "Li", "occu": 1}], "abc": [0.53374281, 0.05508145, 0.18356672], "xyz": [4.32694140842271, 0.9964363195592999, 8.294569813297919], "label": "Li", "properties": {}}, {"species": [{"element": "Li", "occu": 1}], "abc": [0.46857467, 0.66835079, 0.13124363], "xyz": [3.79863691758397, 12.09062218518486, 5.93032033031718], "label": "Li", "properties": {}}, {"species": [{"element": "Li", "occu": 1}], "abc": [0.96768922, 0.1852403, 0.26523335000000003], "xyz": [7.84485425949302, 3.3510403732302, 11.984724346493103], "label": "Li", "properties": {}}, {"species": [{"element": "Li", "occu": 1}], "abc": [0.034143, 0.65171059, 0.21079747999999998], "xyz": [0.276790165113, 11.789597073378058, 9.52500766112328], "label": "Li", "properties": {}}, {"species": [{"element": "Li", "occu": 1}], "abc": [0.03158597, 0.98195459, 0.28131187], "xyz": [0.25606085732226996, 17.76378831047406, 12.711241694705821], "label": "Li", "properties": {}}, {"species": [{"element": "Li", "occu": 1}], "abc": [0.96739132, 0.62478463, 0.2965046], "xyz": [7.84243924645412, 11.302500156303418, 13.397734102695601], "label": "Li", "properties": {}}, {"species": [{"element": "Li", "occu": 1}], "abc": [0.53203414, 0.62566713, 0.29649294000000004], "xyz": [4.31308957784474, 11.318464787808418, 13.397207238762842], "label": "Li", "properties": {}}, {"species": [{"element": "Li", "occu": 1}], "abc": [0.46762251, 0.98442874, 0.28145834000000003], "xyz": [3.7909179554654098, 17.80854626292516, 12.71786002748724], "label": "Li", "properties": {}}, {"species": [{"element": "Li", "occu": 1}], "abc": [0.4634929, 0.6507047, 0.21071476], "xyz": [3.7574400702838995, 11.7714002878998, 9.52126990944936], "label": "Li", "properties": {}}, {"species": [{"element": "Li", "occu": 1}], "abc": [0.53204753, 0.18647962, 0.26502462000000004], "xyz": [4.31319812777623, 3.37345996203108, 11.975292759127322], "label": "Li", "properties": {}}, {"species": [{"element": "Li", "occu": 1}], "abc": [0.97730982, 0.41945524, 0.24390602], "xyz": [7.92284645298762, 7.58804344412616, 11.02103644262772], "label": "Li", "properties": {}}, {"species": [{"element": "Li", "occu": 1}], "abc": [0.00464769, 0.80284659, 0.28936787], "xyz": [0.03767785146279, 14.523682679202059, 13.075256775521822], "label": "Li", "properties": {}}, {"species": [{"element": "Li", "occu": 1}], "abc": [0.50576982, 0.80632378, 0.28837241], "xyz": [4.10017022484762, 14.58658585996452, 13.030276332082261], "label": "Li", "properties": {}}, {"species": [{"element": "Li", "occu": 1}], "abc": [0.52327057, 0.41914393, 0.24425663], "xyz": [4.242045147440869, 7.5824117733796195, 11.03687896093518], "label": "Li", "properties": {}}, {"species": [{"element": "Li", "occu": 1}], "abc": [0.96612336, 0.95691746, 0.36719431], "xyz": [7.832160159737759, 17.31086077008564, 16.591890073215662], "label": "Li", "properties": {}}, {"species": [{"element": "Li", "occu": 1}], "abc": [0.03125808, 0.42149491, 0.31254586], "xyz": [0.25340272162127997, 7.62494155170894, 14.12256783597396], "label": "Li", "properties": {}}, {"species": [{"element": "Li", "occu": 1}], "abc": [0.03491253, 0.74835756, 0.38213465], "xyz": [0.28302858399122993, 13.537963376069039, 17.2669780911549], "label": "Li", "properties": {}}, {"species": [{"element": "Li", "occu": 1}], "abc": [0.95878318, 0.38422716, 0.39237291], "xyz": [7.7726548545753795, 6.95075923355544, 17.729599868875262], "label": "Li", "properties": {}}, {"species": [{"element": "Li", "occu": 1}], "abc": [0.54130293, 0.38422644, 0.39237579], "xyz": [4.3882297211976296, 6.95074620858696, 17.729730003362942], "label": "Li", "properties": {}}, {"species": [{"element": "Li", "occu": 1}], "abc": [0.46515415, 0.74839332, 0.38205811], "xyz": [3.7709074768326496, 13.53861028283688, 17.26351958640246], "label": "Li", "properties": {}}, {"species": [{"element": "Li", "occu": 1}], "abc": [0.46870903, 0.42152123, 0.31255252], "xyz": [3.79972614602273, 7.62541768666782, 14.12286877197672], "label": "Li", "properties": {}}, {"species": [{"element": "Li", "occu": 1}], "abc": [0.53514129, 0.95648036, 0.36721068], "xyz": [4.33827859350039, 17.302953528804238, 16.592629761258483], "label": "Li", "properties": {}}, {"species": [{"element": "Li", "occu": 1}], "abc": [0.02421507, 0.18770894, 0.33346862], "xyz": [0.19630651154037, 3.3956986484919596, 15.06797500731132], "label": "Li", "properties": {}}, {"species": [{"element": "Li", "occu": 1}], "abc": [0.03202467, 0.55360234, 0.39407696000000003], "xyz": [0.25961730653396997, 10.014795873547559, 17.806598366698562], "label": "Li", "properties": {}}, {"species": [{"element": "Li", "occu": 1}], "abc": [0.46795507, 0.5535997, 0.39406627], "xyz": [3.7936139498803696, 10.0147481153298, 17.80611533278422], "label": "Li", "properties": {}}, {"species": [{"element": "Li", "occu": 1}], "abc": [0.47444763, 0.18825335, 0.33330357], "xyz": [3.84624777685533, 3.4055471527839, 15.06051712634202], "label": "Li", "properties": {}}, {"species": [{"element": "Li", "occu": 1}], "abc": [0.95656093, 0.70341331, 0.46053637000000003], "xyz": [7.7546395382756295, 12.72491137661454, 20.80960575276282], "label": "Li", "properties": {}}, {"species": [{"element": "Li", "occu": 1}], "abc": [0.03392552, 0.17084883, 0.41016008000000004], "xyz": [0.27502710020632, 3.09069531332622, 18.533323568606882], "label": "Li", "properties": {}}, {"species": [{"element": "Li", "occu": 1}], "abc": [0.99316165, 0.46463632, 0.4871934], "xyz": [8.051353925765149, 8.40537975369888, 22.0141192743324], "label": "Li", "properties": {}}, {"species": [{"element": "Li", "occu": 1}], "abc": [0.96439416, 0.1435241, 0.49685631], "xyz": [7.81814189674056, 2.5963845536393997, 22.45074352514766], "label": "Li", "properties": {}}, {"species": [{"element": "Li", "occu": 1}], "abc": [0.5356272, 0.14358262, 0.4968436], "xyz": [4.342217764315199, 2.5974431941330796, 22.4501692163496], "label": "Li", "properties": {}}, {"species": [{"element": "Li", "occu": 1}], "abc": [0.50685306, 0.46467092, 0.48720661000000004], "xyz": [4.108951825130459, 8.40600567579528, 22.01471617592346], "label": "Li", "properties": {}}, {"species": [{"element": "Li", "occu": 1}], "abc": [0.46608125, 0.17086589, 0.41015137], "xyz": [3.77842328276875, 3.0910039327182597, 18.53293000215282], "label": "Li", "properties": {}}, {"species": [{"element": "Li", "occu": 1}], "abc": [0.54344684, 0.70340987, 0.46053272], "xyz": [4.405609951490439, 12.724849146209579, 20.80944082537392], "label": "Li", "properties": {}}, {"species": [{"element": "Li", "occu": 1}], "abc": [0.96884824, 0.93973335, 0.44649013000000004], "xyz": [7.854250192397839, 16.9999961991039, 20.17491816726618], "label": "Li", "properties": {}}, {"species": [{"element": "Li", "occu": 1}], "abc": [0.04107082, 0.30190846, 0.48879433], "xyz": [0.33295255393862, 5.461594687979639, 22.08645823452738], "label": "Li", "properties": {}}, {"species": [{"element": "Li", "occu": 1}], "abc": [0.45889774, 0.30225252, 0.48878371000000004], "xyz": [3.7201880685523396, 5.46781881388968, 22.085978363604063], "label": "Li", "properties": {}}, {"species": [{"element": "Li", "occu": 1}], "abc": [0.53116725, 0.93973513, 0.44648519000000003], "xyz": [4.30606188179475, 17.000028399720417, 20.17469495047134], "label": "Li", "properties": {}}, {"species": [{"element": "Li", "occu": 1}], "abc": [0.03405701, 0.27407959, 0.5672757199999999], "xyz": [0.27609306215491, 4.958163917724059, 25.632685831771916], "label": "Li", "properties": {}}, {"species": [{"element": "Li", "occu": 1}], "abc": [0.02390109, 0.95310472, 0.51601106], "xyz": [0.19376114130219, 17.24188741130448, 23.316262128581158], "label": "Li", "properties": {}}, {"species": [{"element": "Li", "occu": 1}], "abc": [0.47612011, 0.9530934, 0.51600308], "xyz": [3.8598062226670096, 17.2416826298556, 23.315901547604877], "label": "Li", "properties": {}}, {"species": [{"element": "Li", "occu": 1}], "abc": [0.46821639, 0.27328385, 0.5672385], "xyz": [3.7957324165044897, 4.943768794920899, 25.631004024261], "label": "Li", "properties": {}}, {"species": [{"element": "Li", "occu": 1}], "abc": [0.02981971, 0.74368995, 0.5206851699999999], "xyz": [0.24174215665060997, 13.4535252189483, 23.527464527959616], "label": "Li", "properties": {}}, {"species": [{"element": "Li", "occu": 1}], "abc": [0.4701915, 0.7437103, 0.52068499], "xyz": [3.8117442204764997, 13.4538933552102, 23.52745639455414], "label": "Li", "properties": {}}, {"species": [{"element": "P", "occu": 1}], "abc": [0.24975891, 0.76770048, 0.05529949], "xyz": [2.0247432837578097, 13.88788132511232, 2.49873986115114], "label": "P", "properties": {}}, {"species": [{"element": "P", "occu": 1}], "abc": [0.74966025, 0.47587663, 0.03816903], "xyz": [6.07733896775775, 8.60871959183142, 1.72468998760158], "label": "P", "properties": {}}, {"species": [{"element": "P", "occu": 1}], "abc": [0.24983336, 0.29363959, 0.043091159999999996], "xyz": [2.02534683434776, 5.31200889476406, 1.9470993160197598], "label": "P", "properties": {}}, {"species": [{"element": "P", "occu": 1}], "abc": [0.24972144, 0.53608636, 0.15367908], "xyz": [2.0244395222990397, 9.69792769660824, 6.94407928574088], "label": "P", "properties": {}}, {"species": [{"element": "P", "occu": 1}], "abc": [0.74988864, 0.7913739, 0.12045664], "xyz": [6.079190477754239, 14.316139032492599, 5.44290386599104], "label": "P", "properties": {}}, {"species": [{"element": "P", "occu": 1}], "abc": [0.74993365, 0.25191034, 0.14529229999999999], "xyz": [6.07955536441715, 4.55711699761956, 6.5651177167878], "label": "P", "properties": {}}, {"species": [{"element": "P", "occu": 1}], "abc": [0.25004358, 0.09192288, 0.13664205], "xyz": [2.0270510439517797, 1.6629064091539199, 6.1742511014913], "label": "P", "properties": {}}, {"species": [{"element": "P", "occu": 1}], "abc": [0.24944955, 0.29401353, 0.25735473000000003], "xyz": [2.0222353668940496, 5.31877355686602, 11.628724284921782], "label": "P", "properties": {}}, {"species": [{"element": "P", "occu": 1}], "abc": [0.74978582, 0.55320402, 0.22469191], "xyz": [6.07835693750362, 10.007590171540679, 10.15283562280926], "label": "P", "properties": {}}, {"species": [{"element": "P", "occu": 1}], "abc": [0.7493871, 0.00467248, 0.23919027999999998], "xyz": [6.0751245977960995, 0.08452625656031999, 10.807952967304079], "label": "P", "properties": {}}, {"species": [{"element": "P", "occu": 1}], "abc": [0.24992174, 0.83479352, 0.23545655], "xyz": [2.02606331253634, 15.101610118483679, 10.6392421892883], "label": "P", "properties": {}}, {"species": [{"element": "P", "occu": 1}], "abc": [0.25052343, 0.05472, 0.35328946], "xyz": [2.03094108761313, 0.9898976044799999, 15.96359127772356], "label": "P", "properties": {}}, {"species": [{"element": "P", "occu": 1}], "abc": [0.74997177, 0.31312544, 0.32028699], "xyz": [6.07986439529007, 5.6645124809529595, 14.47235533132614], "label": "P", "properties": {}}, {"species": [{"element": "P", "occu": 1}], "abc": [0.75039281, 0.77338406, 0.34237559], "xyz": [6.08327767857271, 13.99069861727004, 15.47044166624574], "label": "P", "properties": {}}, {"species": [{"element": "P", "occu": 1}], "abc": [0.24968486, 0.60269754, 0.33846005], "xyz": [2.02414297588426, 10.902939529824359, 15.2935156968393], "label": "P", "properties": {}}, {"species": [{"element": "P", "occu": 1}], "abc": [0.25006511, 0.81620697, 0.45667757000000003], "xyz": [2.02722558316201, 14.765375079730978, 20.63524361350602], "label": "P", "properties": {}}, {"species": [{"element": "P", "occu": 1}], "abc": [0.75006007, 0.07164878, 0.42407659000000003], "xyz": [6.080580224935369, 1.2961431960145198, 19.16214922803174], "label": "P", "properties": {}}, {"species": [{"element": "P", "occu": 1}], "abc": [0.74997584, 0.51620916, 0.44091270000000005], "xyz": [6.079897389929439, 9.338344497343439, 19.922898724342204], "label": "P", "properties": {}}, {"species": [{"element": "P", "occu": 1}], "abc": [0.25026355, 0.35694211, 0.43269592], "xyz": [2.0288342947680498, 6.45716629435374, 19.551618705009123], "label": "P", "properties": {}}, {"species": [{"element": "P", "occu": 1}], "abc": [0.75001674, 0.83996085, 0.52216783], "xyz": [6.0802289576813395, 15.1950883273389, 23.59445938889838], "label": "P", "properties": {}}, {"species": [{"element": "P", "occu": 1}], "abc": [0.7504023, 0.31311783, 0.5348263999999999], "xyz": [6.083354612019299, 5.664374814272219, 24.1664442922704], "label": "P", "properties": {}}, {"species": [{"element": "P", "occu": 1}], "abc": [0.25005108, 0.13090568, 0.53967747], "xyz": [2.0271118448842795, 2.36811438312912, 24.38564273294742], "label": "P", "properties": {}}, {"species": [{"element": "S", "occu": 1}], "abc": [0.45767516, 0.76105117, 0.03019764], "xyz": [3.71027686801156, 13.767593751273779, 1.3644980592170401], "label": "S", "properties": {}}, {"species": [{"element": "S", "occu": 1}], "abc": [0.53565002, 0.53529034, 0.03867552], "xyz": [4.342402761285819, 9.683527508539559, 1.74757603505472], "label": "S", "properties": {}}, {"species": [{"element": "S", "occu": 1}], "abc": [0.46423536, 0.23184897, 0.0440467], "xyz": [3.7634590383297595, 4.194202119958979, 1.9902759508662], "label": "S", "properties": {}}, {"species": [{"element": "S", "occu": 1}], "abc": [0.03564847, 0.23171228, 0.044123619999999995], "xyz": [0.28899469575977, 4.1917293658735195, 1.9937516261413197], "label": "S", "properties": {}}, {"species": [{"element": "S", "occu": 1}], "abc": [0.96381351, 0.53521276, 0.03863489], "xyz": [7.81343468854641, 9.68212406818584, 1.7457401446955398], "label": "S", "properties": {}}, {"species": [{"element": "S", "occu": 1}], "abc": [0.04196149, 0.76097972, 0.030177530000000004], "xyz": [0.34017302947858996, 13.76630120405448, 1.3635893770825802], "label": "S", "properties": {}}, {"species": [{"element": "S", "occu": 1}], "abc": [0.24966439, 0.87541974, 0.07561519], "xyz": [2.02397702987249, 15.83654794481916, 3.41671667065134], "label": "S", "properties": {}}, {"species": [{"element": "S", "occu": 1}], "abc": [0.24994362, 0.35987954, 0.08138035], "xyz": [2.0262406891234197, 6.510305090412359, 3.6772188036351], "label": "S", "properties": {}}, {"species": [{"element": "S", "occu": 1}], "abc": [0.749443, 0.41323116, 0.00010000000000000005], "xyz": [6.075577767412999, 7.475448380491439, 0.004518558600000002], "label": "S", "properties": {}}, {"species": [{"element": "S", "occu": 1}], "abc": [0.24982941, 0.68284061, 0.08577332], "xyz": [2.02531481252331, 12.352746419602738, 3.87571772736552], "label": "S", "properties": {}}, {"species": [{"element": "S", "occu": 1}], "abc": [0.74987427, 0.88449102, 0.09184379000000001], "xyz": [6.079073983167569, 16.00064952269868, 4.15001547161094], "label": "S", "properties": {}}, {"species": [{"element": "S", "occu": 1}], "abc": [0.74992074, 0.41000333, 0.07698428], "xyz": [6.079450705745339, 7.41705618047922, 3.47857980458808], "label": "S", "properties": {}}, {"species": [{"element": "S", "occu": 1}], "abc": [0.24935394, 0.35604701, 0.005899400000000001], "xyz": [2.0214602766065397, 6.4409737259003395, 0.26656784604840006], "label": "S", "properties": {}}, {"species": [{"element": "S", "occu": 1}], "abc": [0.46329021, 0.53059441, 0.12909162999999999], "xyz": [3.7557969048161097, 9.598577035991939, 5.833080949245179], "label": "S", "properties": {}}, {"species": [{"element": "S", "occu": 1}], "abc": [0.53782222, 0.79904239, 0.14492449], "xyz": [4.360012332696019, 14.454863811019258, 6.5484980064011395], "label": "S", "properties": {}}, {"species": [{"element": "S", "occu": 1}], "abc": [0.5378638, 0.31273427, 0.14696315999999998], "xyz": [4.3603494130658, 5.6574361241191795, 6.640616505011759], "label": "S", "properties": {}}, {"species": [{"element": "S", "occu": 1}], "abc": [0.46526435, 0.03429476, 0.12833501], "xyz": [3.7718008452008496, 0.62040023337384, 5.79889263116586], "label": "S", "properties": {}}, {"species": [{"element": "S", "occu": 1}], "abc": [0.0348091, 0.03423056, 0.12834938999999998], "xyz": [0.2821900985981, 0.6192388403510399, 5.799542399892539], "label": "S", "properties": {}}, {"species": [{"element": "S", "occu": 1}], "abc": [0.96200487, 0.31272972, 0.14698898999999999], "xyz": [7.79877242207217, 5.657353813554479, 6.64178364869814], "label": "S", "properties": {}}, {"species": [{"element": "S", "occu": 1}], "abc": [0.96165874, 0.79908126, 0.14500293], "xyz": [7.7959664185033395, 14.45556697841484, 6.55204236376698], "label": "S", "properties": {}}, {"species": [{"element": "S", "occu": 1}], "abc": [0.03635435, 0.53057895, 0.12904947], "xyz": [0.29471711739085, 9.5982973609743, 5.83117592493942], "label": "S", "properties": {}}, {"species": [{"element": "S", "occu": 1}], "abc": [0.74992726, 0.69002082, 0.10015117000000001], "xyz": [6.079503562022659, 12.48263809867188, 4.52538930503562], "label": "S", "properties": {}}, {"species": [{"element": "S", "occu": 1}], "abc": [0.24956681, 0.64335701, 0.17152629], "xyz": [2.02318596920671, 11.63847885644034, 7.75051592805594], "label": "S", "properties": {}}, {"species": [{"element": "S", "occu": 1}], "abc": [0.25003256, 0.11957258, 0.18136859], "xyz": [2.02696170711496, 2.1630959521837196, 8.19524602114374], "label": "S", "properties": {}}, {"species": [{"element": "S", "occu": 1}], "abc": [0.74997997, 0.20438521, 0.10329046], "xyz": [6.07993087097627, 3.69737627503914, 4.6672399633095605], "label": "S", "properties": {}}, {"species": [{"element": "S", "occu": 1}], "abc": [0.24982581, 0.45542993, 0.18485863], "xyz": [2.02528562807571, 8.23883400430362, 8.35294552370718], "label": "S", "properties": {}}, {"species": [{"element": "S", "occu": 1}], "abc": [0.74936638, 0.63485421, 0.19395123], "xyz": [6.074956625086579, 11.484661214785138, 8.763799982970781], "label": "S", "properties": {}}, {"species": [{"element": "S", "occu": 1}], "abc": [0.74995301, 0.17594589, 0.17948893], "xyz": [6.07971231189091, 3.1829023214382595, 8.11031248256298], "label": "S", "properties": {}}, {"species": [{"element": "S", "occu": 1}], "abc": [0.24997255, 0.18509376, 0.1121268], "xyz": [2.02647521858705, 3.34838943033984, 5.0665151643048], "label": "S", "properties": {}}, {"species": [{"element": "S", "occu": 1}], "abc": [0.46172233, 0.28850487, 0.2326285], "xyz": [3.74308642934303, 5.21912060843958, 10.511455092801], "label": "S", "properties": {}}, {"species": [{"element": "S", "occu": 1}], "abc": [0.53563802, 0.55752467, 0.24918558], "xyz": [4.34230547979382, 10.08575174107278, 11.259596455049879], "label": "S", "properties": {}}, {"species": [{"element": "S", "occu": 1}], "abc": [0.53654868, 0.06606631, 0.23978571999999998], "xyz": [4.34968801008588, 1.19515500741654, 10.83485827263192], "label": "S", "properties": {}}, {"species": [{"element": "S", "occu": 1}], "abc": [0.46345274, 0.7731915, 0.23517306], "xyz": [3.7571145015573397, 13.987215161811, 10.62643252751316], "label": "S", "properties": {}}, {"species": [{"element": "S", "occu": 1}], "abc": [0.03578261, 0.77368113, 0.23544526999999998], "xyz": [0.29008214070451, 13.99607268308442, 10.63873249587822], "label": "S", "properties": {}}, {"species": [{"element": "S", "occu": 1}], "abc": [0.96355592, 0.06506027, 0.23986749999999998], "xyz": [7.81134646025272, 1.17695550840318, 10.838553549855], "label": "S", "properties": {}}, {"species": [{"element": "S", "occu": 1}], "abc": [0.9644095, 0.55770679, 0.24905626], "xyz": [7.8182662549145, 10.08904633448886, 11.25375305506836], "label": "S", "properties": {}}, {"species": [{"element": "S", "occu": 1}], "abc": [0.03673805, 0.2881194, 0.23280452], "xyz": [0.29782769309755, 5.2121473659396, 10.51940865964872], "label": "S", "properties": {}}, {"species": [{"element": "S", "occu": 1}], "abc": [0.74985008, 0.44700229, 0.20622414], "xyz": [6.078877879893279, 8.08637602463586, 9.31835861324604], "label": "S", "properties": {}}, {"species": [{"element": "S", "occu": 1}], "abc": [0.24977719, 0.39964734, 0.27556627], "xyz": [2.02489147589729, 7.22971389807756, 12.45162339178422], "label": "S", "properties": {}}, {"species": [{"element": "S", "occu": 1}], "abc": [0.25106961, 0.88772944, 0.27672184], "xyz": [2.0353688547215096, 16.05923329828896, 12.50383849939824], "label": "S", "properties": {}}, {"species": [{"element": "S", "occu": 1}], "abc": [0.74914024, 0.9549643, 0.19700642], "xyz": [6.07312335536984, 17.2755276486462, 8.90185053346212], "label": "S", "properties": {}}, {"species": [{"element": "S", "occu": 1}], "abc": [0.24996763, 0.20648411, 0.28649964], "xyz": [2.0264353331753298, 3.73534586718174, 12.94565412218904], "label": "S", "properties": {}}, {"species": [{"element": "S", "occu": 1}], "abc": [0.74997164, 0.40030579, 0.2909966], "xyz": [6.07986334140724, 7.24162541265486, 13.1488518950076], "label": "S", "properties": {}}, {"species": [{"element": "S", "occu": 1}], "abc": [0.74882285, 0.93247865, 0.27380087000000003], "xyz": [6.07055034097435, 16.8687569785041, 12.371852758259822], "label": "S", "properties": {}}, {"species": [{"element": "S", "occu": 1}], "abc": [0.24953688, 0.90467682, 0.20008569999999998], "xyz": [2.02294333295208, 16.36581536817588, 9.040989604720199], "label": "S", "properties": {}}, {"species": [{"element": "S", "occu": 1}], "abc": [0.46525942, 0.05031837, 0.32893664], "xyz": [3.7717608787212193, 0.91027108779858, 14.86319483527104], "label": "S", "properties": {}}, {"species": [{"element": "S", "occu": 1}], "abc": [0.53746824, 0.31893748, 0.34492425000000004], "xyz": [4.35714269081784, 5.76965364457032, 15.585604361860502], "label": "S", "properties": {}}, {"species": [{"element": "S", "occu": 1}], "abc": [0.53655926, 0.83464821, 0.34242218], "xyz": [4.34977377993466, 15.098981426581139, 15.472546862697481], "label": "S", "properties": {}}, {"species": [{"element": "S", "occu": 1}], "abc": [0.46342539, 0.54194969, 0.33779119], "xyz": [3.7568927808234895, 9.80399670832746, 15.26329286578734], "label": "S", "properties": {}}, {"species": [{"element": "S", "occu": 1}], "abc": [0.03616562, 0.54176537, 0.33787252], "xyz": [0.29318712272542, 9.80066231639658, 15.266967809496721], "label": "S", "properties": {}}, {"species": [{"element": "S", "occu": 1}], "abc": [0.96430598, 0.83470725, 0.34262496000000003], "xyz": [7.8174270399101795, 15.1000494739965, 15.481709595826562], "label": "S", "properties": {}}, {"species": [{"element": "S", "occu": 1}], "abc": [0.96251745, 0.3188459, 0.34491108000000004], "xyz": [7.80292780100295, 5.7679969409406, 15.585009267692882], "label": "S", "properties": {}}, {"species": [{"element": "S", "occu": 1}], "abc": [0.03676649, 0.04992195, 0.32867976000000004], "xyz": [0.29805825023358995, 0.9030997572363, 14.851587561939363], "label": "S", "properties": {}}, {"species": [{"element": "S", "occu": 1}], "abc": [0.7496801, 0.20730122, 0.3022073], "xyz": [6.0774998875590995, 3.75012757828548, 13.6554139439778], "label": "S", "properties": {}}, {"species": [{"element": "S", "occu": 1}], "abc": [0.24985191, 0.16094935, 0.37165867], "xyz": [2.0254972153208097, 2.9116114036478997, 16.793614795930623], "label": "S", "properties": {}}, {"species": [{"element": "S", "occu": 1}], "abc": [0.24993651, 0.65216464, 0.38070703], "xyz": [2.02618304983941, 11.797810944125759, 17.20247024486958], "label": "S", "properties": {}}, {"species": [{"element": "S", "occu": 1}], "abc": [0.75084811, 0.72069543, 0.3010607], "xyz": [6.086968700515009, 13.037548971430619, 13.6036041510702], "label": "S", "properties": {}}, {"species": [{"element": "S", "occu": 1}], "abc": [0.25035943, 0.97303819, 0.38404337], "xyz": [2.0296115738891296, 17.602488548036458, 17.35322472286482], "label": "S", "properties": {}}, {"species": [{"element": "S", "occu": 1}], "abc": [0.75004968, 0.15208982, 0.39282579], "xyz": [6.08049599537688, 2.7513404328178797, 17.75006351706294], "label": "S", "properties": {}}, {"species": [{"element": "S", "occu": 1}], "abc": [0.75006138, 0.70346495, 0.3777398], "xyz": [6.08059084483158, 12.7258455562983, 17.0683942185228], "label": "S", "properties": {}}, {"species": [{"element": "S", "occu": 1}], "abc": [0.24952191, 0.67534273, 0.30402637000000005], "xyz": [2.02282197429081, 12.21710801589882, 13.737609687902822], "label": "S", "properties": {}}, {"species": [{"element": "S", "occu": 1}], "abc": [0.46200377, 0.8089964, 0.43218382], "xyz": [3.7453680046020694, 14.634934181157599, 19.52847916641852], "label": "S", "properties": {}}, {"species": [{"element": "S", "occu": 1}], "abc": [0.53626742, 0.07732424, 0.44858071], "xyz": [4.34740789404922, 1.3988135954721599, 20.26938224964606], "label": "S", "properties": {}}, {"species": [{"element": "S", "occu": 1}], "abc": [0.5348587, 0.57386762, 0.44917122000000004], "xyz": [4.3359876954317, 10.38139953082308, 20.296064790034922], "label": "S", "properties": {}}, {"species": [{"element": "S", "occu": 1}], "abc": [0.46239624, 0.296184, 0.43088866000000003], "xyz": [3.74854967686584, 5.358037867056, 19.46995660285476], "label": "S", "properties": {}}, {"species": [{"element": "S", "occu": 1}], "abc": [0.0380987, 0.29619073, 0.43087461], "xyz": [0.30885819827169997, 5.35815961433082, 19.46932174537146], "label": "S", "properties": {}}, {"species": [{"element": "S", "occu": 1}], "abc": [0.965106, 0.57386641, 0.44916793], "xyz": [7.823912634846, 10.38137764163994, 20.29591612945698], "label": "S", "properties": {}}, {"species": [{"element": "S", "occu": 1}], "abc": [0.96385769, 0.07731657, 0.44858529], "xyz": [7.813792846572789, 1.39867484337738, 20.26958919962994], "label": "S", "properties": {}}, {"species": [{"element": "S", "occu": 1}], "abc": [0.03801364, 0.80903344, 0.43223378], "xyz": [0.30816863462924, 14.63560424342496, 19.53073663829508], "label": "S", "properties": {}}, {"species": [{"element": "S", "occu": 1}], "abc": [0.7502138, 0.96433037, 0.40623760000000003], "xyz": [6.0818264819158, 17.44496204660658, 18.3560840112336], "label": "S", "properties": {}}, {"species": [{"element": "S", "occu": 1}], "abc": [0.25010678, 0.91731554, 0.47718542], "xyz": [2.0275633931429797, 16.59445277043636, 21.561902833356122], "label": "S", "properties": {}}, {"species": [{"element": "S", "occu": 1}], "abc": [0.25006135, 0.40386772, 0.47479347], "xyz": [2.02719510162785, 7.306061559846479, 21.45382117092342], "label": "S", "properties": {}}, {"species": [{"element": "S", "occu": 1}], "abc": [0.75000232, 0.48843889, 0.39619204], "xyz": [6.0801120577551195, 8.83597381480026, 17.902169495935443], "label": "S", "properties": {}}, {"species": [{"element": "S", "occu": 1}], "abc": [0.25004942, 0.72279625, 0.48513776000000003], "xyz": [2.02709838761122, 13.0755532968225, 21.92123397632736], "label": "S", "properties": {}}, {"species": [{"element": "S", "occu": 1}], "abc": [0.75001973, 0.92489161, 0.49162965000000003], "xyz": [6.08025319698643, 16.73150564953674, 22.2145738302249], "label": "S", "properties": {}}, {"species": [{"element": "S", "occu": 1}], "abc": [0.74997644, 0.4233055, 0.4655956], "xyz": [6.07990225400404, 7.657695548486999, 21.038210025021602], "label": "S", "properties": {}}, {"species": [{"element": "S", "occu": 1}], "abc": [0.25018331, 0.43290425, 0.39851606], "xyz": [2.02818380585821, 7.831339182094499, 18.00718170151116], "label": "S", "properties": {}}, {"species": [{"element": "S", "occu": 1}], "abc": [0.54192924, 0.84666863, 0.5471831699999999], "xyz": [4.393307085468839, 15.31643363715942, 24.724792185787617], "label": "S", "properties": {}}, {"species": [{"element": "S", "occu": 1}], "abc": [0.53585208, 0.3747829, 0.5338075499999999], "xyz": [4.344040819475279, 6.779910360198599, 24.120406957974296], "label": "S", "properties": {}}, {"species": [{"element": "S", "occu": 1}], "abc": [0.46426351, 0.07168586, 0.5392181899999999], "xyz": [3.76368724449641, 1.29681398189124, 24.364889897009338], "label": "S", "properties": {}}, {"species": [{"element": "S", "occu": 1}], "abc": [0.03581481, 0.07171425, 0.53925135], "xyz": [0.29034317937471, 1.2973275636344999, 24.3663882510411], "label": "S", "properties": {}}, {"species": [{"element": "S", "occu": 1}], "abc": [0.96453109, 0.37504955, 0.5337504399999999], "xyz": [7.81925195963219, 6.7847341210947, 24.11782640915784], "label": "S", "properties": {}}, {"species": [{"element": "S", "occu": 1}], "abc": [0.95809758, 0.84665454, 0.54718212], "xyz": [7.767096838665779, 15.316178745762357, 24.72474474092232], "label": "S", "properties": {}}, {"species": [{"element": "S", "occu": 1}], "abc": [0.75000197, 0.73234481, 0.50172556], "xyz": [6.08010922037827, 13.248288981585539, 22.67076343977816], "label": "S", "properties": {}}, {"species": [{"element": "S", "occu": 1}], "abc": [0.25035689, 0.19379562, 0.57765541], "xyz": [2.02959098263999, 3.5058081139750796, 26.10169820692026], "label": "S", "properties": {}}, {"species": [{"element": "S", "occu": 1}], "abc": [0.75015007, 0.24704121, 0.49646755000000004], "xyz": [6.08130983612537, 4.46903329654314, 22.4331771767343], "label": "S", "properties": {}}, {"species": [{"element": "S", "occu": 1}], "abc": [0.75106385, 0.25060376, 0.57201258], "xyz": [6.088717659605349, 4.53348065967984, 25.84672362667188], "label": "S", "properties": {}}, {"species": [{"element": "S", "occu": 1}], "abc": [0.250015, 0.19653534, 0.5007467099999999], "xyz": [2.026819351865, 3.55537028986956, 22.626533528922057], "label": "S", "properties": {}}]}, "formula": "(Li3PS4)22.0", "bandgap": 2.2106, "slab_thickness": 26.09717964832026}