{"miller": "110_0.08", "final_energy": -699.42922931, "gamma": 0.015618892770977397, "work_function": 4.9843470081321986, "ionization_potentail": -5.311547008132198, "electron_affinity": -3.368447008132198, "is_stochiometric": true, "incar_parameters": {"SYSTEM": "unknown system", "LCOMPAT": false, "PREC": "normal", "ENMAX": 520.0, "ENAUG": 628.945, "EDIFF": 1e-05, "IALGO": 38, "IWAVPR": 11, "NBANDS": 462, "NBANDSLOW": -1, "NBANDSHIGH": -1, "NELECT": 760.0, "TURBO": 0, "IRESTART": 0, "NREBOOT": 0, "NMIN": 0, "EREF": 0.0, "ISMEAR": 0, "SIGMA": 0.05, "KSPACING": 0.5, "KGAMMA": true, "KBLOWUP": true, "LREAL": true, "ROPT": [-0.0005, -0.0005, -0.0005], "LMAXPAW": -100, "LMAXMIX": 2, "NLSPLINE": false, "ISTART": 0, "ICHARG": 2, "INIWAV": 1, "ISPIN": 1, "LNONCOLLINEAR": false, "MAGMOM": [0.6, 0.6, 0.6, 0.6, 0.6, 0.6, 0.6, 0.6, 0.6, 0.6, 0.6, 0.6, 0.6, 0.6, 0.6, 0.6, 0.6, 0.6, 0.6, 0.6, 0.6, 0.6, 0.6, 0.6, 0.6, 0.6, 0.6, 0.6, 0.6, 0.6, 0.6, 0.6, 0.6, 0.6, 0.6, 0.6, 0.6, 0.6, 0.6, 0.6, 0.6, 0.6, 0.6, 0.6, 0.6, 0.6, 0.6, 0.6, 0.6, 0.6, 0.6, 0.6, 0.6, 0.6, 0.6, 0.6, 0.6, 0.6, 0.6, 0.6, 0.6, 0.6, 0.6, 0.6, 0.6, 0.6, 0.6, 0.6, 0.6, 0.6, 0.6, 0.6, 0.6, 0.6, 0.6, 0.6, 0.6, 0.6, 0.6, 0.6, 0.6, 0.6, 0.6, 0.6, 0.6, 0.6, 0.6, 0.6, 0.6, 0.6, 0.6, 0.6, 0.6, 0.6, 0.6, 0.6, 0.6, 0.6, 0.6, 0.6, 0.6, 0.6, 0.6, 0.6, 0.6, 0.6, 0.6, 0.6, 0.6, 0.6, 0.6, 0.6, 0.6, 0.6, 0.6, 0.6, 0.6, 0.6, 0.6, 0.6, 0.6, 0.6, 0.6, 0.6, 0.6, 0.6, 0.6, 0.6, 0.6, 0.6, 0.6, 0.6, 0.6, 0.6, 0.6, 0.6, 0.6, 0.6, 0.6, 0.6, 0.6, 0.6, 0.6, 0.6, 0.6, 0.6, 0.6, 0.6, 0.6, 0.6, 0.6, 0.6, 0.6, 0.6, 0.6, 0.6, 0.6, 0.6, 0.6, 0.6], "NUPDOWN": -1.0, "LSORBIT": false, "SAXIS": [0.0, 0.0, 1.0], "LSPIRAL": false, "QSPIRAL": [0.0, 0.0, 0.0], "LZEROZ": false, "LASPH": false, "LMETAGGA": false, "NELM": 100, "NELMDL": -5, "NELMIN": 6, "ENINI": 520.0, "LDIAG": true, "LSUBROT": false, "WEIMIN": 0.001, "EBREAK": 1e-08, "DEPER": 0.3, "NRMM": 4, "TIME": 0.4, "AMIX": 0.4, "BMIX": 1.0, "AMIN": 0.1, "AMIX_MAG": 1.6, "BMIX_MAG": 1.0, "IMIX": 4, "MIXFIRST": false, "MAXMIX": -45, "WC": 100.0, "INIMIX": 1, "MIXPRE": 1, "MREMOVE": 5, "LDIPOL": false, "LMONO": false, "IDIPOL": 0, "EPSILON": 1.0, "DIPOL": [-100.0, -100.0, -100.0], "EFIELD": 0.0, "NGX": 80, "NGY": 60, "NGZ": 280, "NGXF": 160, "NGYF": 120, "NGZF": 560, "ADDGRID": false, "NSW": 150, "IBRION": 2, "MDALGO": 0, "ISIF": 2, "PSTRESS": 0.0, "EDIFFG": -0.01, "NFREE": 1, "POTIM": 0.5, "SMASS": -3.0, "SCALEE": 1.0, "TEBEG": 0.0001, "TEEND": 0.0001, "NBLOCK": 1, "KBLOCK": 150, "NPACO": 256, "APACO": 10.0, "ISYM": 0, "SYMPREC": 1e-05, "LORBIT": 11, "RWIGS": [-1.0, -1.0, -1.0], "NEDOS": 301, "EMIN": 10.0, "EMAX": -10.0, "EFERMI": 0.0, "NWRITE": 2, "LWAVE": false, "LDOWNSAMPLE": false, "LCHARG": false, "LPARD": false, "LVTOT": false, "LVHAR": false, "LELF": false, "LOPTICS": false, "STM": [0.0, 0.0, 0.0, 0.0, 0.0, 0.0, 0.0], "NPAR": 2, "NSIM": 4, "NBLK": -1, "LPLANE": true, "LSCALAPACK": true, "LSCAAWARE": false, "LSCALU": false, "LASYNC": false, "LORBITALREAL": false, "IDIOT": 3, "PHON_NSTRUCT": -1, "LMUSIC": false, "POMASS": [7.01, 30.974, 32.066], "DARWINR": [0.0, 0.0, 0.0], "DARWINV": [1.0, 1.0, 1.0], "LCORR": true, "GGA_COMPAT": true, "LBERRY": false, "ICORELEVEL": 0, "LDAU": false, "I_CONSTRAINED_M": 0, "GGA": "--", "VOSKOWN": 0, "LHFCALC": false, "PRECFOCK": "", "LSYMGRAD": false, "LHFONE": false, "LRHFCALC": false, "LTHOMAS": false, "LMODELHF": false, "LFOCKACE": false, "ENCUT4O": -1.0, "EXXOEP": 0, "FOURORBIT": 0, "AEXX": 0.0, "HFALPHA": 0.0, "MCALPHA": 0.0, "ALDAX": 1.0, "AGGAX": 1.0, "ALDAC": 1.0, "AGGAC": 1.0, "NKREDX": 1, "NKREDY": 1, "NKREDZ": 1, "SHIFTRED": false, "ODDONLY": false, "EVENONLY": false, "LMAXFOCK": 0, "NMAXFOCKAE": 0, "LFOCKAEDFT": false, "HFSCREEN": 0.0, "HFSCREENC": 0.0, "NBANDSGWLOW": 0, "LUSE_VDW": false, "Zab_VDW": -0.8491, "PARAM1": 0.1234, "PARAM2": 1.0, "PARAM3": 0.0, "MODEL_GW": 0, "MODEL_EPS0": 24.84988353, "MODEL_ALPHA": 1.0, "LEPSILON": false, "LRPA": false, "LNABLA": false, "LVEL": false, "CSHIFT": 0.1, "OMEGAMAX": -1.0, "DEG_THRESHOLD": 0.002, "RTIME": -0.1, "WPLASMAI": 0.0, "DFIELD": [0.0, 0.0, 0.0], "WPLASMA": [0.0, 0.0, 0.0, 0.0, 0.0, 0.0, 0.0, 0.0, 0.0], "NUCIND": false, "MAGPOS": [0.0, 0.0, 0.0], "LNICSALL": true, "ORBITALMAG": false, "LMAGBLOCH": false, "LCHIMAG": false, "LGAUGE": true, "MAGATOM": 0, "MAGDIPOL": [0.0, 0.0, 0.0], "AVECCONST": [0.0, 0.0, 0.0], "LFINITE_TEMPERATURE": false, "LADDER": false, "LRPAFORCE": false, "LFXC": false, "LHARTREE": true, "IBSE": 0, "KPOINT": [-1, 0, 0, 0], "LTCTC": false, "LTCTE": false, "LTETE": false, "LTRIPLET": false, "LFXCEPS": false, "LFXHEG": false, "NATURALO": 2, "LHOLEGF": false, "L2ORDER": false, "LDMP1": false, "LMP2LT": false, "LSMP2LT": false, "LGWLF": false, "ENCUTGW": -2.0, "ENCUTGWSOFT": -2.0, "ENCUTLF": -1.0, "LESF_SPLINES": false, "LMAXMP2": -1, "SCISSOR": 0.0, "NOMEGA": 0, "NOMEGAR": 0, "NBANDSGW": -1, "NBANDSO": -1, "NBANDSV": -1, "NELMGW": 1, "NELMHF": 1, "DIM": 3, "IESPILON": 4, "ANTIRES": 0, "OMEGAMIN": -30.0, "OMEGATL": -200.0, "OMEGAGRID": 0, "LSELFENERGY": false, "LSPECTRAL": false, "LSPECTRALGW": false, "LSINGLES": false, "LFERMIGW": false, "ODDONLYGW": false, "EVENONLYGW": false, "NKREDLFX": 1, "NKREDLFY": 1, "NKREDLFZ": 1, "MAXMEM": 2800, "TELESCOPE": 0, "NTAUPAR": -1, "NOMEGAPAR": -1, "DAMP_NEWTON": 0.80000001, "LAMBDA": 1.0, "OFIELD_KAPPA": 0.0, "OFIELD_K": [0.0, 0.0, 0.0], "OFIELD_Q6_NEAR": 0.0, "OFIELD_Q6_FAR": 0.0, "OFIELD_A": 0.0, "KPOINTS_OPT_MODE": 1, "LKPOINTS_OPT": false, "@module": "pymatgen.io.vasp.inputs", "@class": "Incar"}, "relaxed_structures": {"@module": "pymatgen.core.structure", "@class": "Structure", "charge": 0, "lattice": {"matrix": [[13.057895, 0.0, 0.0], [0.0, 10.242414, 0.0], [0.0, 0.0, 49.547026]], "a": 13.057895, "b": 10.242414, "c": 49.547026, "alpha": 90.0, "beta": 90.0, "gamma": 90.0, "volume": 6626.635607229017}, "sites": [{"species": [{"element": "Li", "occu": 1}], "abc": [0.15921814, 0.70655604, 0.029315870000000008], "xyz": [2.0790537542153, 7.2368394758805605, 1.4525141731026205], "label": "Li", "properties": {}}, {"species": [{"element": "Li", "occu": 1}], "abc": [0.84558782, 0.59547759, 0.04289148000000001], "xyz": [11.0415969668389, 6.09912800450226, 2.1251452747384807], "label": "Li", "properties": {}}, {"species": [{"element": "Li", "occu": 1}], "abc": [0.66884495, 0.75710734, 0.025307090000000004], "xyz": [8.73370712838025, 7.75460681871876, 1.2538910462143402], "label": "Li", "properties": {}}, {"species": [{"element": "Li", "occu": 1}], "abc": [0.66662136, 0.09311171, 0.04864322], "xyz": [8.704671723637201, 0.95368868206794, 2.41012688606372], "label": "Li", "properties": {}}, {"species": [{"element": "Li", "occu": 1}], "abc": [0.30404969, 0.19748319, 0.03356010000000001], "xyz": [3.97024892680255, 2.02270459002066, 1.6628031472626006], "label": "Li", "properties": {}}, {"species": [{"element": "Li", "occu": 1}], "abc": [0.84368394, 0.23888575, 0.02519125], "xyz": [11.0167363017063, 2.4467667502005, 1.2481515187225], "label": "Li", "properties": {}}, {"species": [{"element": "Li", "occu": 1}], "abc": [0.48408341, 0.67089359, 0.05679203000000001], "xyz": [6.32111033902195, 6.871569898726261, 2.8138761870027804], "label": "Li", "properties": {}}, {"species": [{"element": "Li", "occu": 1}], "abc": [0.4898671, 0.2363744, 0.003039390000000003], "xyz": [6.3966331557545, 2.4210444638016, 0.15059273535414014], "label": "Li", "properties": {}}, {"species": [{"element": "Li", "occu": 1}], "abc": [0.02216961, 0.15249049, 0.05659019], "xyz": [0.28948843957095, 1.56187072964286, 2.80387561527494], "label": "Li", "properties": {}}, {"species": [{"element": "Li", "occu": 1}], "abc": [0.16427422, 0.34418176, 0.1330946], "xyz": [2.1450755159669, 3.52525207716864, 6.5944416066596006], "label": "Li", "properties": {}}, {"species": [{"element": "Li", "occu": 1}], "abc": [0.82920191, 0.22574432, 0.14696625], "xyz": [10.82763147457945, 2.31216678358848, 7.2817406098725], "label": "Li", "properties": {}}, {"species": [{"element": "Li", "occu": 1}], "abc": [0.32745988, 0.46434734, 0.078265], "xyz": [4.275936729752599, 4.75603769607876, 3.8777979898900004], "label": "Li", "properties": {}}, {"species": [{"element": "Li", "occu": 1}], "abc": [0.66776342, 0.45754459, 0.10424623999999999], "xyz": [8.7195846232009, 4.68636111424026, 5.16509116368224], "label": "Li", "properties": {}}, {"species": [{"element": "Li", "occu": 1}], "abc": [0.67142787, 0.72553546, 0.14695856000000002], "xyz": [8.767434626533651, 7.43123455300044, 7.281359593242561], "label": "Li", "properties": {}}, {"species": [{"element": "Li", "occu": 1}], "abc": [0.33641148, 0.84205126, 0.13351271], "xyz": [4.3928257826346, 8.62463761414164, 6.6151577137004605], "label": "Li", "properties": {}}, {"species": [{"element": "Li", "occu": 1}], "abc": [0.83761584, 0.94791667, 0.10470489999999999], "xyz": [10.9374996890568, 9.708954971641381, 5.1878164026274], "label": "Li", "properties": {}}, {"species": [{"element": "Li", "occu": 1}], "abc": [0.16569701, 0.95369075, 0.08004117], "xyz": [2.16365415839395, 9.7680954894705, 3.96580193106042], "label": "Li", "properties": {}}, {"species": [{"element": "Li", "occu": 1}], "abc": [0.99605575, 0.52449384, 0.08979276], "xyz": [13.00639139764625, 5.37208304972976, 4.4489642143317605], "label": "Li", "properties": {}}, {"species": [{"element": "Li", "occu": 1}], "abc": [0.4957338, 0.28765728, 0.15311998000000002], "xyz": [6.473239908351, 2.94630495187392, 7.586639630179481], "label": "Li", "properties": {}}, {"species": [{"element": "Li", "occu": 1}], "abc": [0.50129886, 0.02026545, 0.09104638000000001], "xyz": [6.5459078774997, 0.20756712879630002, 4.511077357065881], "label": "Li", "properties": {}}, {"species": [{"element": "Li", "occu": 1}], "abc": [0.00441408, 0.78755556, 0.1536698], "xyz": [0.0576385931616, 8.06647009352184, 7.6138815760148], "label": "Li", "properties": {}}, {"species": [{"element": "Li", "occu": 1}], "abc": [0.16229029, 0.97328655, 0.23271841000000001], "xyz": [2.1191695663395502, 9.9688037857317, 11.530505110948662], "label": "Li", "properties": {}}, {"species": [{"element": "Li", "occu": 1}], "abc": [0.83342097, 0.85086281, 0.24733294000000003], "xyz": [10.882723517058151, 8.71488915722334, 12.254611608836441], "label": "Li", "properties": {}}, {"species": [{"element": "Li", "occu": 1}], "abc": [0.32900481, 0.1080898, 0.17915322], "xyz": [4.29611026347495, 1.1071004807772, 8.876509249323721], "label": "Li", "properties": {}}, {"species": [{"element": "Li", "occu": 1}], "abc": [0.66767136, 0.06647704, 0.20743539000000003], "xyz": [8.718382513387201, 0.68088536517456, 10.277806661650141], "label": "Li", "properties": {}}, {"species": [{"element": "Li", "occu": 1}], "abc": [0.66428533, 0.34637777, 0.25102994], "xyz": [8.67416808918035, 3.5477445207367797, 12.437786963958441], "label": "Li", "properties": {}}, {"species": [{"element": "Li", "occu": 1}], "abc": [0.33705139, 0.46916854, 0.23505625], "xyz": [4.40118166022405, 4.805418422455561, 11.6463381302125], "label": "Li", "properties": {}}, {"species": [{"element": "Li", "occu": 1}], "abc": [0.83457111, 0.56537114, 0.20791552], "xyz": [10.897741924413449, 5.79076527953196, 10.30159567524352], "label": "Li", "properties": {}}, {"species": [{"element": "Li", "occu": 1}], "abc": [0.17110296, 0.60182345, 0.17993818], "xyz": [2.2342444858692, 6.164124929808301, 8.91540168285268], "label": "Li", "properties": {}}, {"species": [{"element": "Li", "occu": 1}], "abc": [0.99067133, 0.15097523, 0.19067487], "xyz": [12.93608220665035, 1.5463508094052199, 9.44737274143662], "label": "Li", "properties": {}}, {"species": [{"element": "Li", "occu": 1}], "abc": [0.49401349, 0.91063506, 0.24911409999999998], "xyz": [6.4507762810035505, 9.327101287434841, 12.342862789666599], "label": "Li", "properties": {}}, {"species": [{"element": "Li", "occu": 1}], "abc": [0.51122844, 0.64252858, 0.19061914], "xyz": [6.675567290533801, 6.581043723192121, 9.44461148567764], "label": "Li", "properties": {}}, {"species": [{"element": "Li", "occu": 1}], "abc": [0.00655625, 0.4153545, 0.25388533], "xyz": [0.08561082409375, 4.254232745763, 12.579263046528581], "label": "Li", "properties": {}}, {"species": [{"element": "Li", "occu": 1}], "abc": [0.1639874, 0.59929113, 0.33373719], "xyz": [2.141330250523, 6.13818785998782, 16.53568523009694], "label": "Li", "properties": {}}, {"species": [{"element": "Li", "occu": 1}], "abc": [0.83091637, 0.47826393, 0.34925254000000006], "xyz": [10.85001871324115, 4.89857717232702, 17.304424679946045], "label": "Li", "properties": {}}, {"species": [{"element": "Li", "occu": 1}], "abc": [0.32843538, 0.74603585, 0.27827131000000005], "xyz": [4.2886747063251, 7.6412080345419, 13.787515831624063], "label": "Li", "properties": {}}, {"species": [{"element": "Li", "occu": 1}], "abc": [0.67691951, 0.70820539, 0.30606675000000005], "xyz": [8.839143885031449, 7.25373280141146, 15.164697219985504], "label": "Li", "properties": {}}, {"species": [{"element": "Li", "occu": 1}], "abc": [0.66340179, 0.97690285, 0.35219778999999996], "xyz": [8.66263091663205, 10.0058434274799, 17.45035305827254], "label": "Li", "properties": {}}, {"species": [{"element": "Li", "occu": 1}], "abc": [0.3295777, 0.09274915, 0.33744103999999997], "xyz": [4.3035910009415, 0.9499751924481, 16.71919998234704], "label": "Li", "properties": {}}, {"species": [{"element": "Li", "occu": 1}], "abc": [0.83689323, 0.19146727, 0.30858673999999997], "xyz": [10.928063923550852, 1.96108704678978, 15.289555230035239], "label": "Li", "properties": {}}, {"species": [{"element": "Li", "occu": 1}], "abc": [0.17118359, 0.2317193, 0.28029181999999997], "xyz": [2.23529734394305, 2.3733650023901998, 13.887626093127318], "label": "Li", "properties": {}}, {"species": [{"element": "Li", "occu": 1}], "abc": [0.99352939, 0.7766336, 0.29161106000000003], "xyz": [12.97340245403405, 7.954602857510401, 14.448460771707563], "label": "Li", "properties": {}}, {"species": [{"element": "Li", "occu": 1}], "abc": [0.50653599, 0.52752813, 0.33097871], "xyz": [6.6142937711410505, 5.40316150410582, 16.399010749816462], "label": "Li", "properties": {}}, {"species": [{"element": "Li", "occu": 1}], "abc": [0.49133333, 0.18418179, 0.29424512], "xyz": [6.415779033140351, 1.8864661444410602, 14.578970611013123], "label": "Li", "properties": {}}, {"species": [{"element": "Li", "occu": 1}], "abc": [0.0128864, 0.04791741, 0.3568783], "xyz": [0.168269258128, 0.49078995102774003, 17.6822584089358], "label": "Li", "properties": {}}, {"species": [{"element": "Li", "occu": 1}], "abc": [0.15103366, 0.22765223, 0.43705267000000003], "xyz": [1.9721816737456999, 2.33170838768322, 21.654660003859423], "label": "Li", "properties": {}}, {"species": [{"element": "Li", "occu": 1}], "abc": [0.84105616, 0.11850907, 0.45383910000000005], "xyz": [10.9824230263832, 1.21381895769498, 22.486377687516605], "label": "Li", "properties": {}}, {"species": [{"element": "Li", "occu": 1}], "abc": [0.329517, 0.36816174, 0.3799696], "xyz": [4.302798386715, 3.77086496004036, 18.8263636504096], "label": "Li", "properties": {}}, {"species": [{"element": "Li", "occu": 1}], "abc": [0.67029628, 0.35826337, 0.40716368000000003], "xyz": [8.7526584431306, 3.6694817565751805, 20.173749439215683], "label": "Li", "properties": {}}, {"species": [{"element": "Li", "occu": 1}], "abc": [0.69378699, 0.62413584, 0.45243133], "xyz": [9.05939766778605, 6.39265766551776, 22.41662687072458], "label": "Li", "properties": {}}, {"species": [{"element": "Li", "occu": 1}], "abc": [0.33504585, 0.72611406, 0.43811467000000004], "xyz": [4.374993529485749, 7.4371608137408405, 21.707278945471423], "label": "Li", "properties": {}}, {"species": [{"element": "Li", "occu": 1}], "abc": [0.82846671, 0.85348164, 0.40641584], "xyz": [10.818031310175451, 8.74171229827896, 20.13669619129184], "label": "Li", "properties": {}}, {"species": [{"element": "Li", "occu": 1}], "abc": [0.17530307, 0.85197632, 0.38190086], "xyz": [2.28908908123765, 8.72629418763648, 18.92205183984236], "label": "Li", "properties": {}}, {"species": [{"element": "Li", "occu": 1}], "abc": [0.98835571, 0.38491142, 0.39273417], "xyz": [12.90584508383045, 3.94242211696788, 19.45881013207842], "label": "Li", "properties": {}}, {"species": [{"element": "Li", "occu": 1}], "abc": [0.51608454, 0.14899551, 0.42846432999999995], "xyz": [6.7389777344433, 1.52607369756114, 21.22913329858258], "label": "Li", "properties": {}}, {"species": [{"element": "Li", "occu": 1}], "abc": [0.49621842, 0.79995135, 0.3941795], "xyz": [6.4795680254259, 8.1934329065589, 19.530421935167002], "label": "Li", "properties": {}}, {"species": [{"element": "Li", "occu": 1}], "abc": [0.97759013, 0.66927348, 0.43050577], "xyz": [12.765269270576349, 6.85497606138072, 21.330280579340023], "label": "Li", "properties": {}}, {"species": [{"element": "Li", "occu": 1}], "abc": [0.3296457, 0.07381109, 0.45932280000000003], "xyz": [4.3044789378015, 0.7560037415712599, 22.758078713992802], "label": "Li", "properties": {}}, {"species": [{"element": "Li", "occu": 1}], "abc": [0.1579446, 0.58273558, 0.46204886], "xyz": [2.062424002617, 5.96861906289012, 22.893146879690363], "label": "Li", "properties": {}}, {"species": [{"element": "Li", "occu": 1}], "abc": [0.5107624, 0.58053181, 0.4829906500000001], "xyz": [6.669481789148, 5.94604713818934, 23.930750293306904], "label": "Li", "properties": {}}, {"species": [{"element": "P", "occu": 1}], "abc": [0.08207246, 0.4319504, 0.0316853], "xyz": [1.0716935650717, 4.4242148242656, 1.5699123829178], "label": "P", "properties": {}}, {"species": [{"element": "P", "occu": 1}], "abc": [0.40347524, 0.93291951, 0.033518160000000005], "xyz": [5.2685373190198, 9.55534785009714, 1.6607251449921603], "label": "P", "properties": {}}, {"species": [{"element": "P", "occu": 1}], "abc": [0.09046684, 0.0620697, 0.13373172], "xyz": [1.1813064977018002, 0.6357435642558, 6.62600900786472], "label": "P", "properties": {}}, {"species": [{"element": "P", "occu": 1}], "abc": [0.91089372, 0.86982919, 0.04749148], "xyz": [11.8943545519194, 8.90915067326466, 2.35306159433848], "label": "P", "properties": {}}, {"species": [{"element": "P", "occu": 1}], "abc": [0.41119839, 0.56065359, 0.13314594], "xyz": [5.36938540078905, 5.742446179366261, 6.59698535097444], "label": "P", "properties": {}}, {"species": [{"element": "P", "occu": 1}], "abc": [0.58907244, 0.37048856, 0.048228660000000007], "xyz": [7.6920460689138, 3.79469721378384, 2.3895866709651603], "label": "P", "properties": {}}, {"species": [{"element": "P", "occu": 1}], "abc": [0.08937489, 0.69262215, 0.23361845], "xyz": [1.16704792925655, 7.094122805870101, 11.575099416229701], "label": "P", "properties": {}}, {"species": [{"element": "P", "occu": 1}], "abc": [0.90976436, 0.49751777, 0.15175248], "xyz": [11.8796074876222, 5.095782972696781, 7.5188840721244805], "label": "P", "properties": {}}, {"species": [{"element": "P", "occu": 1}], "abc": [0.41026211, 0.18921086, 0.23344519], "xyz": [5.35715955485845, 1.9379759614160401, 11.566514898504941], "label": "P", "properties": {}}, {"species": [{"element": "P", "occu": 1}], "abc": [0.59040193, 0.99677471, 0.15144696], "xyz": [7.709406409737349, 10.20937924454994, 7.50374646474096], "label": "P", "properties": {}}, {"species": [{"element": "P", "occu": 1}], "abc": [0.08923911, 0.32113334, 0.33419228], "xyz": [1.16527492827345, 3.28918061748276, 16.558233586159282], "label": "P", "properties": {}}, {"species": [{"element": "P", "occu": 1}], "abc": [0.91105098, 0.12420585, 0.25214472], "xyz": [11.896408036487099, 1.2721677369219, 12.49302099760272], "label": "P", "properties": {}}, {"species": [{"element": "P", "occu": 1}], "abc": [0.41372106, 0.81953357, 0.33311106999999995], "xyz": [5.4023261607687, 8.394002110837981, 16.50466284617782], "label": "P", "properties": {}}, {"species": [{"element": "P", "occu": 1}], "abc": [0.5897844, 0.62676183, 0.2523286], "xyz": [7.701342767838, 6.41955414225762, 12.5021317047436], "label": "P", "properties": {}}, {"species": [{"element": "P", "occu": 1}], "abc": [0.08988177, 0.94982261, 0.43625269], "xyz": [1.17366671507415, 9.72847639818054, 21.61502337399994], "label": "P", "properties": {}}, {"species": [{"element": "P", "occu": 1}], "abc": [0.91345725, 0.75662816, 0.35252523], "xyz": [11.92782885748875, 7.74969885877824, 17.46657673646598], "label": "P", "properties": {}}, {"species": [{"element": "P", "occu": 1}], "abc": [0.41021827, 0.45014142, 0.43698590000000004], "xyz": [5.3565870967416505, 4.61053478218788, 21.651351748933404], "label": "P", "properties": {}}, {"species": [{"element": "P", "occu": 1}], "abc": [0.58933065, 0.2571301, 0.35241915999999995], "xyz": [7.695417747981749, 2.6336329360614, 17.461321283418158], "label": "P", "properties": {}}, {"species": [{"element": "P", "occu": 1}], "abc": [0.91479761, 0.39305339, 0.45446377000000004], "xyz": [11.945331137630951, 4.02581554448346, 22.517328228248022], "label": "P", "properties": {}}, {"species": [{"element": "P", "occu": 1}], "abc": [0.59410888, 0.88734595, 0.45204461000000007], "xyz": [7.757811373607599, 9.0885645811233, 22.397466044829866], "label": "P", "properties": {}}, {"species": [{"element": "S", "occu": 1}], "abc": [0.13212209, 0.24796904, 0.02276243], "xyz": [1.72523637840055, 2.53980156686256, 1.12781071103318], "label": "S", "properties": {}}, {"species": [{"element": "S", "occu": 1}], "abc": [0.66068205, 0.28078065, 0.015677480000000008], "xyz": [8.62711683728475, 2.8758716604891004, 0.7767725091744804], "label": "S", "properties": {}}, {"species": [{"element": "S", "occu": 1}], "abc": [0.35119992, 0.75064711, 0.02646496000000001], "xyz": [4.5859316793684, 7.68843846852354, 1.3112600612089604], "label": "S", "properties": {}}, {"species": [{"element": "S", "occu": 1}], "abc": [0.84345854, 0.79173317, 0.014060870000000003], "xyz": [11.0137930521733, 8.10925890467238, 0.6966742914726202], "label": "S", "properties": {}}, {"species": [{"element": "S", "occu": 1}], "abc": [0.06151247, 0.91135155, 0.03994473], "xyz": [0.8032233744506501, 9.334439874641701, 1.97914257587298], "label": "S", "properties": {}}, {"species": [{"element": "S", "occu": 1}], "abc": [0.9361737, 0.39655492, 0.049249520000000005], "xyz": [12.2244578763615, 4.0616796643768796, 2.4401672479275205], "label": "S", "properties": {}}, {"species": [{"element": "S", "occu": 1}], "abc": [0.43849244, 0.39977186, 0.03724526], "xyz": [5.7257882398138, 4.09462889567004, 1.8453918655967603], "label": "S", "properties": {}}, {"species": [{"element": "S", "occu": 1}], "abc": [0.55605919, 0.90585106, 0.04691545], "xyz": [7.2609625168050504, 9.278101578858841, 2.3245210209516998], "label": "S", "properties": {}}, {"species": [{"element": "S", "occu": 1}], "abc": [0.0767395, 0.55130795, 0.00010000000000000286], "xyz": [1.0020563333525, 5.6467242653913, 0.0049547026000001425], "label": "S", "properties": {}}, {"species": [{"element": "S", "occu": 1}], "abc": [0.38717906, 0.04900516, 0.0004236500000000046], "xyz": [5.0557435116787, 0.50193113685624, 0.020990597564900227], "label": "S", "properties": {}}, {"species": [{"element": "S", "occu": 1}], "abc": [0.15100798, 0.87991006, 0.12720935], "xyz": [1.9718463470021002, 9.01240311728484, 6.302844971893101], "label": "S", "properties": {}}, {"species": [{"element": "S", "occu": 1}], "abc": [0.84710328, 0.05147803, 0.05862687], "xyz": [11.061385684395601, 0.52725929516442, 2.90478705218862], "label": "S", "properties": {}}, {"species": [{"element": "S", "occu": 1}], "abc": [0.33732858, 0.02698249, 0.06641039], "xyz": [4.4048011781391, 0.27636583333086, 3.29043732000014], "label": "S", "properties": {}}, {"species": [{"element": "S", "occu": 1}], "abc": [0.65314472, 0.91651544, 0.11729121], "xyz": [8.528695173564401, 9.387330573872159, 5.8114306314414605], "label": "S", "properties": {}}, {"species": [{"element": "S", "occu": 1}], "abc": [0.6529331, 0.55215389, 0.05695944], "xyz": [8.525931861824501, 5.655388733090461, 2.82217085462544], "label": "S", "properties": {}}, {"species": [{"element": "S", "occu": 1}], "abc": [0.35059929, 0.37979202, 0.12553705], "xyz": [4.57808871589455, 3.88998710273628, 6.219987480313301], "label": "S", "properties": {}}, {"species": [{"element": "S", "occu": 1}], "abc": [0.84733757, 0.41702887, 0.11769909], "xyz": [11.06444501861515, 4.27138233649218, 5.831639872406341], "label": "S", "properties": {}}, {"species": [{"element": "S", "occu": 1}], "abc": [0.15800509, 0.52390861, 0.06372569], "xyz": [2.06321387468555, 5.36608888178454, 3.15741841929794], "label": "S", "properties": {}}, {"species": [{"element": "S", "occu": 1}], "abc": [0.05995043, 0.54306076, 0.14121374], "xyz": [0.78282642014485, 5.56225313107464, 6.99672084733724], "label": "S", "properties": {}}, {"species": [{"element": "S", "occu": 1}], "abc": [0.93818462, 0.02726351, 0.14426253], "xyz": [12.2507162585749, 0.27924415651314, 7.14777932473578], "label": "S", "properties": {}}, {"species": [{"element": "S", "occu": 1}], "abc": [0.4400847, 0.04223702, 0.1408704], "xyz": [5.7465798037065, 0.43260904496628, 6.979709371430401], "label": "S", "properties": {}}, {"species": [{"element": "S", "occu": 1}], "abc": [0.5634793, 0.52667672, 0.14389058], "xyz": [7.3578535340735005, 5.39444101040208, 7.12935030841508], "label": "S", "properties": {}}, {"species": [{"element": "S", "occu": 1}], "abc": [0.11256521, 0.17608704, 0.10049630000000001], "xyz": [1.46986469283295, 1.80355636371456, 4.979292789003801], "label": "S", "properties": {}}, {"species": [{"element": "S", "occu": 1}], "abc": [0.88637133, 0.74964312, 0.08028699], "xyz": [11.57414375815035, 7.67815518729168, 3.9779815809917403], "label": "S", "properties": {}}, {"species": [{"element": "S", "occu": 1}], "abc": [0.38931365, 0.67643808, 0.09999728], "xyz": [5.08361676376675, 6.928358860725121, 4.95456783208928], "label": "S", "properties": {}}, {"species": [{"element": "S", "occu": 1}], "abc": [0.60875546, 0.25704977, 0.08177066], "xyz": [7.9490648773567, 2.63281016294478, 4.05149301705716], "label": "S", "properties": {}}, {"species": [{"element": "S", "occu": 1}], "abc": [0.15303262, 0.51295008, 0.22627348], "xyz": [1.9982838835349002, 5.25384708069312, 11.21117799667048], "label": "S", "properties": {}}, {"species": [{"element": "S", "occu": 1}], "abc": [0.84376993, 0.67159293, 0.16337929], "xyz": [11.017859150097351, 6.87873282853302, 8.09495792949154], "label": "S", "properties": {}}, {"species": [{"element": "S", "occu": 1}], "abc": [0.34761209, 0.65603989, 0.16572900000000002], "xyz": [4.53908217195055, 6.719432153894459, 8.211379071954001], "label": "S", "properties": {}}, {"species": [{"element": "S", "occu": 1}], "abc": [0.65085947, 0.53435481, 0.21937799], "xyz": [8.49885461901565, 5.47308318691134, 10.86952697435774], "label": "S", "properties": {}}, {"species": [{"element": "S", "occu": 1}], "abc": [0.65581869, 0.1711278, 0.16294726], "xyz": [8.563611593057551, 1.7527617745092, 8.07355212784876], "label": "S", "properties": {}}, {"species": [{"element": "S", "occu": 1}], "abc": [0.34667239, 0.01101016, 0.22446222000000002], "xyz": [4.52681166801905, 0.11277061692624, 11.12143545035772], "label": "S", "properties": {}}, {"species": [{"element": "S", "occu": 1}], "abc": [0.85075118, 0.04122906, 0.21793023000000003], "xyz": [11.109019579566102, 0.42228510135083996, 10.797794771995981], "label": "S", "properties": {}}, {"species": [{"element": "S", "occu": 1}], "abc": [0.15322152, 0.16070526, 0.16608486], "xyz": [2.0007505199004, 1.64600980489764, 8.22901087662636], "label": "S", "properties": {}}, {"species": [{"element": "S", "occu": 1}], "abc": [0.06068145, 0.1722506, 0.24153989], "xyz": [0.79237200254775, 1.7642619569484002, 11.967583209867142], "label": "S", "properties": {}}, {"species": [{"element": "S", "occu": 1}], "abc": [0.93958814, 0.65258934, 0.2456578], "xyz": [12.2690432753653, 6.68409019226676, 12.171613403702802], "label": "S", "properties": {}}, {"species": [{"element": "S", "occu": 1}], "abc": [0.43985386, 0.67121686, 0.24110025999999998], "xyz": [5.7435655192247, 6.874880963900041, 11.94580085082676], "label": "S", "properties": {}}, {"species": [{"element": "S", "occu": 1}], "abc": [0.56024705, 0.1464433, 0.24531747], "xyz": [7.31564715295975, 1.4999329061262, 12.154751064344222], "label": "S", "properties": {}}, {"species": [{"element": "S", "occu": 1}], "abc": [0.10445433, 0.80782293, 0.2001736], "xyz": [1.36395367343535, 8.274056887753021, 9.9180065637136], "label": "S", "properties": {}}, {"species": [{"element": "S", "occu": 1}], "abc": [0.89432406, 0.37053663, 0.18356554], "xyz": [11.6779896714537, 3.7951895666248197, 9.09512658308404], "label": "S", "properties": {}}, {"species": [{"element": "S", "occu": 1}], "abc": [0.3965589, 0.31047613, 0.20090189], "xyz": [5.1782244775155, 3.18002506057782, 9.95409116727914], "label": "S", "properties": {}}, {"species": [{"element": "S", "occu": 1}], "abc": [0.6055013, 0.86997908, 0.18326588], "xyz": [7.9065723977635, 8.91068590869912, 9.08027932127288], "label": "S", "properties": {}}, {"species": [{"element": "S", "occu": 1}], "abc": [0.15070798, 0.14043243, 0.32630716000000004], "xyz": [1.9679289785021, 1.43836708708602, 16.167549340506163], "label": "S", "properties": {}}, {"species": [{"element": "S", "occu": 1}], "abc": [0.8442154, 0.29785204, 0.26364972], "xyz": [11.023676050583, 3.0507239044245598, 13.06305953173272], "label": "S", "properties": {}}, {"species": [{"element": "S", "occu": 1}], "abc": [0.34793868, 0.28126035, 0.26653762999999997], "xyz": [4.5433467498786, 2.8807849464849, 13.20614688358838], "label": "S", "properties": {}}, {"species": [{"element": "S", "occu": 1}], "abc": [0.65275689, 0.16090118, 0.32005253], "xyz": [8.52363093014655, 1.6480164986485202, 15.85765102527578], "label": "S", "properties": {}}, {"species": [{"element": "S", "occu": 1}], "abc": [0.65619121, 0.80401243, 0.26145342000000005], "xyz": [8.56847592010295, 8.23502816920602, 12.954239398528923], "label": "S", "properties": {}}, {"species": [{"element": "S", "occu": 1}], "abc": [0.34631795, 0.64537437, 0.32258845999999997], "xyz": [4.52218342771525, 6.61019148252918, 15.983298814919959], "label": "S", "properties": {}}, {"species": [{"element": "S", "occu": 1}], "abc": [0.85503788, 0.66596254, 0.31895321], "xyz": [11.1649948580626, 6.82106404317156, 15.803182988653461], "label": "S", "properties": {}}, {"species": [{"element": "S", "occu": 1}], "abc": [0.15273565, 0.79281666, 0.26566511000000004], "xyz": [1.99440608045675, 8.12035645781724, 13.162916112462863], "label": "S", "properties": {}}, {"species": [{"element": "S", "occu": 1}], "abc": [0.06466695, 0.79929419, 0.3428926], "xyz": [0.84441424307025, 8.18670200177466, 16.9893085674076], "label": "S", "properties": {}}, {"species": [{"element": "S", "occu": 1}], "abc": [0.93926944, 0.28182789, 0.34640492], "xyz": [12.2648817242288, 2.8865979261264605, 17.163333577767922], "label": "S", "properties": {}}, {"species": [{"element": "S", "occu": 1}], "abc": [0.43707386, 0.29072569, 0.34150616], "xyz": [5.7072645711247, 2.9777328774156597, 16.92061458868016], "label": "S", "properties": {}}, {"species": [{"element": "S", "occu": 1}], "abc": [0.56336588, 0.77500304, 0.34391852], "xyz": [7.3563725076226, 7.937901986938559, 17.04013985232152], "label": "S", "properties": {}}, {"species": [{"element": "S", "occu": 1}], "abc": [0.10432228, 0.43678859, 0.30073249999999996], "xyz": [1.3622293784006, 4.47376956925626, 14.900400996544999], "label": "S", "properties": {}}, {"species": [{"element": "S", "occu": 1}], "abc": [0.89562451, 0.99717031, 0.28385463], "xyz": [11.69497081100645, 10.21343114352834, 14.064152732830381], "label": "S", "properties": {}}, {"species": [{"element": "S", "occu": 1}], "abc": [0.39716515, 0.94619537, 0.30106032000000005], "xyz": [5.18614082635925, 9.69132470442318, 14.916643502608324], "label": "S", "properties": {}}, {"species": [{"element": "S", "occu": 1}], "abc": [0.60507946, 0.50634377, 0.28514646], "xyz": [7.9010640553367, 5.18618251866078, 14.12815906742796], "label": "S", "properties": {}}, {"species": [{"element": "S", "occu": 1}], "abc": [0.15476354, 0.76545657, 0.42810823], "xyz": [2.0208860551483, 7.84012308895998, 21.21148960262398], "label": "S", "properties": {}}, {"species": [{"element": "S", "occu": 1}], "abc": [0.8473576, 0.93470362, 0.36088759000000004], "xyz": [11.064706568252001, 9.573621443338679, 17.880906804807342], "label": "S", "properties": {}}, {"species": [{"element": "S", "occu": 1}], "abc": [0.35162945, 0.90396956, 0.36697778000000003], "xyz": [4.59154043700775, 9.25883047691784, 18.182657607082284], "label": "S", "properties": {}}, {"species": [{"element": "S", "occu": 1}], "abc": [0.65708611, 0.7894087, 0.41916199], "xyz": [8.58016143033845, 8.0854507206018, 20.76823001674174], "label": "S", "properties": {}}, {"species": [{"element": "S", "occu": 1}], "abc": [0.64852701, 0.43931758, 0.35983842], "xyz": [8.46839760124395, 4.49967253183812, 17.82892355153892], "label": "S", "properties": {}}, {"species": [{"element": "S", "occu": 1}], "abc": [0.34700935, 0.26937536, 0.42735369], "xyz": [4.53121165631825, 2.7590539585190403, 21.174104389625942], "label": "S", "properties": {}}, {"species": [{"element": "S", "occu": 1}], "abc": [0.84198189, 0.30838539, 0.42119078], "xyz": [10.99451111152155, 3.15861083593146, 20.868750527620282], "label": "S", "properties": {}}, {"species": [{"element": "S", "occu": 1}], "abc": [0.15325867, 0.41837152, 0.36633263000000005], "xyz": [2.00123562069965, 4.28513431364928, 18.150692343258385], "label": "S", "properties": {}}, {"species": [{"element": "S", "occu": 1}], "abc": [0.06220987, 0.43072226, 0.43746428000000004], "xyz": [0.81232995042365, 4.41163570593564, 21.675054055231282], "label": "S", "properties": {}}, {"species": [{"element": "S", "occu": 1}], "abc": [0.93905817, 0.91105584, 0.44411652], "xyz": [12.262122982752151, 9.33141109039776, 22.004652763469522], "label": "S", "properties": {}}, {"species": [{"element": "S", "occu": 1}], "abc": [0.44153746, 0.9170533, 0.43900724999999996], "xyz": [5.7655497912467, 9.3928395586662, 21.751503629938497], "label": "S", "properties": {}}, {"species": [{"element": "S", "occu": 1}], "abc": [0.5606378, 0.41978489, 0.44799443000000005], "xyz": [7.320749525430999, 4.29961063432446, 22.196791671065185], "label": "S", "properties": {}}, {"species": [{"element": "S", "occu": 1}], "abc": [0.11729654, 0.06028805, 0.40208140000000003], "xyz": [1.5316459031833, 0.6174951673527, 19.921937579916403], "label": "S", "properties": {}}, {"species": [{"element": "S", "occu": 1}], "abc": [0.89110937, 0.63447147, 0.38493531999999997], "xyz": [11.63601258697615, 6.49851946692858, 19.07240030835832], "label": "S", "properties": {}}, {"species": [{"element": "S", "occu": 1}], "abc": [0.38962456, 0.5661004, 0.40388964000000005], "xyz": [5.0876765939012, 5.7982346623656, 20.011530494210643], "label": "S", "properties": {}}, {"species": [{"element": "S", "occu": 1}], "abc": [0.61249459, 0.14385857, 0.38587755], "xyz": [7.99789004428805, 1.4734590313879798, 19.119085002666303], "label": "S", "properties": {}}, {"species": [{"element": "S", "occu": 1}], "abc": [0.86568124, 0.57655158, 0.46427628], "xyz": [11.3039747353898, 5.905279974714119, 23.00350891634328], "label": "S", "properties": {}}, {"species": [{"element": "S", "occu": 1}], "abc": [0.33998035, 0.53656514, 0.47017594000000007], "xyz": [4.4394277123632495, 5.49572230184796, 23.295819523754446], "label": "S", "properties": {}}, {"species": [{"element": "S", "occu": 1}], "abc": [0.64999667, 0.06842264, 0.4584695200000001], "xyz": [8.48758826720965, 0.70081300585296, 22.715801227647525], "label": "S", "properties": {}}, {"species": [{"element": "S", "occu": 1}], "abc": [0.15360429, 0.04087758, 0.46862969], "xyz": [2.00574869036955, 0.41868509767811996, 23.21920743480194], "label": "S", "properties": {}}, {"species": [{"element": "S", "occu": 1}], "abc": [0.91727103, 0.26894161, 0.4851698400000001], "xyz": [11.97762879628185, 2.75461131144654, 24.038722676895844], "label": "S", "properties": {}}, {"species": [{"element": "S", "occu": 1}], "abc": [0.60943744, 0.77261595, 0.48537809], "xyz": [7.9579701005888, 7.9134524229033, 24.04904084506034], "label": "S", "properties": {}}]}, "formula": "(Li3PS4)20.0", "bandgap": 1.9431, "slab_thickness": 24.04408614246034}