{"miller": "110_0.39", "final_energy": -699.4314757, "gamma": 0.015610494697631263, "work_function": "Not calculated", "ionization_potentail": "Not calculated", "electron_affinity": "Not calculated", "is_stochiometric": true, "incar_parameters": {"SYSTEM": "unknown system", "LCOMPAT": false, "PREC": "normal", "ENMAX": 520.0, "ENAUG": 628.945, "EDIFF": 1e-05, "IALGO": 38, "IWAVPR": 11, "NBANDS": 462, "NBANDSLOW": -1, "NBANDSHIGH": -1, "NELECT": 760.0, "TURBO": 0, "IRESTART": 0, "NREBOOT": 0, "NMIN": 0, "EREF": 0.0, "ISMEAR": 0, "SIGMA": 0.05, "KSPACING": 0.5, "KGAMMA": true, "KBLOWUP": true, "LREAL": true, "ROPT": [-0.0005, -0.0005, -0.0005], "LMAXPAW": -100, "LMAXMIX": 2, "NLSPLINE": false, "ISTART": 0, "ICHARG": 2, "INIWAV": 1, "ISPIN": 1, "LNONCOLLINEAR": false, "MAGMOM": [0.6, 0.6, 0.6, 0.6, 0.6, 0.6, 0.6, 0.6, 0.6, 0.6, 0.6, 0.6, 0.6, 0.6, 0.6, 0.6, 0.6, 0.6, 0.6, 0.6, 0.6, 0.6, 0.6, 0.6, 0.6, 0.6, 0.6, 0.6, 0.6, 0.6, 0.6, 0.6, 0.6, 0.6, 0.6, 0.6, 0.6, 0.6, 0.6, 0.6, 0.6, 0.6, 0.6, 0.6, 0.6, 0.6, 0.6, 0.6, 0.6, 0.6, 0.6, 0.6, 0.6, 0.6, 0.6, 0.6, 0.6, 0.6, 0.6, 0.6, 0.6, 0.6, 0.6, 0.6, 0.6, 0.6, 0.6, 0.6, 0.6, 0.6, 0.6, 0.6, 0.6, 0.6, 0.6, 0.6, 0.6, 0.6, 0.6, 0.6, 0.6, 0.6, 0.6, 0.6, 0.6, 0.6, 0.6, 0.6, 0.6, 0.6, 0.6, 0.6, 0.6, 0.6, 0.6, 0.6, 0.6, 0.6, 0.6, 0.6, 0.6, 0.6, 0.6, 0.6, 0.6, 0.6, 0.6, 0.6, 0.6, 0.6, 0.6, 0.6, 0.6, 0.6, 0.6, 0.6, 0.6, 0.6, 0.6, 0.6, 0.6, 0.6, 0.6, 0.6, 0.6, 0.6, 0.6, 0.6, 0.6, 0.6, 0.6, 0.6, 0.6, 0.6, 0.6, 0.6, 0.6, 0.6, 0.6, 0.6, 0.6, 0.6, 0.6, 0.6, 0.6, 0.6, 0.6, 0.6, 0.6, 0.6, 0.6, 0.6, 0.6, 0.6, 0.6, 0.6, 0.6, 0.6, 0.6, 0.6], "NUPDOWN": -1.0, "LSORBIT": false, "SAXIS": [0.0, 0.0, 1.0], "LSPIRAL": false, "QSPIRAL": [0.0, 0.0, 0.0], "LZEROZ": false, "LASPH": false, "LMETAGGA": false, "NELM": 100, "NELMDL": -5, "NELMIN": 6, "ENINI": 520.0, "LDIAG": true, "LSUBROT": false, "WEIMIN": 0.001, "EBREAK": 1e-08, "DEPER": 0.3, "NRMM": 4, "TIME": 0.4, "AMIX": 0.4, "BMIX": 1.0, "AMIN": 0.1, "AMIX_MAG": 1.6, "BMIX_MAG": 1.0, "IMIX": 4, "MIXFIRST": false, "MAXMIX": -45, "WC": 100.0, "INIMIX": 1, "MIXPRE": 1, "MREMOVE": 5, "LDIPOL": false, "LMONO": false, "IDIPOL": 0, "EPSILON": 1.0, "DIPOL": [-100.0, -100.0, -100.0], "EFIELD": 0.0, "NGX": 80, "NGY": 60, "NGZ": 280, "NGXF": 160, "NGYF": 120, "NGZF": 560, "ADDGRID": false, "NSW": 150, "IBRION": 2, "MDALGO": 0, "ISIF": 2, "PSTRESS": 0.0, "EDIFFG": -0.01, "NFREE": 1, "POTIM": 0.5, "SMASS": -3.0, "SCALEE": 1.0, "TEBEG": 0.0001, "TEEND": 0.0001, "NBLOCK": 1, "KBLOCK": 150, "NPACO": 256, "APACO": 10.0, "ISYM": 0, "SYMPREC": 1e-05, "LORBIT": 11, "RWIGS": [-1.0, -1.0, -1.0], "NEDOS": 301, "EMIN": 10.0, "EMAX": -10.0, "EFERMI": 0.0, "NWRITE": 2, "LWAVE": false, "LDOWNSAMPLE": false, "LCHARG": false, "LPARD": false, "LVTOT": false, "LVHAR": false, "LELF": false, "LOPTICS": false, "STM": [0.0, 0.0, 0.0, 0.0, 0.0, 0.0, 0.0], "NPAR": 2, "NSIM": 4, "NBLK": -1, "LPLANE": true, "LSCALAPACK": true, "LSCAAWARE": false, "LSCALU": false, "LASYNC": false, "LORBITALREAL": false, "IDIOT": 3, "PHON_NSTRUCT": -1, "LMUSIC": false, "POMASS": [7.01, 30.974, 32.066], "DARWINR": [0.0, 0.0, 0.0], "DARWINV": [1.0, 1.0, 1.0], "LCORR": true, "GGA_COMPAT": true, "LBERRY": false, "ICORELEVEL": 0, "LDAU": false, "I_CONSTRAINED_M": 0, "GGA": "--", "VOSKOWN": 0, "LHFCALC": false, "PRECFOCK": "", "LSYMGRAD": false, "LHFONE": false, "LRHFCALC": false, "LTHOMAS": false, "LMODELHF": false, "LFOCKACE": false, "ENCUT4O": -1.0, "EXXOEP": 0, "FOURORBIT": 0, "AEXX": 0.0, "HFALPHA": 0.0, "MCALPHA": 0.0, "ALDAX": 1.0, "AGGAX": 1.0, "ALDAC": 1.0, "AGGAC": 1.0, "NKREDX": 1, "NKREDY": 1, "NKREDZ": 1, "SHIFTRED": false, "ODDONLY": false, "EVENONLY": false, "LMAXFOCK": 0, "NMAXFOCKAE": 0, "LFOCKAEDFT": false, "HFSCREEN": 0.0, "HFSCREENC": 0.0, "NBANDSGWLOW": 0, "LUSE_VDW": false, "Zab_VDW": -0.8491, "PARAM1": 0.1234, "PARAM2": 1.0, "PARAM3": 0.0, "MODEL_GW": 0, "MODEL_EPS0": 24.84988353, "MODEL_ALPHA": 1.0, "LEPSILON": false, "LRPA": false, "LNABLA": false, "LVEL": false, "CSHIFT": 0.1, "OMEGAMAX": -1.0, "DEG_THRESHOLD": 0.002, "RTIME": -0.1, "WPLASMAI": 0.0, "DFIELD": [0.0, 0.0, 0.0], "WPLASMA": [0.0, 0.0, 0.0, 0.0, 0.0, 0.0, 0.0, 0.0, 0.0], "NUCIND": false, "MAGPOS": [0.0, 0.0, 0.0], "LNICSALL": true, "ORBITALMAG": false, "LMAGBLOCH": false, "LCHIMAG": false, "LGAUGE": true, "MAGATOM": 0, "MAGDIPOL": [0.0, 0.0, 0.0], "AVECCONST": [0.0, 0.0, 0.0], "LFINITE_TEMPERATURE": false, "LADDER": false, "LRPAFORCE": false, "LFXC": false, "LHARTREE": true, "IBSE": 0, "KPOINT": [-1, 0, 0, 0], "LTCTC": false, "LTCTE": false, "LTETE": false, "LTRIPLET": false, "LFXCEPS": false, "LFXHEG": false, "NATURALO": 2, "LHOLEGF": false, "L2ORDER": false, "LDMP1": false, "LMP2LT": false, "LSMP2LT": false, "LGWLF": false, "ENCUTGW": -2.0, "ENCUTGWSOFT": -2.0, "ENCUTLF": -1.0, "LESF_SPLINES": false, "LMAXMP2": -1, "SCISSOR": 0.0, "NOMEGA": 0, "NOMEGAR": 0, "NBANDSGW": -1, "NBANDSO": -1, "NBANDSV": -1, "NELMGW": 1, "NELMHF": 1, "DIM": 3, "IESPILON": 4, "ANTIRES": 0, "OMEGAMIN": -30.0, "OMEGATL": -200.0, "OMEGAGRID": 0, "LSELFENERGY": false, "LSPECTRAL": false, "LSPECTRALGW": false, "LSINGLES": false, "LFERMIGW": false, "ODDONLYGW": false, "EVENONLYGW": false, "NKREDLFX": 1, "NKREDLFY": 1, "NKREDLFZ": 1, "MAXMEM": 2800, "TELESCOPE": 0, "NTAUPAR": -1, "NOMEGAPAR": -1, "DAMP_NEWTON": 0.80000001, "LAMBDA": 1.0, "OFIELD_KAPPA": 0.0, "OFIELD_K": [0.0, 0.0, 0.0], "OFIELD_Q6_NEAR": 0.0, "OFIELD_Q6_FAR": 0.0, "OFIELD_A": 0.0, "KPOINTS_OPT_MODE": 1, "LKPOINTS_OPT": false, "@module": "pymatgen.io.vasp.inputs", "@class": "Incar"}, "relaxed_structures": {"@module": "pymatgen.core.structure", "@class": "Structure", "charge": 0, "lattice": {"matrix": [[13.057895, 0.0, 0.0], [0.0, 10.242414, 0.0], [0.0, 0.0, 49.547026]], "a": 13.057895, "b": 10.242414, "c": 49.547026, "alpha": 90.0, "beta": 90.0, "gamma": 90.0, "volume": 6626.635607229017}, "sites": [{"species": [{"element": "Li", "occu": 1}], "abc": [0.1596608, 0.82265984, 0.03160538], "xyz": [2.084833962016, 8.42602266245376, 1.5659525845998803], "label": "Li", "properties": {}}, {"species": [{"element": "Li", "occu": 1}], "abc": [0.84871906, 0.71095905, 0.04863171999999999], "xyz": [11.0824843699787, 7.281936927146701, 2.4095570952647196], "label": "Li", "properties": {}}, {"species": [{"element": "Li", "occu": 1}], "abc": [0.32873831, 0.58220985, 0.07824956], "xyz": [4.29263033445745, 5.9632343185779, 3.8770329838085598], "label": "Li", "properties": {}}, {"species": [{"element": "Li", "occu": 1}], "abc": [0.67182513, 0.86750306, 0.02621733], "xyz": [8.77262200590135, 8.88532548678684, 1.2989907311605802], "label": "Li", "properties": {}}, {"species": [{"element": "Li", "occu": 1}], "abc": [0.66577424, 0.21271504, 0.047572829999999997], "xyz": [8.6936101196248, 2.17871550370656, 2.35709224490358], "label": "Li", "properties": {}}, {"species": [{"element": "Li", "occu": 1}], "abc": [0.3092914, 0.3173402, 0.03332678], "xyz": [4.038694625603, 3.2503297072428, 1.65124283515628], "label": "Li", "properties": {}}, {"species": [{"element": "Li", "occu": 1}], "abc": [0.8436477, 0.35735663, 0.02335916], "xyz": [11.0162630835915, 3.66019455010482, 1.1573769078581602], "label": "Li", "properties": {}}, {"species": [{"element": "Li", "occu": 1}], "abc": [0.17197653, 0.08559235, 0.07924461], "xyz": [2.24565147120435, 0.8766722839329, 3.92633475202986], "label": "Li", "properties": {}}, {"species": [{"element": "Li", "occu": 1}], "abc": [0.48468366, 0.79163008, 0.05688280999999999], "xyz": [6.3289483404957005, 8.108203014213121, 2.81837406602306], "label": "Li", "properties": {}}, {"species": [{"element": "Li", "occu": 1}], "abc": [0.49049452, 0.35825935, 0.002293459999999997], "xyz": [6.4048259402354, 3.6694405820708997, 0.11363412224995986], "label": "Li", "properties": {}}, {"species": [{"element": "Li", "occu": 1}], "abc": [0.0228912, 0.2698324, 0.054961079999999995], "xyz": [0.298910886024, 2.7637351514136, 2.72315805974808], "label": "Li", "properties": {}}, {"species": [{"element": "Li", "occu": 1}], "abc": [0.1689327, 0.45739534, 0.13682421], "xyz": [2.2059054586665, 4.68483243395076, 6.779232690299461], "label": "Li", "properties": {}}, {"species": [{"element": "Li", "occu": 1}], "abc": [0.83518556, 0.33615691, 0.15157141], "xyz": [10.9057653479962, 3.44305824118074, 7.50991259212666], "label": "Li", "properties": {}}, {"species": [{"element": "Li", "occu": 1}], "abc": [0.32332626, 0.22512373, 0.17929188999999998], "xyz": [4.2219603538227, 2.30581044388422, 8.88337993541914], "label": "Li", "properties": {}}, {"species": [{"element": "Li", "occu": 1}], "abc": [0.66858712, 0.5714462, 0.10524833], "xyz": [8.7303404113124, 5.8529885591268, 5.21474174296658], "label": "Li", "properties": {}}, {"species": [{"element": "Li", "occu": 1}], "abc": [0.66899599, 0.84320034, 0.14759519999999998], "xyz": [8.73567939284105, 8.63640696722076, 7.3129032118751995], "label": "Li", "properties": {}}, {"species": [{"element": "Li", "occu": 1}], "abc": [0.33656667, 0.96106268, 0.13252453], "xyz": [4.39485223735965, 9.84360184850952, 6.56619633354778], "label": "Li", "properties": {}}, {"species": [{"element": "Li", "occu": 1}], "abc": [0.8251778, 0.08466582, 0.10343965], "xyz": [10.775085068731, 0.86718238008948, 5.1251270279809], "label": "Li", "properties": {}}, {"species": [{"element": "Li", "occu": 1}], "abc": [0.16334944, 0.74425414, 0.17707248], "xyz": [2.1329998358288003, 7.62295902309396, 8.77341477044448], "label": "Li", "properties": {}}, {"species": [{"element": "Li", "occu": 1}], "abc": [0.01188261, 0.55214425, 0.0928894], "xyz": [0.15516187370595, 5.6552899962195005, 4.6023935169244], "label": "Li", "properties": {}}, {"species": [{"element": "Li", "occu": 1}], "abc": [0.49354224, 0.40813503, 0.15426819], "xyz": [6.4446227479848, 4.18028794516242, 7.64353002090294], "label": "Li", "properties": {}}, {"species": [{"element": "Li", "occu": 1}], "abc": [0.50418115, 0.14105562, 0.09137125], "xyz": [6.5835445176792495, 1.44475005706668, 4.527173699402501], "label": "Li", "properties": {}}, {"species": [{"element": "Li", "occu": 1}], "abc": [0.98614665, 0.88946082, 0.12874541], "xyz": [12.87699941030175, 9.11022595521948, 6.37895217665066], "label": "Li", "properties": {}}, {"species": [{"element": "Li", "occu": 1}], "abc": [0.16611441, 0.08339282, 0.23863636], "xyz": [2.1691045237669497, 0.8541437870674801, 11.823721933465361], "label": "Li", "properties": {}}, {"species": [{"element": "Li", "occu": 1}], "abc": [0.83785538, 0.96073853, 0.25292884], "xyz": [10.9406275772251, 9.84028177001142, 12.53187181162984], "label": "Li", "properties": {}}, {"species": [{"element": "Li", "occu": 1}], "abc": [0.32920234, 0.86564893, 0.27836341], "xyz": [4.2986895894743, 8.86633471971702, 13.79207911271866], "label": "Li", "properties": {}}, {"species": [{"element": "Li", "occu": 1}], "abc": [0.66874793, 0.18476031, 0.20732001], "xyz": [8.73244025140735, 1.8923915857883402, 10.27208992579026], "label": "Li", "properties": {}}, {"species": [{"element": "Li", "occu": 1}], "abc": [0.66288725, 0.46471959, 0.24993181999999997], "xyz": [8.65591210733875, 4.75985043469026, 12.383378383767319], "label": "Li", "properties": {}}, {"species": [{"element": "Li", "occu": 1}], "abc": [0.33540738, 0.58882034, 0.23451568], "xyz": [4.3797143502650995, 6.03094169390076, 11.61955449436768], "label": "Li", "properties": {}}, {"species": [{"element": "Li", "occu": 1}], "abc": [0.82815199, 0.70420709, 0.20477377], "xyz": [10.81392172946105, 7.21278055751526, 10.14593130630802], "label": "Li", "properties": {}}, {"species": [{"element": "Li", "occu": 1}], "abc": [0.16499898, 0.36918162, 0.27737744999999997], "xyz": [2.1545393559471, 3.78131099323068, 13.743227726963699], "label": "Li", "properties": {}}, {"species": [{"element": "Li", "occu": 1}], "abc": [0.00610735, 0.15770518, 0.19407528], "xyz": [0.07974913502825, 1.61528174350452, 9.61585294411728], "label": "Li", "properties": {}}, {"species": [{"element": "Li", "occu": 1}], "abc": [0.49902096, 0.02598738, 0.24244405000000002], "xyz": [6.5161632984792, 0.26617350473532003, 12.012381648895301], "label": "Li", "properties": {}}, {"species": [{"element": "Li", "occu": 1}], "abc": [0.50783285, 0.75806997, 0.19122833], "xyz": [6.63122803285075, 7.7644664737075795, 9.474795038446581], "label": "Li", "properties": {}}, {"species": [{"element": "Li", "occu": 1}], "abc": [0.9913592, 0.51918712, 0.23151592], "xyz": [12.945064340884, 5.31772942650768, 11.47092530765392], "label": "Li", "properties": {}}, {"species": [{"element": "Li", "occu": 1}], "abc": [0.17115876, 0.70789941, 0.33818771999999997], "xyz": [2.2349731164102, 7.2505988275757405, 16.756195755720718], "label": "Li", "properties": {}}, {"species": [{"element": "Li", "occu": 1}], "abc": [0.83651844, 0.58897771, 0.35296114], "xyz": [10.9231699550838, 6.03255354259194, 17.48817478056964], "label": "Li", "properties": {}}, {"species": [{"element": "Li", "occu": 1}], "abc": [0.33234837, 0.4764366, 0.38085111], "xyz": [4.33977011888115, 4.8798609019524, 18.87003984929886], "label": "Li", "properties": {}}, {"species": [{"element": "Li", "occu": 1}], "abc": [0.67231083, 0.82245645, 0.30643483], "xyz": [8.77896422550285, 8.4239394578703, 15.18293448931558], "label": "Li", "properties": {}}, {"species": [{"element": "Li", "occu": 1}], "abc": [0.66468443, 0.09146741, 0.35181682], "xyz": [8.67937949507485, 0.93684708072774, 17.43147712777732], "label": "Li", "properties": {}}, {"species": [{"element": "Li", "occu": 1}], "abc": [0.32876343, 0.20798641, 0.33785227], "xyz": [4.29295834877985, 2.1302829175937403, 16.73957520584902], "label": "Li", "properties": {}}, {"species": [{"element": "Li", "occu": 1}], "abc": [0.82899685, 0.33182716, 0.30553445], "xyz": [10.82495382263075, 3.39871114916424, 15.138323338045701], "label": "Li", "properties": {}}, {"species": [{"element": "Li", "occu": 1}], "abc": [0.16278101, 0.98612137, 0.380575], "xyz": [2.12557733657395, 10.10026332578718, 18.85635941995], "label": "Li", "properties": {}}, {"species": [{"element": "Li", "occu": 1}], "abc": [0.00868214, 0.7805382, 0.29466974], "xyz": [0.1133704724953, 7.9945953872148, 14.600009269193242], "label": "Li", "properties": {}}, {"species": [{"element": "Li", "occu": 1}], "abc": [0.50438495, 0.64282308, 0.33228703], "xyz": [6.586205716680251, 6.58406011411512, 16.46383411487278], "label": "Li", "properties": {}}, {"species": [{"element": "Li", "occu": 1}], "abc": [0.49015608, 0.29412309, 0.29474201], "xyz": [6.4004066262516, 3.01253045473926, 14.603590032762261], "label": "Li", "properties": {}}, {"species": [{"element": "Li", "occu": 1}], "abc": [0.99663314, 0.14627756, 0.33161285], "xyz": [13.0139308956403, 1.49823532842984, 16.4304305008841], "label": "Li", "properties": {}}, {"species": [{"element": "Li", "occu": 1}], "abc": [0.15437171, 0.34149956, 0.44227789], "xyz": [2.01576958015045, 3.49777987433784, 21.913554115055142], "label": "Li", "properties": {}}, {"species": [{"element": "Li", "occu": 1}], "abc": [0.84157093, 0.22942905, 0.45555942], "xyz": [10.98914483899235, 2.3499073137267, 22.57161442728492], "label": "Li", "properties": {}}, {"species": [{"element": "Li", "occu": 1}], "abc": [0.33104656, 0.18102923, 0.46041534], "xyz": [4.3227712205912, 1.8541763197612202, 22.81221082177884], "label": "Li", "properties": {}}, {"species": [{"element": "Li", "occu": 1}], "abc": [0.67238999, 0.46901623, 0.40717213], "xyz": [8.77999788847105, 4.8038584003792195, 20.17416811158538], "label": "Li", "properties": {}}, {"species": [{"element": "Li", "occu": 1}], "abc": [0.69378429, 0.74011203, 0.45115472], "xyz": [9.05936241146955, 7.58053381764042, 22.35337464186272], "label": "Li", "properties": {}}, {"species": [{"element": "Li", "occu": 1}], "abc": [0.33388766, 0.84164814, 0.43716019], "xyz": [4.3598700060757, 8.62050869220996, 21.65998730009494], "label": "Li", "properties": {}}, {"species": [{"element": "Li", "occu": 1}], "abc": [0.83354641, 0.97940021, 0.40515469], "xyz": [10.88436149940695, 10.03142242250694, 20.07420995945194], "label": "Li", "properties": {}}, {"species": [{"element": "Li", "occu": 1}], "abc": [0.15824667, 0.69773543, 0.46007564], "xyz": [2.06636840095965, 7.146495136528021, 22.79537969704664], "label": "Li", "properties": {}}, {"species": [{"element": "Li", "occu": 1}], "abc": [0.00408917, 0.40984282, 0.39548334], "xyz": [0.05339595249715, 4.19777983736748, 19.59502332954684], "label": "Li", "properties": {}}, {"species": [{"element": "Li", "occu": 1}], "abc": [0.51601594, 0.26249724, 0.4286706], "xyz": [6.7380819628463, 2.68860540593736, 21.2393533636356], "label": "Li", "properties": {}}, {"species": [{"element": "Li", "occu": 1}], "abc": [0.49791493, 0.91665878, 0.39424172], "xyz": [6.501720874872349, 9.38879872149492, 19.53350475112472], "label": "Li", "properties": {}}, {"species": [{"element": "Li", "occu": 1}], "abc": [0.97780105, 0.78335013, 0.42934848], "xyz": [12.76802344178975, 8.02339633841382, 21.27294030162048], "label": "Li", "properties": {}}, {"species": [{"element": "Li", "occu": 1}], "abc": [0.51085091, 0.69787362, 0.48244677999999996], "xyz": [6.6706375434344505, 7.14791053571868, 23.90380315227628], "label": "Li", "properties": {}}, {"species": [{"element": "P", "occu": 1}], "abc": [0.08674432, 0.54742801, 0.03129501999999999], "xyz": [1.1326982224064, 5.60698431361614, 1.5505751696105197], "label": "P", "properties": {}}, {"species": [{"element": "P", "occu": 1}], "abc": [0.91153574, 0.98926729, 0.04921333], "xyz": [11.9027379816673, 10.13248514083806, 2.4383741410565802], "label": "P", "properties": {}}, {"species": [{"element": "P", "occu": 1}], "abc": [0.40612916, 0.05248866, 0.033409209999999995], "xyz": [5.3031919277182, 0.53761058602524, 1.65532699650946], "label": "P", "properties": {}}, {"species": [{"element": "P", "occu": 1}], "abc": [0.5897062, 0.48847721, 0.04837061999999999], "xyz": [7.700321640448999, 5.00318581438494, 2.3966203667761197], "label": "P", "properties": {}}, {"species": [{"element": "P", "occu": 1}], "abc": [0.08633263, 0.17967388, 0.13313921], "xyz": [1.1273224176138499, 1.84029426394632, 6.59665189948946], "label": "P", "properties": {}}, {"species": [{"element": "P", "occu": 1}], "abc": [0.90973413, 0.6147929, 0.15115323], "xyz": [11.87921274745635, 6.2969634060606, 7.489193016793981], "label": "P", "properties": {}}, {"species": [{"element": "P", "occu": 1}], "abc": [0.41025813, 0.68035909, 0.13304111999999998], "xyz": [5.35710758443635, 6.968519468443261, 6.59179183170912], "label": "P", "properties": {}}, {"species": [{"element": "P", "occu": 1}], "abc": [0.58702255, 0.11631586, 0.15199806], "xyz": [7.665278820532251, 1.19135519288604, 7.5310518307695595], "label": "P", "properties": {}}, {"species": [{"element": "P", "occu": 1}], "abc": [0.08779913, 0.81023757, 0.23337589999999997], "xyz": [1.14647182063135, 8.298788630293979, 11.563081785073399], "label": "P", "properties": {}}, {"species": [{"element": "P", "occu": 1}], "abc": [0.90996028, 0.24169029, 0.25193132], "xyz": [11.8821657904106, 2.47549200996006, 12.482447662254321], "label": "P", "properties": {}}, {"species": [{"element": "P", "occu": 1}], "abc": [0.40900815, 0.30836302, 0.23325954999999998], "xyz": [5.340785476844251, 3.15838171313028, 11.5573169885983], "label": "P", "properties": {}}, {"species": [{"element": "P", "occu": 1}], "abc": [0.58914492, 0.74512739, 0.25221729], "xyz": [7.692992505143399, 7.631903211119459, 12.49661662527954], "label": "P", "properties": {}}, {"species": [{"element": "P", "occu": 1}], "abc": [0.09016023, 0.43620716, 0.33362934], "xyz": [1.17730281651585, 4.46781432248424, 16.53034158334284], "label": "P", "properties": {}}, {"species": [{"element": "P", "occu": 1}], "abc": [0.91032635, 0.8707077, 0.35170095], "xyz": [11.88694589403325, 8.9181487363878, 17.425736113874702], "label": "P", "properties": {}}, {"species": [{"element": "P", "occu": 1}], "abc": [0.41091396, 0.93612803, 0.33366028], "xyz": [5.3656713437142, 9.58821084026442, 16.53187456832728], "label": "P", "properties": {}}, {"species": [{"element": "P", "occu": 1}], "abc": [0.58941572, 0.37227929, 0.35247491], "xyz": [7.6965285831094, 3.8130386118060597, 17.46408353011766], "label": "P", "properties": {}}, {"species": [{"element": "P", "occu": 1}], "abc": [0.09000961, 0.06606393, 0.43768618], "xyz": [1.17533603637095, 0.6766541215270201, 21.68604854030068], "label": "P", "properties": {}}, {"species": [{"element": "P", "occu": 1}], "abc": [0.91761535, 0.50356965, 0.45349468], "xyz": [11.982124890688251, 5.1577688331350995, 22.469312700821682], "label": "P", "properties": {}}, {"species": [{"element": "P", "occu": 1}], "abc": [0.41146477, 0.56495674, 0.43705435], "xyz": [5.37286376285915, 5.78652082317036, 21.6547432428631], "label": "P", "properties": {}}, {"species": [{"element": "P", "occu": 1}], "abc": [0.59605653, 0.0033911, 0.45195888], "xyz": [7.78324358280435, 0.034733050115400003, 22.393218378290882], "label": "P", "properties": {}}, {"species": [{"element": "S", "occu": 1}], "abc": [0.13690108, 0.36396872, 0.0218506], "xyz": [1.7876399280266002, 3.7279183132900804, 1.0826322463156002], "label": "S", "properties": {}}, {"species": [{"element": "S", "occu": 1}], "abc": [0.84625522, 0.17346486, 0.05740033], "xyz": [11.0503118059619, 1.77669891057204, 2.8440156429185803], "label": "S", "properties": {}}, {"species": [{"element": "S", "occu": 1}], "abc": [0.34323965, 0.15018365, 0.06632278], "xyz": [4.48198730953675, 1.5382431193311001, 3.28609650505228], "label": "S", "properties": {}}, {"species": [{"element": "S", "occu": 1}], "abc": [0.66084899, 0.4019774, 0.0153474], "xyz": [8.62929672227605, 4.1172189494436, 0.7604180268324001], "label": "S", "properties": {}}, {"species": [{"element": "S", "occu": 1}], "abc": [0.65286679, 0.66941903, 0.057958029999999994], "xyz": [8.52506599280705, 6.856466844738421, 2.87164801931878], "label": "S", "properties": {}}, {"species": [{"element": "S", "occu": 1}], "abc": [0.35040947, 0.87124536, 0.027040149999999995], "xyz": [4.57561006626565, 8.92365567269904, 1.3397590150938998], "label": "S", "properties": {}}, {"species": [{"element": "S", "occu": 1}], "abc": [0.84798646, 0.89807124, 0.016853999999999997], "xyz": [11.0729181561017, 9.19841744157336, 0.8350655762039999], "label": "S", "properties": {}}, {"species": [{"element": "S", "occu": 1}], "abc": [0.15761901, 0.63376136, 0.06463614], "xyz": [2.05817248258395, 6.491246226323041, 3.20252850911964], "label": "S", "properties": {}}, {"species": [{"element": "S", "occu": 1}], "abc": [0.06214467, 0.0292306, 0.04136424999999999], "xyz": [0.81147857566965, 0.2993919066684, 2.0494755702205], "label": "S", "properties": {}}, {"species": [{"element": "S", "occu": 1}], "abc": [0.93894071, 0.50903108, 0.04799178999999999], "xyz": [12.26058920240545, 5.21370706022712, 2.3778504669165397], "label": "S", "properties": {}}, {"species": [{"element": "S", "occu": 1}], "abc": [0.43955136, 0.51902476, 0.03722618999999999], "xyz": [5.7396155059872, 5.31606646817064, 1.8444470038109397], "label": "S", "properties": {}}, {"species": [{"element": "S", "occu": 1}], "abc": [0.5587826, 0.02269667, 0.046404799999999996], "xyz": [7.296524518627001, 0.23246869056137998, 2.2992198321248], "label": "S", "properties": {}}, {"species": [{"element": "S", "occu": 1}], "abc": [0.08487692, 0.67014799, 0.0003636399999999984], "xyz": [1.1083139092834, 6.86393315484786, 0.018017280534639923], "label": "S", "properties": {}}, {"species": [{"element": "S", "occu": 1}], "abc": [0.39023532, 0.16719502, 9.99999999999994e-05], "xyz": [5.0956518338514, 1.71248061357828, 0.00495470259999997], "label": "S", "properties": {}}, {"species": [{"element": "S", "occu": 1}], "abc": [0.15202192, 0.00169095, 0.12456293999999998], "xyz": [1.9850862690584001, 0.017319409953300002, 6.1717232268164395], "label": "S", "properties": {}}, {"species": [{"element": "S", "occu": 1}], "abc": [0.84794888, 0.79550324, 0.15897466999999998], "xyz": [11.072427440407601, 8.14787352242136, 7.876722107831419], "label": "S", "properties": {}}, {"species": [{"element": "S", "occu": 1}], "abc": [0.34658765, 0.77748722, 0.16526326], "xyz": [4.525705141996751, 7.96334598694908, 8.18830304006476], "label": "S", "properties": {}}, {"species": [{"element": "S", "occu": 1}], "abc": [0.6488464, 0.03355384, 0.1179123], "xyz": [8.472568162328, 0.34367232056976, 5.842203793819801], "label": "S", "properties": {}}, {"species": [{"element": "S", "occu": 1}], "abc": [0.65401169, 0.29001344, 0.16308284], "xyz": [8.540015976792551, 2.97043771804416, 8.080269713633841], "label": "S", "properties": {}}, {"species": [{"element": "S", "occu": 1}], "abc": [0.35034309, 0.49870429, 0.12551342999999998], "xyz": [4.57474328319555, 5.10793580175606, 6.21881717955918], "label": "S", "properties": {}}, {"species": [{"element": "S", "occu": 1}], "abc": [0.84538599, 0.51808408, 0.11900393000000001], "xyz": [11.038961491891051, 5.30643163416912, 5.896290813812181], "label": "S", "properties": {}}, {"species": [{"element": "S", "occu": 1}], "abc": [0.14500145, 0.2691179, 0.166843], "xyz": [1.89341370894775, 2.7564169466106003, 8.266574458918], "label": "S", "properties": {}}, {"species": [{"element": "S", "occu": 1}], "abc": [0.06003115, 0.65399107, 0.13925149], "xyz": [0.78388045342925, 6.69844729124298, 6.899497195568741], "label": "S", "properties": {}}, {"species": [{"element": "S", "occu": 1}], "abc": [0.93511204, 0.13674754, 0.14268751], "xyz": [12.2105948315558, 1.40062491816156, 7.06974176784526], "label": "S", "properties": {}}, {"species": [{"element": "S", "occu": 1}], "abc": [0.43725119, 0.16228341, 0.14128125], "xyz": [5.70958012764505, 1.66217387055174, 7.0000657670625], "label": "S", "properties": {}}, {"species": [{"element": "S", "occu": 1}], "abc": [0.56217354, 0.64568742, 0.14400177], "xyz": [7.3408030570983, 6.61339787023188, 7.134859442236021], "label": "S", "properties": {}}, {"species": [{"element": "S", "occu": 1}], "abc": [0.1089814, 0.30244404, 0.10084106], "xyz": [1.423067678153, 3.0977570695125602, 4.99637462168756], "label": "S", "properties": {}}, {"species": [{"element": "S", "occu": 1}], "abc": [0.88411679, 0.87804153, 0.08328899], "xyz": [11.54470421155705, 8.99326485945342, 4.12672175304374], "label": "S", "properties": {}}, {"species": [{"element": "S", "occu": 1}], "abc": [0.38838296, 0.79408252, 0.09955259], "xyz": [5.0714639114692, 8.13332192000328, 4.93253476509734], "label": "S", "properties": {}}, {"species": [{"element": "S", "occu": 1}], "abc": [0.60969546, 0.37283334, 0.08155359999999999], "xyz": [7.9613392986567, 3.81871342128276, 4.0407383395936], "label": "S", "properties": {}}, {"species": [{"element": "S", "occu": 1}], "abc": [0.15485591, 0.63684753, 0.22192454], "xyz": [2.0220922129094503, 6.522856057137421, 10.99570095341804], "label": "S", "properties": {}}, {"species": [{"element": "S", "occu": 1}], "abc": [0.84616306, 0.42135227, 0.25931813], "xyz": [11.0491083903587, 4.31566438917978, 12.848442129381379], "label": "S", "properties": {}}, {"species": [{"element": "S", "occu": 1}], "abc": [0.34838882, 0.40112318, 0.2662409], "xyz": [4.5492246307338995, 4.10846967455652, 13.1914447945634], "label": "S", "properties": {}}, {"species": [{"element": "S", "occu": 1}], "abc": [0.65066796, 0.65493746, 0.21885999], "xyz": [8.4963539015442, 6.7081406094284395, 10.843861614889741], "label": "S", "properties": {}}, {"species": [{"element": "S", "occu": 1}], "abc": [0.65373675, 0.9223846, 0.2616637], "xyz": [8.53642583914125, 9.4474449404244, 12.9646581471562], "label": "S", "properties": {}}, {"species": [{"element": "S", "occu": 1}], "abc": [0.34298007, 0.13073642, 0.22435248], "xyz": [4.47859774115265, 1.3390565385178799, 11.11599815972448], "label": "S", "properties": {}}, {"species": [{"element": "S", "occu": 1}], "abc": [0.84618499, 0.14168988, 0.21995581], "xyz": [11.04939474999605, 1.45124641057032, 10.89815623692106], "label": "S", "properties": {}}, {"species": [{"element": "S", "occu": 1}], "abc": [0.14716354, 0.89257955, 0.26781713], "xyz": [1.9216460531483002, 9.1421692790337, 13.269542303355381], "label": "S", "properties": {}}, {"species": [{"element": "S", "occu": 1}], "abc": [0.05966876, 0.28172575, 0.23984465], "xyz": [0.7791484028602, 2.8855517659605, 11.8835891095109], "label": "S", "properties": {}}, {"species": [{"element": "S", "occu": 1}], "abc": [0.93793555, 0.76211252, 0.24369954], "xyz": [12.24746392866725, 7.80587194442328, 12.07458744456804], "label": "S", "properties": {}}, {"species": [{"element": "S", "occu": 1}], "abc": [0.43904572, 0.7893035, 0.2406742], "xyz": [5.7330129119594, 8.084373218649, 11.9246908449292], "label": "S", "properties": {}}, {"species": [{"element": "S", "occu": 1}], "abc": [0.55911529, 0.26394791, 0.24458863999999997], "xyz": [7.30086874971455, 2.70346376865474, 12.11863970538464], "label": "S", "properties": {}}, {"species": [{"element": "S", "occu": 1}], "abc": [0.10431266, 0.93801153, 0.20186724], "xyz": [1.3621037614507001, 9.60750242703342, 10.00192138882824], "label": "S", "properties": {}}, {"species": [{"element": "S", "occu": 1}], "abc": [0.89433661, 0.49891041, 0.18458982], "xyz": [11.678153548035949, 5.1100469681297405, 9.14587661087532], "label": "S", "properties": {}}, {"species": [{"element": "S", "occu": 1}], "abc": [0.39391093, 0.42825512, 0.20040811], "xyz": [5.14364756329235, 4.38636623665968, 9.929625836780861], "label": "S", "properties": {}}, {"species": [{"element": "S", "occu": 1}], "abc": [0.60256144, 0.98871228, 0.18377878], "xyz": [7.8681840145688, 10.12680049864392, 9.10569199090828], "label": "S", "properties": {}}, {"species": [{"element": "S", "occu": 1}], "abc": [0.15634911, 0.26247739, 0.32182098], "xyz": [2.0415902617234503, 2.6884020940194597, 15.94527246340548], "label": "S", "properties": {}}, {"species": [{"element": "S", "occu": 1}], "abc": [0.84960335, 0.05303653, 0.35792805], "xyz": [11.09403133594825, 0.54322209738342, 17.7342703994793], "label": "S", "properties": {}}, {"species": [{"element": "S", "occu": 1}], "abc": [0.34787371, 0.01828345, 0.36758033], "xyz": [4.54249837844045, 0.1872666642483, 18.212512167598582], "label": "S", "properties": {}}, {"species": [{"element": "S", "occu": 1}], "abc": [0.65293223, 0.2771213, 0.3198665], "xyz": [8.52592050145585, 2.8383910828182004, 15.848433792029], "label": "S", "properties": {}}, {"species": [{"element": "S", "occu": 1}], "abc": [0.64962293, 0.55330663, 0.36006752], "xyz": [8.48270800953235, 5.66719557340482, 17.84027477519552], "label": "S", "properties": {}}, {"species": [{"element": "S", "occu": 1}], "abc": [0.34509166, 0.76162809, 0.32247069], "xyz": [4.5061706616557, 7.80091021180926, 15.97746366166794], "label": "S", "properties": {}}, {"species": [{"element": "S", "occu": 1}], "abc": [0.84764928, 0.77054986, 0.31955373], "xyz": [11.0685152950656, 7.892290673762041, 15.83293696870698], "label": "S", "properties": {}}, {"species": [{"element": "S", "occu": 1}], "abc": [0.15232569, 0.51696635, 0.3676819], "xyz": [1.9890528658225501, 5.2949833807689, 18.2175446590294], "label": "S", "properties": {}}, {"species": [{"element": "S", "occu": 1}], "abc": [0.06248228, 0.90587473, 0.34115924999999997], "xyz": [0.8158870516006, 9.27834401679822, 16.9034262298905], "label": "S", "properties": {}}, {"species": [{"element": "S", "occu": 1}], "abc": [0.94024648, 0.39018048, 0.3442342], "xyz": [12.2776398099596, 3.99639001087872, 17.0557808574892], "label": "S", "properties": {}}, {"species": [{"element": "S", "occu": 1}], "abc": [0.43711458, 0.40624282, 0.34159853], "xyz": [5.707796288609099, 4.16090714696748, 16.92519124747178], "label": "S", "properties": {}}, {"species": [{"element": "S", "occu": 1}], "abc": [0.56069925, 0.8909657, 0.34443885], "xyz": [7.32155193307875, 9.125639559199799, 17.065920656360102], "label": "S", "properties": {}}, {"species": [{"element": "S", "occu": 1}], "abc": [0.10582547, 0.56348365, 0.30186489], "xyz": [1.38185787558565, 5.7714328255311, 14.95650755331714], "label": "S", "properties": {}}, {"species": [{"element": "S", "occu": 1}], "abc": [0.89531702, 0.12663224, 0.28544462], "xyz": [11.6909556388729, 1.2970198278273601, 14.14293200870012], "label": "S", "properties": {}}, {"species": [{"element": "S", "occu": 1}], "abc": [0.39551913, 0.06263384, 0.30163959], "xyz": [5.16464727003135, 0.64152171968976, 14.945344608359342], "label": "S", "properties": {}}, {"species": [{"element": "S", "occu": 1}], "abc": [0.60319007, 0.62200248, 0.28447801], "xyz": [7.87639259910265, 6.3708069091867205, 14.09503935789826], "label": "S", "properties": {}}, {"species": [{"element": "S", "occu": 1}], "abc": [0.15412782, 0.88439882, 0.42670721], "xyz": [2.0125848901389, 9.05837885555148, 21.142073228257463], "label": "S", "properties": {}}, {"species": [{"element": "S", "occu": 1}], "abc": [0.86538142, 0.68651623, 0.46242558], "xyz": [11.3000597173109, 7.031583445379219, 22.91181223532508], "label": "S", "properties": {}}, {"species": [{"element": "S", "occu": 1}], "abc": [0.34012771, 0.65388511, 0.46978146], "xyz": [4.44135192377045, 6.697362005055541, 23.27627421293796], "label": "S", "properties": {}}, {"species": [{"element": "S", "occu": 1}], "abc": [0.66110857, 0.91072561, 0.41871982], "xyz": [8.63268629066015, 9.32802873802254, 20.74632180825532], "label": "S", "properties": {}}, {"species": [{"element": "S", "occu": 1}], "abc": [0.64872606, 0.18517203, 0.45921365], "xyz": [8.4709967752437, 1.89660859248042, 22.7526706561049], "label": "S", "properties": {}}, {"species": [{"element": "S", "occu": 1}], "abc": [0.34797599, 0.38308379, 0.42837590999999997], "xyz": [4.543833939941051, 3.92370277386906, 21.22475235054366], "label": "S", "properties": {}}, {"species": [{"element": "S", "occu": 1}], "abc": [0.84262368, 0.41096373, 0.42134893], "xyz": [11.0028915379536, 4.209260661644221, 20.876586389782183], "label": "S", "properties": {}}, {"species": [{"element": "S", "occu": 1}], "abc": [0.15629367, 0.14479583, 0.47121309], "xyz": [2.04086633202465, 1.48305883633362, 23.34720722177034], "label": "S", "properties": {}}, {"species": [{"element": "S", "occu": 1}], "abc": [0.06354141, 0.54083263, 0.43603429], "xyz": [0.8297170599319501, 5.53943170116882, 21.60420230352154], "label": "S", "properties": {}}, {"species": [{"element": "S", "occu": 1}], "abc": [0.93921545, 0.02426635, 0.4450987], "xyz": [12.26417672847775, 0.2485460029689, 22.0533168614662], "label": "S", "properties": {}}, {"species": [{"element": "S", "occu": 1}], "abc": [0.4430513, 0.03024504, 0.43886387], "xyz": [5.7853173550134995, 0.30978222112656, 21.74439957735062], "label": "S", "properties": {}}, {"species": [{"element": "S", "occu": 1}], "abc": [0.56218604, 0.53643461, 0.44799825], "xyz": [7.340966280785801, 5.494385359548541, 22.1969809407045], "label": "S", "properties": {}}, {"species": [{"element": "S", "occu": 1}], "abc": [0.11491604, 0.18601946, 0.4048871], "xyz": [1.5005615841358, 1.90528832137644, 20.060951670764602], "label": "S", "properties": {}}, {"species": [{"element": "S", "occu": 1}], "abc": [0.88827996, 0.7581263, 0.38514618], "xyz": [11.5990664482842, 7.7650434288882, 19.08284779426068], "label": "S", "properties": {}}, {"species": [{"element": "S", "occu": 1}], "abc": [0.39073459, 0.67836229, 0.40357795], "xyz": [5.10217124908805, 6.94806741616806, 19.996087181676703], "label": "S", "properties": {}}, {"species": [{"element": "S", "occu": 1}], "abc": [0.61136189, 0.25640054, 0.3855691], "xyz": [7.983099366621549, 2.62616048050356, 19.1038022224966], "label": "S", "properties": {}}, {"species": [{"element": "S", "occu": 1}], "abc": [0.92375775, 0.38386996, 0.48500361999999997], "xyz": [12.06233170493625, 3.93175505248344, 24.03048697023412], "label": "S", "properties": {}}, {"species": [{"element": "S", "occu": 1}], "abc": [0.61301528, 0.88626535, 0.48486677], "xyz": [8.004689159635602, 9.077496628554899, 24.02370645972602], "label": "S", "properties": {}}]}, "formula": "(Li3PS4)20.0", "bandgap": 1.9956, "slab_thickness": 24.02553226763412}