{"miller": "111_0.29", "final_energy": -698.325102, "gamma": 0.01846226483532893, "work_function": "Not calculated", "ionization_potentail": "Not calculated", "electron_affinity": "Not calculated", "is_stochiometric": true, "incar_parameters": {"SYSTEM": "unknown system", "LCOMPAT": false, "PREC": "normal", "ENMAX": 520.0, "ENAUG": 628.945, "EDIFF": 1e-05, "IALGO": 38, "IWAVPR": 11, "NBANDS": 462, "NBANDSLOW": -1, "NBANDSHIGH": -1, "NELECT": 760.0, "TURBO": 0, "IRESTART": 0, "NREBOOT": 0, "NMIN": 0, "EREF": 0.0, "ISMEAR": 0, "SIGMA": 0.05, "KSPACING": 0.5, "KGAMMA": true, "KBLOWUP": true, "LREAL": true, "ROPT": [-0.0005, -0.0005, -0.0005], "LMAXPAW": -100, "LMAXMIX": 2, "NLSPLINE": false, "ISTART": 0, "ICHARG": 2, "INIWAV": 1, "ISPIN": 1, "LNONCOLLINEAR": false, "MAGMOM": [0.6, 0.6, 0.6, 0.6, 0.6, 0.6, 0.6, 0.6, 0.6, 0.6, 0.6, 0.6, 0.6, 0.6, 0.6, 0.6, 0.6, 0.6, 0.6, 0.6, 0.6, 0.6, 0.6, 0.6, 0.6, 0.6, 0.6, 0.6, 0.6, 0.6, 0.6, 0.6, 0.6, 0.6, 0.6, 0.6, 0.6, 0.6, 0.6, 0.6, 0.6, 0.6, 0.6, 0.6, 0.6, 0.6, 0.6, 0.6, 0.6, 0.6, 0.6, 0.6, 0.6, 0.6, 0.6, 0.6, 0.6, 0.6, 0.6, 0.6, 0.6, 0.6, 0.6, 0.6, 0.6, 0.6, 0.6, 0.6, 0.6, 0.6, 0.6, 0.6, 0.6, 0.6, 0.6, 0.6, 0.6, 0.6, 0.6, 0.6, 0.6, 0.6, 0.6, 0.6, 0.6, 0.6, 0.6, 0.6, 0.6, 0.6, 0.6, 0.6, 0.6, 0.6, 0.6, 0.6, 0.6, 0.6, 0.6, 0.6, 0.6, 0.6, 0.6, 0.6, 0.6, 0.6, 0.6, 0.6, 0.6, 0.6, 0.6, 0.6, 0.6, 0.6, 0.6, 0.6, 0.6, 0.6, 0.6, 0.6, 0.6, 0.6, 0.6, 0.6, 0.6, 0.6, 0.6, 0.6, 0.6, 0.6, 0.6, 0.6, 0.6, 0.6, 0.6, 0.6, 0.6, 0.6, 0.6, 0.6, 0.6, 0.6, 0.6, 0.6, 0.6, 0.6, 0.6, 0.6, 0.6, 0.6, 0.6, 0.6, 0.6, 0.6, 0.6, 0.6, 0.6, 0.6, 0.6, 0.6], "NUPDOWN": -1.0, "LSORBIT": false, "SAXIS": [0.0, 0.0, 1.0], "LSPIRAL": false, "QSPIRAL": [0.0, 0.0, 0.0], "LZEROZ": false, "LASPH": false, "LMETAGGA": false, "NELM": 100, "NELMDL": -5, "NELMIN": 6, "ENINI": 520.0, "LDIAG": true, "LSUBROT": false, "WEIMIN": 0.001, "EBREAK": 1e-08, "DEPER": 0.3, "NRMM": 4, "TIME": 0.4, "AMIX": 0.4, "BMIX": 1.0, "AMIN": 0.1, "AMIX_MAG": 1.6, "BMIX_MAG": 1.0, "IMIX": 4, "MIXFIRST": false, "MAXMIX": -45, "WC": 100.0, "INIMIX": 1, "MIXPRE": 1, "MREMOVE": 5, "LDIPOL": false, "LMONO": false, "IDIPOL": 0, "EPSILON": 1.0, "DIPOL": [-100.0, -100.0, -100.0], "EFIELD": 0.0, "NGX": 60, "NGY": 84, "NGZ": 270, "NGXF": 120, "NGYF": 168, "NGZF": 540, "ADDGRID": false, "NSW": 150, "IBRION": 2, "MDALGO": 0, "ISIF": 2, "PSTRESS": 0.0, "EDIFFG": -0.01, "NFREE": 1, "POTIM": 0.5, "SMASS": -3.0, "SCALEE": 1.0, "TEBEG": 0.0001, "TEEND": 0.0001, "NBLOCK": 1, "KBLOCK": 150, "NPACO": 256, "APACO": 10.0, "ISYM": 0, "SYMPREC": 1e-05, "LORBIT": 11, "RWIGS": [-1.0, -1.0, -1.0], "NEDOS": 301, "EMIN": 10.0, "EMAX": -10.0, "EFERMI": 0.0, "NWRITE": 2, "LWAVE": false, "LDOWNSAMPLE": false, "LCHARG": false, "LPARD": false, "LVTOT": false, "LVHAR": false, "LELF": false, "LOPTICS": false, "STM": [0.0, 0.0, 0.0, 0.0, 0.0, 0.0, 0.0], "NPAR": 2, "NSIM": 4, "NBLK": -1, "LPLANE": true, "LSCALAPACK": true, "LSCAAWARE": false, "LSCALU": false, "LASYNC": false, "LORBITALREAL": false, "IDIOT": 3, "PHON_NSTRUCT": -1, "LMUSIC": false, "POMASS": [7.01, 30.974, 32.066], "DARWINR": [0.0, 0.0, 0.0], "DARWINV": [1.0, 1.0, 1.0], "LCORR": true, "GGA_COMPAT": true, "LBERRY": false, "ICORELEVEL": 0, "LDAU": false, "I_CONSTRAINED_M": 0, "GGA": "--", "VOSKOWN": 0, "LHFCALC": false, "PRECFOCK": "", "LSYMGRAD": false, "LHFONE": false, "LRHFCALC": false, "LTHOMAS": false, "LMODELHF": false, "LFOCKACE": false, "ENCUT4O": -1.0, "EXXOEP": 0, "FOURORBIT": 0, "AEXX": 0.0, "HFALPHA": 0.0, "MCALPHA": 0.0, "ALDAX": 1.0, "AGGAX": 1.0, "ALDAC": 1.0, "AGGAC": 1.0, "NKREDX": 1, "NKREDY": 1, "NKREDZ": 1, "SHIFTRED": false, "ODDONLY": false, "EVENONLY": false, "LMAXFOCK": 0, "NMAXFOCKAE": 0, "LFOCKAEDFT": false, "HFSCREEN": 0.0, "HFSCREENC": 0.0, "NBANDSGWLOW": 0, "LUSE_VDW": false, "Zab_VDW": -0.8491, "PARAM1": 0.1234, "PARAM2": 1.0, "PARAM3": 0.0, "MODEL_GW": 0, "MODEL_EPS0": 24.84988185, "MODEL_ALPHA": 1.0, "LEPSILON": false, "LRPA": false, "LNABLA": false, "LVEL": false, "CSHIFT": 0.1, "OMEGAMAX": -1.0, "DEG_THRESHOLD": 0.002, "RTIME": -0.1, "WPLASMAI": 0.0, "DFIELD": [0.0, 0.0, 0.0], "WPLASMA": [0.0, 0.0, 0.0, 0.0, 0.0, 0.0, 0.0, 0.0, 0.0], "NUCIND": false, "MAGPOS": [0.0, 0.0, 0.0], "LNICSALL": true, "ORBITALMAG": false, "LMAGBLOCH": false, "LCHIMAG": false, "LGAUGE": true, "MAGATOM": 0, "MAGDIPOL": [0.0, 0.0, 0.0], "AVECCONST": [0.0, 0.0, 0.0], "LFINITE_TEMPERATURE": false, "LADDER": false, "LRPAFORCE": false, "LFXC": false, "LHARTREE": true, "IBSE": 0, "KPOINT": [-1, 0, 0, 0], "LTCTC": false, "LTCTE": false, "LTETE": false, "LTRIPLET": false, "LFXCEPS": false, "LFXHEG": false, "NATURALO": 2, "LHOLEGF": false, "L2ORDER": false, "LDMP1": false, "LMP2LT": false, "LSMP2LT": false, "LGWLF": false, "ENCUTGW": -2.0, "ENCUTGWSOFT": -2.0, "ENCUTLF": -1.0, "LESF_SPLINES": false, "LMAXMP2": -1, "SCISSOR": 0.0, "NOMEGA": 0, "NOMEGAR": 0, "NBANDSGW": -1, "NBANDSO": -1, "NBANDSV": -1, "NELMGW": 1, "NELMHF": 1, "DIM": 3, "IESPILON": 4, "ANTIRES": 0, "OMEGAMIN": -30.0, "OMEGATL": -200.0, "OMEGAGRID": 0, "LSELFENERGY": false, "LSPECTRAL": false, "LSPECTRALGW": false, "LSINGLES": false, "LFERMIGW": false, "ODDONLYGW": false, "EVENONLYGW": false, "NKREDLFX": 1, "NKREDLFY": 1, "NKREDLFZ": 1, "MAXMEM": 2800, "TELESCOPE": 0, "NTAUPAR": -1, "NOMEGAPAR": -1, "DAMP_NEWTON": 0.80000001, "LAMBDA": 1.0, "OFIELD_KAPPA": 0.0, "OFIELD_K": [0.0, 0.0, 0.0], "OFIELD_Q6_NEAR": 0.0, "OFIELD_Q6_FAR": 0.0, "OFIELD_A": 0.0, "KPOINTS_OPT_MODE": 1, "LKPOINTS_OPT": false, "@module": "pymatgen.io.vasp.inputs", "@class": "Incar"}, "relaxed_structures": {"@module": "pymatgen.core.structure", "@class": "Structure", "charge": 0, "lattice": {"matrix": [[10.242414, 0.0, 0.0], [3.825952, 13.966305, 0.0], [0.0, 0.0, 46.324337]], "a": 10.242414, "b": 14.48086958919695, "c": 46.324337, "alpha": 90.0, "beta": 90.0, "gamma": 74.68014200345522, "volume": 6626.635160603587}, "sites": [{"species": [{"element": "Li", "occu": 1}], "abc": [0.80107032, 0.76350005, 0.052792790000000006], "xyz": [11.12600840385008, 10.66327456581525, 2.4455909951302304], "label": "Li", "properties": {}}, {"species": [{"element": "Li", "occu": 1}], "abc": [0.78686254, 0.04751025, 0.06921513], "xyz": [8.24114383177956, 0.6635426421262499, 3.20634500761881], "label": "Li", "properties": {}}, {"species": [{"element": "Li", "occu": 1}], "abc": [0.76503941, 0.28489992, 0.03727495], "xyz": [8.92586378225958, 3.9789991771955995, 1.72673734545815], "label": "Li", "properties": {}}, {"species": [{"element": "Li", "occu": 1}], "abc": [0.2172252, 0.20322842, 0.08347526000000001], "xyz": [3.00245260958864, 2.8383500983881, 3.8669360754026205], "label": "Li", "properties": {}}, {"species": [{"element": "Li", "occu": 1}], "abc": [0.25250124, 0.67610052, 0.031627180000000005], "xyz": [5.1729503722884, 9.4426260729786, 1.46510814467966], "label": "Li", "properties": {}}, {"species": [{"element": "Li", "occu": 1}], "abc": [0.55524753, 0.74300042, 0.0209044], "xyz": [8.52975901763726, 10.376970480848101, 0.9683824703828], "label": "Li", "properties": {}}, {"species": [{"element": "Li", "occu": 1}], "abc": [0.87113364, 0.44845493, 0.02995546], "xyz": [10.63827842655032, 6.26325833113365, 1.38766682403002], "label": "Li", "properties": {}}, {"species": [{"element": "Li", "occu": 1}], "abc": [0.34336155, 0.40867077, 0.06914262], "xyz": [5.08040589660474, 5.70762061840485, 3.2029860299429402], "label": "Li", "properties": {}}, {"species": [{"element": "Li", "occu": 1}], "abc": [0.29103483, 0.90894928, 0.07644372], "xyz": [6.45849553299418, 12.6946628740104, 3.5412046468136404], "label": "Li", "properties": {}}, {"species": [{"element": "Li", "occu": 1}], "abc": [0.4380751, 0.63420711, 0.15492211], "xyz": [6.91339249821012, 8.85752993142855, 7.17666403239107], "label": "Li", "properties": {}}, {"species": [{"element": "Li", "occu": 1}], "abc": [0.45031813, 0.93500326, 0.17312645000000002], "xyz": [8.18962231176934, 13.0585407051543, 8.019968013413651], "label": "Li", "properties": {}}, {"species": [{"element": "Li", "occu": 1}], "abc": [0.67305328, 0.54101234, 0.09129791000000001], "xyz": [8.9635775820656, 7.5559433492037, 4.229315150235671], "label": "Li", "properties": {}}, {"species": [{"element": "Li", "occu": 1}], "abc": [0.50442123, 0.1416504, 0.1335999], "xyz": [5.708438699230021, 1.9783326897720002, 6.1889267907663], "label": "Li", "properties": {}}, {"species": [{"element": "Li", "occu": 1}], "abc": [0.88815249, 0.09122645, 0.18958709], "xyz": [9.44585351654126, 1.27409642476725, 8.78249624800933], "label": "Li", "properties": {}}, {"species": [{"element": "Li", "occu": 1}], "abc": [0.98371695, 0.48833537, 0.13441597], "xyz": [11.943983946239541, 6.82024071970785, 6.2267306924618895], "label": "Li", "properties": {}}, {"species": [{"element": "Li", "occu": 1}], "abc": [0.05697644, 0.01592463, 0.11721669], "xyz": [0.64450315672392, 0.22240823959214998, 5.42998544958453], "label": "Li", "properties": {}}, {"species": [{"element": "Li", "occu": 1}], "abc": [0.14938088, 0.66913742, 0.11331949000000001], "xyz": [4.09010846696816, 9.3453772946331, 5.2494502434281305], "label": "Li", "properties": {}}, {"species": [{"element": "Li", "occu": 1}], "abc": [0.64863254, 0.84402054, 0.11003951000000001], "xyz": [9.872745081605641, 11.787848287904701, 5.09750734455487], "label": "Li", "properties": {}}, {"species": [{"element": "Li", "occu": 1}], "abc": [0.61563138, 0.32384281, 0.12497793000000001], "xyz": [7.544558511956439, 4.52288745651705, 5.7895197468824104], "label": "Li", "properties": {}}, {"species": [{"element": "Li", "occu": 1}], "abc": [0.98894257, 0.28976481, 0.16293992000000002], "xyz": [11.2377854785131, 4.04694371472705, 7.5480837648330406], "label": "Li", "properties": {}}, {"species": [{"element": "Li", "occu": 1}], "abc": [0.93911013, 0.7903173, 0.15397303], "xyz": [12.642470797623421, 11.0378124585765, 7.13269853063111], "label": "Li", "properties": {}}, {"species": [{"element": "Li", "occu": 1}], "abc": [0.11211884, 0.50360801, 0.2527816], "xyz": [3.07514764955528, 7.03354306810305, 11.7099400257992], "label": "Li", "properties": {}}, {"species": [{"element": "Li", "occu": 1}], "abc": [0.11609689, 0.81425428, 0.2752489], "xyz": [4.30441020256702, 11.3721236220354, 12.7507228024793], "label": "Li", "properties": {}}, {"species": [{"element": "Li", "occu": 1}], "abc": [0.36067655, 0.41047099, 0.1945769], "xyz": [5.26464085032418, 5.73276303999195, 9.013645888015299], "label": "Li", "properties": {}}, {"species": [{"element": "Li", "occu": 1}], "abc": [0.18343565, 0.02443756, 0.23332916], "xyz": [1.9723208012162199, 0.3413024164158, 10.80881863976692], "label": "Li", "properties": {}}, {"species": [{"element": "Li", "occu": 1}], "abc": [0.56128371, 0.95879019, 0.2910922], "xyz": [9.41718537428682, 13.39075622454795, 13.4846531708714], "label": "Li", "properties": {}}, {"species": [{"element": "Li", "occu": 1}], "abc": [0.66659921, 0.36089891, 0.23733124], "xyz": [8.20836698740526, 5.040424251227551, 10.994212342387879], "label": "Li", "properties": {}}, {"species": [{"element": "Li", "occu": 1}], "abc": [0.74553522, 0.88388188, 0.21527252], "xyz": [11.01777002137084, 12.3445639200534, 9.97235676331924], "label": "Li", "properties": {}}, {"species": [{"element": "Li", "occu": 1}], "abc": [0.82691908, 0.55895663, 0.20996236000000001], "xyz": [10.608188798320882, 7.80655877635215, 9.72636712195532], "label": "Li", "properties": {}}, {"species": [{"element": "Li", "occu": 1}], "abc": [0.22999818, 0.72927867, 0.21541036], "xyz": [5.14592176485036, 10.18532833521435, 9.97874210993132], "label": "Li", "properties": {}}, {"species": [{"element": "Li", "occu": 1}], "abc": [0.29246335, 0.20007231, 0.22389226], "xyz": [3.76099776511602, 2.79427090351455, 10.37166050393162], "label": "Li", "properties": {}}, {"species": [{"element": "Li", "occu": 1}], "abc": [0.62218627, 0.16234591, 0.26396584], "xyz": [6.9938170215121005, 2.26737249456255, 12.22804252864808], "label": "Li", "properties": {}}, {"species": [{"element": "Li", "occu": 1}], "abc": [0.61322836, 0.65886898, 0.26331194], "xyz": [8.801739831430002, 9.2019651297189, 12.19775104468378], "label": "Li", "properties": {}}, {"species": [{"element": "Li", "occu": 1}], "abc": [0.77887699, 0.38369042, 0.35571904], "xyz": [9.4455617164337, 5.3587374312981, 16.47844868627648], "label": "Li", "properties": {}}, {"species": [{"element": "Li", "occu": 1}], "abc": [0.79181464, 0.68424131, 0.37275487], "xyz": [10.727967762618082, 9.55632282905955, 17.267622216271192], "label": "Li", "properties": {}}, {"species": [{"element": "Li", "occu": 1}], "abc": [0.04401863, 0.29295261, 0.29503983], "xyz": [1.5716796563075401, 4.09146550180605, 13.66752451334271], "label": "Li", "properties": {}}, {"species": [{"element": "Li", "occu": 1}], "abc": [0.86764726, 0.90796876, 0.33373199], "xyz": [12.36064733614516, 12.680968632631801, 15.45991317244063], "label": "Li", "properties": {}}, {"species": [{"element": "Li", "occu": 1}], "abc": [0.24493343, 0.8289317, 0.39454664], "xyz": [5.6801624879784205, 11.577112946368501, 18.27711151357768], "label": "Li", "properties": {}}, {"species": [{"element": "Li", "occu": 1}], "abc": [0.33927384, 0.22891523, 0.33838832], "xyz": [4.35080181069872, 3.19709992132515, 15.675614572543841], "label": "Li", "properties": {}}, {"species": [{"element": "Li", "occu": 1}], "abc": [0.40373588, 0.7585132, 0.31838325], "xyz": [7.0372651241807205, 10.593626697726, 14.74889296815525], "label": "Li", "properties": {}}, {"species": [{"element": "Li", "occu": 1}], "abc": [0.48217054, 0.43556132, 0.31307883000000003], "xyz": [6.6050269926602, 6.0831822413226, 14.503169228485712], "label": "Li", "properties": {}}, {"species": [{"element": "Li", "occu": 1}], "abc": [0.99681336, 0.58867976, 0.31256542], "xyz": [12.46203561898256, 8.2216810754868, 14.479385850626539], "label": "Li", "properties": {}}, {"species": [{"element": "Li", "occu": 1}], "abc": [0.93788499, 0.11579019, 0.30590272], "xyz": [10.049214060976741, 1.6171611095479501, 14.170740690496642], "label": "Li", "properties": {}}, {"species": [{"element": "Li", "occu": 1}], "abc": [0.23974997, 0.02780332, 0.36520508], "xyz": [2.5619926169882197, 0.3883096471326, 16.917883200031962], "label": "Li", "properties": {}}, {"species": [{"element": "Li", "occu": 1}], "abc": [0.29333142, 0.52785751, 0.37487019], "xyz": [5.023979338947401, 7.37221898120055, 17.36561301281403], "label": "Li", "properties": {}}, {"species": [{"element": "Li", "occu": 1}], "abc": [0.4435666, 0.26913659, 0.45794344], "xyz": [5.57289642855608, 3.7588437025999504, 21.21392624149928], "label": "Li", "properties": {}}, {"species": [{"element": "Li", "occu": 1}], "abc": [0.42770557, 0.55378456, 0.47596543], "xyz": [6.4994906629471, 7.7343240692508, 22.048782979669912], "label": "Li", "properties": {}}, {"species": [{"element": "Li", "occu": 1}], "abc": [0.72616772, 0.17457055, 0.3947711], "xyz": [8.10560896658968, 2.43810554531775, 18.2875094742607], "label": "Li", "properties": {}}, {"species": [{"element": "Li", "occu": 1}], "abc": [0.56103351, 0.77624444, 0.43680669], "xyz": [8.71621144500002, 10.841266603594201, 20.23478031141453], "label": "Li", "properties": {}}, {"species": [{"element": "Li", "occu": 1}], "abc": [0.97413776, 0.64662973, 0.49529817000000004], "xyz": [12.451496539705602, 9.03102803124765, 22.944359342563292], "label": "Li", "properties": {}}, {"species": [{"element": "Li", "occu": 1}], "abc": [0.01329812, 0.11172584, 0.44481555], "xyz": [0.56366255146136, 1.5603971578212001, 20.60578544104035], "label": "Li", "properties": {}}, {"species": [{"element": "Li", "occu": 1}], "abc": [0.07943286, 0.64645822, 0.41522306], "xyz": [3.2869023570494798, 9.0286326702771, 19.234932961611218], "label": "Li", "properties": {}}, {"species": [{"element": "Li", "occu": 1}], "abc": [0.17142082, 0.30158939, 0.41087444], "xyz": [2.90962953650876, 4.21208940550395, 19.03348602324628], "label": "Li", "properties": {}}, {"species": [{"element": "Li", "occu": 1}], "abc": [0.58253248, 0.4739753, 0.41847815], "xyz": [7.77994557559232, 6.6196836022665, 19.38572284773655], "label": "Li", "properties": {}}, {"species": [{"element": "Li", "occu": 1}], "abc": [0.61116986, 0.9946638, 0.40235181], "xyz": [10.06539068537964, 13.891778003259, 18.638680838999967], "label": "Li", "properties": {}}, {"species": [{"element": "Li", "occu": 1}], "abc": [0.88314731, 0.91121875, 0.45903624], "xyz": [12.53183957100634, 12.72635898421875, 21.264549476972878], "label": "Li", "properties": {}}, {"species": [{"element": "Li", "occu": 1}], "abc": [0.93564066, 0.40775031, 0.45194865], "xyz": [11.143252108998361, 5.69476519330455, 20.93622156929505], "label": "Li", "properties": {}}, {"species": [{"element": "Li", "occu": 1}], "abc": [0.46164778, 0.03168182, 0.49103299], "xyz": [4.849600807533561, 0.4424779610751, 22.74677770687763], "label": "Li", "properties": {}}, {"species": [{"element": "Li", "occu": 1}], "abc": [0.68150627, 0.57264047, 0.5068753699999999], "xyz": [9.17116431241322, 7.9976714593633496, 23.480665456879688], "label": "Li", "properties": {}}, {"species": [{"element": "Li", "occu": 1}], "abc": [0.35932615, 0.86800008, 0.49874974], "xyz": [7.0012938314022595, 12.1227538573044, 23.10425103442238], "label": "Li", "properties": {}}, {"species": [{"element": "P", "occu": 1}], "abc": [0.04866908, 0.81483891, 0.06788046], "xyz": [3.61602342375144, 11.380288742927549, 3.1445173047550203], "label": "P", "properties": {}}, {"species": [{"element": "P", "occu": 1}], "abc": [0.53169964, 0.00159161, 0.06025164000000001], "xyz": [5.45197725999368, 0.02222891070105, 2.7911172761626806], "label": "P", "properties": {}}, {"species": [{"element": "P", "occu": 1}], "abc": [0.58237534, 0.53624138, 0.02667554], "xyz": [8.01656311596452, 7.4893106667009, 1.23572670461698], "label": "P", "properties": {}}, {"species": [{"element": "P", "occu": 1}], "abc": [0.69544782, 0.69256172, 0.16318321], "xyz": [9.772772385594921, 9.6725282128446, 7.559354012781769], "label": "P", "properties": {}}, {"species": [{"element": "P", "occu": 1}], "abc": [0.19157182, 0.87776128, 0.1638457], "xyz": [5.32043041591204, 12.259081753670399, 7.590043422800901], "label": "P", "properties": {}}, {"species": [{"element": "P", "occu": 1}], "abc": [0.28626604, 0.40804883, 0.13078177], "xyz": [4.49323053305672, 5.6989344146731495, 6.05837878693649], "label": "P", "properties": {}}, {"species": [{"element": "P", "occu": 1}], "abc": [0.90291727, 0.28027267, 0.09399599], "xyz": [10.320362269421619, 3.91437359238435, 4.35430191740863], "label": "P", "properties": {}}, {"species": [{"element": "P", "occu": 1}], "abc": [0.35925042, 0.5697335, 0.26415718], "xyz": [5.859364555105881, 7.9570718297175, 12.23690622728966], "label": "P", "properties": {}}, {"species": [{"element": "P", "occu": 1}], "abc": [0.86815281, 0.74889894, 0.2640212], "xyz": [11.75723189257422, 10.4593510102167, 12.230607043944401], "label": "P", "properties": {}}, {"species": [{"element": "P", "occu": 1}], "abc": [0.97125846, 0.28647434, 0.23204448], "xyz": [11.04406832239412, 4.0009880071137, 10.74930669050976], "label": "P", "properties": {}}, {"species": [{"element": "P", "occu": 1}], "abc": [0.58465542, 0.1549421, 0.19600615], "xyz": [6.58108389636308, 2.1639686259405, 9.07985494667255], "label": "P", "properties": {}}, {"species": [{"element": "P", "occu": 1}], "abc": [0.03849629, 0.44079776, 0.36453573], "xyz": [2.0807660111115798, 6.1563159594767995, 16.88687600506101], "label": "P", "properties": {}}, {"species": [{"element": "P", "occu": 1}], "abc": [0.53510701, 0.62533705, 0.36527321], "xyz": [7.87329706784374, 8.73364796810025, 16.92103927711177], "label": "P", "properties": {}}, {"species": [{"element": "P", "occu": 1}], "abc": [0.64355793, 0.16434508, 0.33244923], "xyz": [7.220363139559179, 2.2952935125294003, 15.40049016591051], "label": "P", "properties": {}}, {"species": [{"element": "P", "occu": 1}], "abc": [0.2564189, 0.03103265, 0.29623725], "xyz": [2.7450779605574, 0.43341145485825, 13.72299420095325], "label": "P", "properties": {}}, {"species": [{"element": "P", "occu": 1}], "abc": [0.69862725, 0.31438657, 0.4677706], "xyz": [8.35845745244614, 4.39081872452385, 21.669162913092197], "label": "P", "properties": {}}, {"species": [{"element": "P", "occu": 1}], "abc": [0.18108959, 0.50119387, 0.460534], "xyz": [3.7723382411845003, 6.999826452550351, 21.333932215958], "label": "P", "properties": {}}, {"species": [{"element": "P", "occu": 1}], "abc": [0.32735315, 0.03589016, 0.43424984], "xyz": [3.49020051593642, 0.5012529210587999, 20.11633593035608], "label": "P", "properties": {}}, {"species": [{"element": "P", "occu": 1}], "abc": [0.94229519, 0.90902122, 0.39734002], "xyz": [13.129249000890098, 12.6956676099921, 18.40651299006674], "label": "P", "properties": {}}, {"species": [{"element": "P", "occu": 1}], "abc": [0.64870267, 0.78036375, 0.50179109], "xyz": [9.629915559085381, 10.89879814344375, 23.24513955675733], "label": "P", "properties": {}}, {"species": [{"element": "S", "occu": 1}], "abc": [0.24838982, 0.74950561, 0.07756946], "xyz": [5.4116838574162, 10.46782394847105, 3.5933538059480203], "label": "S", "properties": {}}, {"species": [{"element": "S", "occu": 1}], "abc": [0.32693294, 0.05775834, 0.05802251], "xyz": [3.56956315815684, 0.8066705927337, 2.68785430682587], "label": "S", "properties": {}}, {"species": [{"element": "S", "occu": 1}], "abc": [0.45236131, 0.63031229, 0.00010000000000000026], "xyz": [7.04481638115242, 8.803133687388451, 0.004632433700000012], "label": "S", "properties": {}}, {"species": [{"element": "S", "occu": 1}], "abc": [0.74413997, 0.22464826, 0.08393129], "xyz": [8.4812831063311, 3.1375061168792997, 3.8880613628047302], "label": "S", "properties": {}}, {"species": [{"element": "S", "occu": 1}], "abc": [0.73181437, 0.6002048, 0.04239665], "xyz": [9.79190050365878, 8.382643299264, 1.96399670227105], "label": "S", "properties": {}}, {"species": [{"element": "S", "occu": 1}], "abc": [0.00838086, 0.76862385, 0.028032150000000002], "xyz": [3.02655819395124, 10.73483511937425, 1.29857076343455], "label": "S", "properties": {}}, {"species": [{"element": "S", "occu": 1}], "abc": [0.55801486, 0.85071229, 0.05933381], "xyz": [8.97020360162212, 11.88130730938845, 2.74859940993397], "label": "S", "properties": {}}, {"species": [{"element": "S", "occu": 1}], "abc": [0.02618839, 0.96018332, 0.06875490000000001], "xyz": [3.9418476258940998, 13.4102131030326, 3.1850251580013005], "label": "S", "properties": {}}, {"species": [{"element": "S", "occu": 1}], "abc": [0.68275344, 0.41642182, 0.004399620000000001], "xyz": [8.5862532874768, 5.8158741467751, 0.20380947955194004], "label": "S", "properties": {}}, {"species": [{"element": "S", "occu": 1}], "abc": [0.63672274, 0.04721426, 0.0295661], "xyz": [6.702217398769879, 0.6594087555093, 1.3696299801757001], "label": "S", "properties": {}}, {"species": [{"element": "S", "occu": 1}], "abc": [0.48579738, 0.51059833, 0.06334776], "xyz": [6.92926258793548, 7.13117200927065, 2.9345429824351204], "label": "S", "properties": {}}, {"species": [{"element": "S", "occu": 1}], "abc": [0.9959976, 0.3045195, 0.056224590000000005], "xyz": [11.3664967522704, 4.2530122154475, 2.6045668548468304], "label": "S", "properties": {}}, {"species": [{"element": "S", "occu": 1}], "abc": [0.89945944, 0.62588482, 0.16580699000000002], "xyz": [11.607241239536801, 8.7412982909901, 7.68089888171563], "label": "S", "properties": {}}, {"species": [{"element": "S", "occu": 1}], "abc": [0.98853379, 0.94663161, 0.16122697], "xyz": [13.746739431711779, 13.22094578790105, 7.46873249176889], "label": "S", "properties": {}}, {"species": [{"element": "S", "occu": 1}], "abc": [0.1669665, 0.50032929, 0.10150192000000001], "xyz": [3.62437586486508, 6.98775146457345, 4.702009148227041], "label": "S", "properties": {}}, {"species": [{"element": "S", "occu": 1}], "abc": [0.04655597, 0.18965605, 0.11915638], "xyz": [1.20246046272118, 2.64879423939525, 5.51984030282006], "label": "S", "properties": {}}, {"species": [{"element": "S", "occu": 1}], "abc": [0.42309547, 0.10894138, 0.18168787], "xyz": [4.75032345595834, 1.5215085402009, 8.41657011869219], "label": "S", "properties": {}}, {"species": [{"element": "S", "occu": 1}], "abc": [0.44188535, 0.45709255, 0.14746432], "xyz": [6.2747868510925, 6.38389396652775, 6.83118685515584], "label": "S", "properties": {}}, {"species": [{"element": "S", "occu": 1}], "abc": [0.61302909, 0.01579618, 0.10091149], "xyz": [6.33933316028662, 0.2206142677149, 4.674657869932131], "label": "S", "properties": {}}, {"species": [{"element": "S", "occu": 1}], "abc": [0.60759851, 0.68137954, 0.12388235], "xyz": [8.83020089902522, 9.5163544763997, 5.73876772975195], "label": "S", "properties": {}}, {"species": [{"element": "S", "occu": 1}], "abc": [0.20101998, 0.73191988, 0.16051817000000002], "xyz": [4.859220186157479, 10.2222162796434, 7.435897801703291], "label": "S", "properties": {}}, {"species": [{"element": "S", "occu": 1}], "abc": [0.68507932, 0.83861889, 0.16658901], "xyz": [10.22538163771176, 11.71240719650145, 7.71712543973637], "label": "S", "properties": {}}, {"species": [{"element": "S", "occu": 1}], "abc": [0.8199433, 0.40094061, 0.11892099], "xyz": [9.93217826383692, 5.59965884614605, 5.50893601713363], "label": "S", "properties": {}}, {"species": [{"element": "S", "occu": 1}], "abc": [0.37954773, 0.28732267, 0.1062237], "xyz": [4.986767727352061, 4.01283604263435, 4.9207424761869], "label": "S", "properties": {}}, {"species": [{"element": "S", "occu": 1}], "abc": [0.92654605, 0.76728977, 0.09749711], "xyz": [12.42568206427574, 10.71620295119985, 4.51648898016607], "label": "S", "properties": {}}, {"species": [{"element": "S", "occu": 1}], "abc": [0.29309039, 0.93406119, 0.13349221], "xyz": [6.57562639180434, 13.04538346820295, 6.18393812291477], "label": "S", "properties": {}}, {"species": [{"element": "S", "occu": 1}], "abc": [0.17057478, 0.38596113, 0.16465115], "xyz": [3.22376627196468, 5.39045085972465, 7.62735536003755], "label": "S", "properties": {}}, {"species": [{"element": "S", "occu": 1}], "abc": [0.69188147, 0.18327819, 0.16138531], "xyz": [7.78775001225546, 2.5597191013879503, 7.476067487289471], "label": "S", "properties": {}}, {"species": [{"element": "S", "occu": 1}], "abc": [0.56132933, 0.50049481, 0.2682687], "xyz": [7.66423650751174, 6.990063167377049, 12.4273696653519], "label": "S", "properties": {}}, {"species": [{"element": "S", "occu": 1}], "abc": [0.66622652, 0.81837249, 0.25994384], "xyz": [9.95482170047976, 11.42963979894945, 12.041726045234078], "label": "S", "properties": {}}, {"species": [{"element": "S", "occu": 1}], "abc": [0.84778952, 0.38315836, 0.20480513], "xyz": [10.14935674246, 5.3513065190598, 9.48746186144881], "label": "S", "properties": {}}, {"species": [{"element": "S", "occu": 1}], "abc": [0.71576362, 0.05889196, 0.22226686], "xyz": [7.5564651343246005, 0.8225030754078, 10.29636492657182], "label": "S", "properties": {}}, {"species": [{"element": "S", "occu": 1}], "abc": [0.09701161, 0.98622039, 0.27958949], "xyz": [4.76686494598782, 13.77385476395895, 12.951797756418129], "label": "S", "properties": {}}, {"species": [{"element": "S", "occu": 1}], "abc": [0.13001074, 0.33159294, 0.24891992000000002], "xyz": [2.6002824955052404, 4.6311281358867005, 11.531050260093041], "label": "S", "properties": {}}, {"species": [{"element": "S", "occu": 1}], "abc": [0.27941516, 0.88665329, 0.20328942], "xyz": [6.25417867477832, 12.38327027739345, 9.41724760061454], "label": "S", "properties": {}}, {"species": [{"element": "S", "occu": 1}], "abc": [0.27830778, 0.55571042, 0.22414953], "xyz": [4.97666489500076, 7.7612212173981, 10.38357836611161], "label": "S", "properties": {}}, {"species": [{"element": "S", "occu": 1}], "abc": [0.87877986, 0.60353207, 0.26010169], "xyz": [11.30991187126268, 8.42911296690135, 12.04903834182953], "label": "S", "properties": {}}, {"species": [{"element": "S", "occu": 1}], "abc": [0.34889078, 0.71494525, 0.26804853], "xyz": [6.30883001867092, 9.98514341980125, 12.41717043607461], "label": "S", "properties": {}}, {"species": [{"element": "S", "occu": 1}], "abc": [0.50039029, 0.27236825, 0.22255295], "xyz": [6.16727236258406, 3.80397805181625, 10.30961785614415], "label": "S", "properties": {}}, {"species": [{"element": "S", "occu": 1}], "abc": [0.0607849, 0.16930923, 0.20615646], "xyz": [1.2703530978855602, 2.36462434549515, 9.55006132776702], "label": "S", "properties": {}}, {"species": [{"element": "S", "occu": 1}], "abc": [0.59514319, 0.64096748, 0.19467338], "xyz": [8.548013753301621, 8.9519473207614, 9.01811526004906], "label": "S", "properties": {}}, {"species": [{"element": "S", "occu": 1}], "abc": [0.97254903, 0.80197125, 0.23329981], "xyz": [13.02955330843842, 11.20057507873125, 10.807459020475969], "label": "S", "properties": {}}, {"species": [{"element": "S", "occu": 1}], "abc": [0.85665514, 0.25911967, 0.26584722], "xyz": [9.7655960187838, 3.61894434271935, 12.31519620979314], "label": "S", "properties": {}}, {"species": [{"element": "S", "occu": 1}], "abc": [0.37070809, 0.05831887, 0.2624972], "xyz": [4.020070928243499, 0.81449912567535, 12.160008754356399], "label": "S", "properties": {}}, {"species": [{"element": "S", "occu": 1}], "abc": [0.24154269, 0.37185355, 0.36727186], "xyz": [3.8966740629832604, 5.193420094632749, 17.013625413256822], "label": "S", "properties": {}}, {"species": [{"element": "S", "occu": 1}], "abc": [0.33119968, 0.69237568, 0.36288169], "xyz": [6.04128035687488, 9.669929921462401, 16.81025369868953], "label": "S", "properties": {}}, {"species": [{"element": "S", "occu": 1}], "abc": [0.51343199, 0.2601819, 0.30597094], "xyz": [6.254226463092659, 3.6337797708795003, 14.173900936766781], "label": "S", "properties": {}}, {"species": [{"element": "S", "occu": 1}], "abc": [0.38035244, 0.93463102, 0.32347834], "xyz": [7.4715805766212, 13.0533418877811, 14.984919634360578], "label": "S", "properties": {}}, {"species": [{"element": "S", "occu": 1}], "abc": [0.78599389, 0.86111443, 0.38046848], "xyz": [11.345057298537819, 12.02658676928115, 17.62495008539776], "label": "S", "properties": {}}, {"species": [{"element": "S", "occu": 1}], "abc": [0.80551527, 0.20979517, 0.34688666], "xyz": [9.05308712891362, 2.93006333174685, 16.06929453864442], "label": "S", "properties": {}}, {"species": [{"element": "S", "occu": 1}], "abc": [0.94916864, 0.76262888, 0.30402125], "xyz": [12.63955965539072, 10.6511075398884, 14.08358284016125], "label": "S", "properties": {}}, {"species": [{"element": "S", "occu": 1}], "abc": [0.95032102, 0.43129834, 0.32516074], "xyz": [11.38370806626196, 6.0236441624337, 15.062855698929381], "label": "S", "properties": {}}, {"species": [{"element": "S", "occu": 1}], "abc": [0.54464877, 0.47947686, 0.36178073], "xyz": [7.4129736384015, 6.6965200672023, 16.759252456626008], "label": "S", "properties": {}}, {"species": [{"element": "S", "occu": 1}], "abc": [0.02917709, 0.58650141, 0.36768836], "xyz": [2.54277007768758, 8.19125757499005, 17.032919499617318], "label": "S", "properties": {}}, {"species": [{"element": "S", "occu": 1}], "abc": [0.16762163, 0.14840063, 0.32220779], "xyz": [2.2846238169645803, 2.07260846077215, 14.92606224798523], "label": "S", "properties": {}}, {"species": [{"element": "S", "occu": 1}], "abc": [0.72824626, 0.04666111, 0.30600829], "xyz": [7.63752285599836, 0.65168329389855, 14.17563115075373], "label": "S", "properties": {}}, {"species": [{"element": "S", "occu": 1}], "abc": [0.25522554, 0.51648301, 0.2948581], "xyz": [4.59016484912908, 7.21335924497805, 13.6591059915797], "label": "S", "properties": {}}, {"species": [{"element": "S", "occu": 1}], "abc": [0.6344366, 0.67659719, 0.33355248], "xyz": [9.08679068622728, 9.44956271768295, 15.45159749070576], "label": "S", "properties": {}}, {"species": [{"element": "S", "occu": 1}], "abc": [0.5353546, 0.1366172, 0.36698924], "xyz": [6.0060142995788, 1.9080374834459999, 17.00053322913388], "label": "S", "properties": {}}, {"species": [{"element": "S", "occu": 1}], "abc": [0.05921072, 0.93051095, 0.36362633], "xyz": [4.16655093765248, 12.99579973353975, 16.84474865299321], "label": "S", "properties": {}}, {"species": [{"element": "S", "occu": 1}], "abc": [0.90330283, 0.25800496, 0.47013687], "xyz": [10.23911614495354, 3.6033759628728, 21.77877880200519], "label": "S", "properties": {}}, {"species": [{"element": "S", "occu": 1}], "abc": [0.98114553, 0.56589857, 0.45063919], "xyz": [12.214399478198061, 7.90351202768385, 20.87556170296703], "label": "S", "properties": {}}, {"species": [{"element": "S", "occu": 1}], "abc": [0.18359092, 0.12680439, 0.40920452], "xyz": [2.36556171881016, 1.77098878607895, 18.95612808640324], "label": "S", "properties": {}}, {"species": [{"element": "S", "occu": 1}], "abc": [0.05985397, 0.81652474, 0.42677863], "xyz": [3.73703360233606, 11.4038335588857, 19.77023708051831], "label": "S", "properties": {}}, {"species": [{"element": "S", "occu": 1}], "abc": [0.50003509, 0.71672569, 0.48565484], "xyz": [7.86372449341414, 10.01000958787545, 22.49763847384108], "label": "S", "properties": {}}, {"species": [{"element": "S", "occu": 1}], "abc": [0.48611253, 0.09130424, 0.44444928], "xyz": [5.3282914224839, 1.2751828636331999, 20.58881822612736], "label": "S", "properties": {}}, {"species": [{"element": "S", "occu": 1}], "abc": [0.62485053, 0.63583759, 0.40440007], "xyz": [8.8326619155151, 8.880301712404949, 18.73356512550359], "label": "S", "properties": {}}, {"species": [{"element": "S", "occu": 1}], "abc": [0.61829973, 0.30157965, 0.42690214], "xyz": [7.486711075825021, 4.21195337369325, 19.77595859938118], "label": "S", "properties": {}}, {"species": [{"element": "S", "occu": 1}], "abc": [0.20418452, 0.35584898, 0.45951019], "xyz": [3.45280350296024, 4.9698953886189, 21.28650489649403], "label": "S", "properties": {}}, {"species": [{"element": "S", "occu": 1}], "abc": [0.67229627, 0.46540829, 0.46894893], "xyz": [8.66656650593786, 6.50003412766845, 21.72374826910941], "label": "S", "properties": {}}, {"species": [{"element": "S", "occu": 1}], "abc": [0.84973821, 0.03022205, 0.4217894], "xyz": [8.818998651080541, 0.42209036802525, 19.5391143086278], "label": "S", "properties": {}}, {"species": [{"element": "S", "occu": 1}], "abc": [0.41035794, 0.91537827, 0.40933603], "xyz": [7.705249232530201, 12.784452109192351, 18.96222019996211], "label": "S", "properties": {}}, {"species": [{"element": "S", "occu": 1}], "abc": [0.93690648, 0.38423424, 0.39486519], "xyz": [11.066245806439198, 5.3663325872832, 18.29186813112903], "label": "S", "properties": {}}, {"species": [{"element": "S", "occu": 1}], "abc": [0.3031974, 0.54965364, 0.43104294], "xyz": [5.20842173778888, 7.6766303806002005, 19.96777841403078], "label": "S", "properties": {}}, {"species": [{"element": "S", "occu": 1}], "abc": [0.23399051, 0.01083217, 0.47193116], "xyz": [2.43807103796698, 0.15128539003185001, 21.86189809664092], "label": "S", "properties": {}}, {"species": [{"element": "S", "occu": 1}], "abc": [0.74883625, 0.80455714, 0.46540666], "xyz": [10.748087889604781, 11.2366904071677, 21.559654959884423], "label": "S", "properties": {}}, {"species": [{"element": "S", "occu": 1}], "abc": [0.77857196, 0.6866895, 0.5284436499999999], "xyz": [10.60169740901544, 9.5905149972975, 24.479801728110047], "label": "S", "properties": {}}, {"species": [{"element": "S", "occu": 1}], "abc": [0.21953504, 0.54825434, 0.50036072], "xyz": [4.34616355581824, 7.6570873300137, 23.17887861484264], "label": "S", "properties": {}}, {"species": [{"element": "S", "occu": 1}], "abc": [0.54798665, 0.90066134, 0.5238270199999999], "xyz": [9.05859319086878, 12.5789109761487, 24.265939404185737], "label": "S", "properties": {}}, {"species": [{"element": "S", "occu": 1}], "abc": [0.59232317, 0.26867186, 0.49814750999999996], "xyz": [7.0947447690431, 3.7523531416773, 23.076353128950867], "label": "S", "properties": {}}]}, "formula": "(Li3PS4)20.0", "bandgap": 2.3439, "slab_thickness": 24.475169294410048}