{"miller": "110_0.25", "final_energy": -205.4270843, "gamma": 0.016137048049518318, "work_function": 6.517749508811846, "ionization_potentail": -6.7604495088118455, "electron_affinity": -1.552549508811846, "is_stochiometric": true, "incar_parameters": {"SYSTEM": "unknown system", "LCOMPAT": false, "PREC": "normal", "ENMAX": 520.0, "ENAUG": 628.945, "EDIFF": 1e-05, "IALGO": 38, "IWAVPR": 11, "NBANDS": 169, "NBANDSLOW": -1, "NBANDSHIGH": -1, "NELECT": 280.0, "TURBO": 0, "IRESTART": 0, "NREBOOT": 0, "NMIN": 0, "EREF": 0.0, "ISMEAR": 0, "SIGMA": 0.05, "KSPACING": 0.5, "KGAMMA": true, "KBLOWUP": true, "LREAL": true, "ROPT": [-0.0005, -0.0005], "LMAXPAW": -100, "LMAXMIX": 2, "NLSPLINE": false, "ISTART": 0, "ICHARG": 2, "INIWAV": 1, "ISPIN": 1, "LNONCOLLINEAR": false, "MAGMOM": [0.6, 0.6, 0.6, 0.6, 0.6, 0.6, 0.6, 0.6, 0.6, 0.6, 0.6, 0.6, 0.6, 0.6, 0.6, 0.6, 0.6, 0.6, 0.6, 0.6, 0.6, 0.6, 0.6, 0.6, 0.6, 0.6, 0.6, 0.6, 0.6, 0.6, 0.6, 0.6, 0.6, 0.6, 0.6, 0.6, 0.6, 0.6, 0.6, 0.6, 0.6, 0.6, 0.6, 0.6, 0.6, 0.6, 0.6, 0.6, 0.6, 0.6, 0.6, 0.6, 0.6, 0.6, 0.6, 0.6], "NUPDOWN": -1.0, "LSORBIT": false, "SAXIS": [0.0, 0.0, 1.0], "LSPIRAL": false, "QSPIRAL": [0.0, 0.0, 0.0], "LZEROZ": false, "LASPH": false, "LMETAGGA": false, "NELM": 100, "NELMDL": -5, "NELMIN": 6, "ENINI": 520.0, "LDIAG": true, "LSUBROT": false, "WEIMIN": 0.001, "EBREAK": 1e-08, "DEPER": 0.3, "NRMM": 4, "TIME": 0.4, "AMIX": 0.4, "BMIX": 1.0, "AMIN": 0.1, "AMIX_MAG": 1.6, "BMIX_MAG": 1.0, "IMIX": 4, "MIXFIRST": false, "MAXMIX": -45, "WC": 100.0, "INIMIX": 1, "MIXPRE": 1, "MREMOVE": 5, "LDIPOL": false, "LMONO": false, "IDIPOL": 0, "EPSILON": 1.0, "DIPOL": [-100.0, -100.0, -100.0], "EFIELD": 0.0, "NGX": 30, "NGY": 42, "NGZ": 250, "NGXF": 60, "NGYF": 84, "NGZF": 500, "ADDGRID": false, "NSW": 150, "IBRION": 2, "MDALGO": 0, "ISIF": 2, "PSTRESS": 0.0, "EDIFFG": -0.01, "NFREE": 1, "POTIM": 0.5, "SMASS": -3.0, "SCALEE": 1.0, "TEBEG": 0.0001, "TEEND": 0.0001, "NBLOCK": 1, "KBLOCK": 150, "NPACO": 256, "APACO": 10.0, "ISYM": 0, "SYMPREC": 1e-05, "LORBIT": 11, "RWIGS": [-1.0, -1.0], "NEDOS": 301, "EMIN": 10.0, "EMAX": -10.0, "EFERMI": 0.0, "NWRITE": 2, "LWAVE": false, "LDOWNSAMPLE": false, "LCHARG": false, "LPARD": false, "LVTOT": false, "LVHAR": false, "LELF": false, "LOPTICS": false, "STM": [0.0, 0.0, 0.0, 0.0, 0.0, 0.0, 0.0], "NPAR": 1, "NSIM": 4, "NBLK": -1, "LPLANE": true, "LSCALAPACK": true, "LSCAAWARE": false, "LSCALU": false, "LASYNC": false, "LORBITALREAL": false, "IDIOT": 3, "PHON_NSTRUCT": -1, "LMUSIC": false, "POMASS": [7.01, 35.453], "DARWINR": [0.0, 0.0], "DARWINV": [1.0, 1.0], "LCORR": true, "GGA_COMPAT": true, "LBERRY": false, "ICORELEVEL": 0, "LDAU": false, "I_CONSTRAINED_M": 0, "GGA": "--", "VOSKOWN": 0, "LHFCALC": false, "PRECFOCK": "", "LSYMGRAD": false, "LHFONE": false, "LRHFCALC": false, "LTHOMAS": false, "LMODELHF": false, "LFOCKACE": false, "ENCUT4O": -1.0, "EXXOEP": 0, "FOURORBIT": 0, "AEXX": 0.0, "HFALPHA": 0.0, "MCALPHA": 0.0, "ALDAX": 1.0, "AGGAX": 1.0, "ALDAC": 1.0, "AGGAC": 1.0, "NKREDX": 1, "NKREDY": 1, "NKREDZ": 1, "SHIFTRED": false, "ODDONLY": false, "EVENONLY": false, "LMAXFOCK": 0, "NMAXFOCKAE": 0, "LFOCKAEDFT": false, "HFSCREEN": 0.0, "HFSCREENC": 0.0, "NBANDSGWLOW": 0, "LUSE_VDW": false, "Zab_VDW": -0.8491, "PARAM1": 0.1234, "PARAM2": 1.0, "PARAM3": 0.0, "MODEL_GW": 0, "MODEL_EPS0": 17.5575583, "MODEL_ALPHA": 1.0, "LEPSILON": false, "LRPA": false, "LNABLA": false, "LVEL": false, "CSHIFT": 0.1, "OMEGAMAX": -1.0, "DEG_THRESHOLD": 0.002, "RTIME": -0.1, "WPLASMAI": 0.0, "DFIELD": [0.0, 0.0, 0.0], "WPLASMA": [0.0, 0.0, 0.0, 0.0, 0.0, 0.0, 0.0, 0.0, 0.0], "NUCIND": false, "MAGPOS": [0.0, 0.0, 0.0], "LNICSALL": true, "ORBITALMAG": false, "LMAGBLOCH": false, "LCHIMAG": false, "LGAUGE": true, "MAGATOM": 0, "MAGDIPOL": [0.0, 0.0, 0.0], "AVECCONST": [0.0, 0.0, 0.0], "LFINITE_TEMPERATURE": false, "LADDER": false, "LRPAFORCE": false, "LFXC": false, "LHARTREE": true, "IBSE": 0, "KPOINT": [-1, 0, 0, 0], "LTCTC": false, "LTCTE": false, "LTETE": false, "LTRIPLET": false, "LFXCEPS": false, "LFXHEG": false, "NATURALO": 2, "LHOLEGF": false, "L2ORDER": false, "LDMP1": false, "LMP2LT": false, "LSMP2LT": false, "LGWLF": false, "ENCUTGW": -2.0, "ENCUTGWSOFT": -2.0, "ENCUTLF": -1.0, "LESF_SPLINES": false, "LMAXMP2": -1, "SCISSOR": 0.0, "NOMEGA": 0, "NOMEGAR": 0, "NBANDSGW": -1, "NBANDSO": -1, "NBANDSV": -1, "NELMGW": 1, "NELMHF": 1, "DIM": 3, "IESPILON": 4, "ANTIRES": 0, "OMEGAMIN": -30.0, "OMEGATL": -200.0, "OMEGAGRID": 0, "LSELFENERGY": false, "LSPECTRAL": false, "LSPECTRALGW": false, "LSINGLES": false, "LFERMIGW": false, "ODDONLYGW": false, "EVENONLYGW": false, "NKREDLFX": 1, "NKREDLFY": 1, "NKREDLFZ": 1, "MAXMEM": 2800, "TELESCOPE": 0, "NTAUPAR": -1, "NOMEGAPAR": -1, "DAMP_NEWTON": 0.80000001, "LAMBDA": 1.0, "OFIELD_KAPPA": 0.0, "OFIELD_K": [0.0, 0.0, 0.0], "OFIELD_Q6_NEAR": 0.0, "OFIELD_Q6_FAR": 0.0, "OFIELD_A": 0.0, "KPOINTS_OPT_MODE": 1, "LKPOINTS_OPT": false, "@module": "pymatgen.io.vasp.inputs", "@class": "Incar"}, "relaxed_structures": {"@module": "pymatgen.core.structure", "@class": "Structure", "charge": 0, "lattice": {"matrix": [[5.149597, 0.0, 0.0], [0.0, 7.282629, 0.0], [0.0, 0.0, 43.695777]], "a": 5.149597, "b": 7.282629, "c": 43.695777, "alpha": 90.0, "beta": 90.0, "gamma": 90.0, "volume": 1638.7054409888235}, "sites": [{"species": [{"element": "Li", "occu": 1}], "abc": [0.0, 0.62397742, 0.037295560000000005], "xyz": [0.0, 4.54419605423718, 1.6296584728501202], "label": "Li", "properties": {}}, {"species": [{"element": "Li", "occu": 1}], "abc": [0.0, 0.12397742, 0.037295560000000005], "xyz": [0.0, 0.9028815542371801, 1.6296584728501202], "label": "Li", "properties": {}}, {"species": [{"element": "Li", "occu": 1}], "abc": [0.5, 0.87434498, 0.00785413], "xyz": [2.5747985, 6.367530107352421, 0.34319231300901004], "label": "Li", "properties": {}}, {"species": [{"element": "Li", "occu": 1}], "abc": [0.5, 0.37434499, 0.00785413], "xyz": [2.5747985, 2.72621568017871, 0.34319231300901004], "label": "Li", "properties": {}}, {"species": [{"element": "Li", "occu": 1}], "abc": [0.0, 0.12376617, 0.12462296], "xyz": [0.0, 0.90134309886093, 5.44549706923992], "label": "Li", "properties": {}}, {"species": [{"element": "Li", "occu": 1}], "abc": [0.0, 0.62376616, 0.12462296], "xyz": [0.0, 4.54265752603464, 5.44549706923992], "label": "Li", "properties": {}}, {"species": [{"element": "Li", "occu": 1}], "abc": [0.5, 0.37234643, 0.08655623], "xyz": [2.5747985, 2.71166090916447, 3.78214172404071], "label": "Li", "properties": {}}, {"species": [{"element": "Li", "occu": 1}], "abc": [0.5, 0.87234643, 0.08655623], "xyz": [2.5747985, 6.35297540916447, 3.78214172404071], "label": "Li", "properties": {}}, {"species": [{"element": "Li", "occu": 1}], "abc": [0.0, 0.62406394, 0.20856159], "xyz": [0.0, 4.54482614729826, 9.113260727405429], "label": "Li", "properties": {}}, {"species": [{"element": "Li", "occu": 1}], "abc": [0.0, 0.12406394, 0.20856159], "xyz": [0.0, 0.90351164729826, 9.113260727405429], "label": "Li", "properties": {}}, {"species": [{"element": "Li", "occu": 1}], "abc": [0.5, 0.87461036, 0.16792052999999998], "xyz": [2.5747985, 6.3694627714364405, 7.33741803260181], "label": "Li", "properties": {}}, {"species": [{"element": "Li", "occu": 1}], "abc": [0.5, 0.37461035, 0.16792052999999998], "xyz": [2.5747985, 2.7281481986101497, 7.33741803260181], "label": "Li", "properties": {}}, {"species": [{"element": "Li", "occu": 1}], "abc": [0.0, 0.12729538, 0.29118591000000005], "xyz": [0.0, 0.92704502595402, 12.723594588902072], "label": "Li", "properties": {}}, {"species": [{"element": "Li", "occu": 1}], "abc": [0.0, 0.62729538, 0.29118591000000005], "xyz": [0.0, 4.56835952595402, 12.723594588902072], "label": "Li", "properties": {}}, {"species": [{"element": "Li", "occu": 1}], "abc": [0.5, 0.3747589, 0.25023454], "xyz": [2.5747985, 2.7292300331481, 10.93419265753758], "label": "Li", "properties": {}}, {"species": [{"element": "Li", "occu": 1}], "abc": [0.5, 0.8747589, 0.25023454], "xyz": [2.5747985, 6.3705445331481, 10.93419265753758], "label": "Li", "properties": {}}, {"species": [{"element": "Li", "occu": 1}], "abc": [0.0, 0.624199, 0.37349695000000005], "xyz": [0.0, 4.545809739170999, 16.320239437380152], "label": "Li", "properties": {}}, {"species": [{"element": "Li", "occu": 1}], "abc": [0.0, 0.124199, 0.37349695000000005], "xyz": [0.0, 0.904495239171, 16.320239437380152], "label": "Li", "properties": {}}, {"species": [{"element": "Li", "occu": 1}], "abc": [0.5, 0.87497023, 0.33319277], "xyz": [2.5747985, 6.37208357113467, 14.559116975932291], "label": "Li", "properties": {}}, {"species": [{"element": "Li", "occu": 1}], "abc": [0.5, 0.37497023, 0.33319277], "xyz": [2.5747985, 2.73076907113467, 14.559116975932291], "label": "Li", "properties": {}}, {"species": [{"element": "Li", "occu": 1}], "abc": [0.0, 0.1275709, 0.45497467], "xyz": [0.0, 0.9290515358960999, 19.88047172096859], "label": "Li", "properties": {}}, {"species": [{"element": "Li", "occu": 1}], "abc": [0.0, 0.6275709, 0.45497467], "xyz": [0.0, 4.5703660358961, 19.88047172096859], "label": "Li", "properties": {}}, {"species": [{"element": "Li", "occu": 1}], "abc": [0.5, 0.37783166, 0.41692601], "xyz": [2.5747985, 2.75160780423414, 18.21790595845977], "label": "Li", "properties": {}}, {"species": [{"element": "Li", "occu": 1}], "abc": [0.5, 0.87783165, 0.41692601], "xyz": [2.5747985, 6.39292223140785, 18.21790595845977], "label": "Li", "properties": {}}, {"species": [{"element": "Li", "occu": 1}], "abc": [0.0, 0.62464555, 0.53342536], "xyz": [0.0, 4.54906179715095, 23.308435576704717], "label": "Li", "properties": {}}, {"species": [{"element": "Li", "occu": 1}], "abc": [0.0, 0.12464555, 0.53342536], "xyz": [0.0, 0.9077472971509499, 23.308435576704717], "label": "Li", "properties": {}}, {"species": [{"element": "Li", "occu": 1}], "abc": [0.5, 0.87482202, 0.50395479], "xyz": [2.5747985, 6.37100421269058, 22.02069612192183], "label": "Li", "properties": {}}, {"species": [{"element": "Li", "occu": 1}], "abc": [0.5, 0.37482202, 0.50395479], "xyz": [2.5747985, 2.72968971269058, 22.02069612192183], "label": "Li", "properties": {}}, {"species": [{"element": "Cl", "occu": 1}], "abc": [0.5, 0.62412424, 0.04225323], "xyz": [2.5747985, 4.54526528982696, 1.8462877156097102], "label": "Cl", "properties": {}}, {"species": [{"element": "Cl", "occu": 1}], "abc": [0.0, 0.87438983, 9.99999999999994e-05], "xyz": [0.0, 6.3678567332630704, 0.004369577699999973], "label": "Cl", "properties": {}}, {"species": [{"element": "Cl", "occu": 1}], "abc": [0.0, 0.37438983, 0.00010001000000000107], "xyz": [0.0, 2.72654223326307, 0.004370014657770047], "label": "Cl", "properties": {}}, {"species": [{"element": "Cl", "occu": 1}], "abc": [0.5, 0.12412429, 0.04225323], "xyz": [2.5747985, 0.90395115395841, 1.8462877156097102], "label": "Cl", "properties": {}}, {"species": [{"element": "Cl", "occu": 1}], "abc": [0.5, 0.12355192, 0.125937], "xyz": [2.5747985, 0.8997827955976799, 5.502915068049], "label": "Cl", "properties": {}}, {"species": [{"element": "Cl", "occu": 1}], "abc": [0.0, 0.37366285, 0.08414084], "xyz": [0.0, 2.72124790763265, 3.6765993812326796], "label": "Cl", "properties": {}}, {"species": [{"element": "Cl", "occu": 1}], "abc": [0.0, 0.87366285, 0.08414084], "xyz": [0.0, 6.36256240763265, 3.6765993812326796], "label": "Cl", "properties": {}}, {"species": [{"element": "Cl", "occu": 1}], "abc": [0.5, 0.62355191, 0.125937], "xyz": [2.5747985, 4.5410972227713895, 5.502915068049], "label": "Cl", "properties": {}}, {"species": [{"element": "Cl", "occu": 1}], "abc": [0.5, 0.62561819, 0.20876906], "xyz": [2.5747985, 4.55614517342151, 9.12232629025962], "label": "Cl", "properties": {}}, {"species": [{"element": "Cl", "occu": 1}], "abc": [0.0, 0.87503841, 0.16726401], "xyz": [0.0, 6.37258010077989, 7.308730881085769], "label": "Cl", "properties": {}}, {"species": [{"element": "Cl", "occu": 1}], "abc": [0.0, 0.37503841, 0.16726401], "xyz": [0.0, 2.73126560077989, 7.308730881085769], "label": "Cl", "properties": {}}, {"species": [{"element": "Cl", "occu": 1}], "abc": [0.5, 0.12561819, 0.20876906], "xyz": [2.5747985, 0.9148306734215099, 9.12232629025962], "label": "Cl", "properties": {}}, {"species": [{"element": "Cl", "occu": 1}], "abc": [0.5, 0.12468897, 0.29148296], "xyz": [2.5747985, 0.90806350890213, 12.73657441945992], "label": "Cl", "properties": {}}, {"species": [{"element": "Cl", "occu": 1}], "abc": [0.0, 0.37590831, 0.25006787], "xyz": [0.0, 2.7376007597469902, 10.92690988238499], "label": "Cl", "properties": {}}, {"species": [{"element": "Cl", "occu": 1}], "abc": [0.0, 0.87590831, 0.25006787], "xyz": [0.0, 6.37891525974699, 10.92690988238499], "label": "Cl", "properties": {}}, {"species": [{"element": "Cl", "occu": 1}], "abc": [0.5, 0.62468896, 0.29148296], "xyz": [2.5747985, 4.54937793607584, 12.73657441945992], "label": "Cl", "properties": {}}, {"species": [{"element": "Cl", "occu": 1}], "abc": [0.5, 0.6246494, 0.37430606], "xyz": [2.5747985, 4.5490898352726, 16.35559412750862], "label": "Cl", "properties": {}}, {"species": [{"element": "Cl", "occu": 1}], "abc": [0.0, 0.87447763, 0.33275402000000004], "xyz": [0.0, 6.36849614808927, 14.53994545377354], "label": "Cl", "properties": {}}, {"species": [{"element": "Cl", "occu": 1}], "abc": [0.0, 0.37447763, 0.33275402000000004], "xyz": [0.0, 2.72718164808927, 14.53994545377354], "label": "Cl", "properties": {}}, {"species": [{"element": "Cl", "occu": 1}], "abc": [0.5, 0.1246494, 0.37430606], "xyz": [2.5747985, 0.9077753352725999, 16.35559412750862], "label": "Cl", "properties": {}}, {"species": [{"element": "Cl", "occu": 1}], "abc": [0.5, 0.12686758, 0.45733131000000005], "xyz": [2.5747985, 0.92392951726782, 19.983446936877872], "label": "Cl", "properties": {}}, {"species": [{"element": "Cl", "occu": 1}], "abc": [0.0, 0.37638434, 0.41559310000000005], "xyz": [0.0, 2.74106750962986, 18.159663420338703], "label": "Cl", "properties": {}}, {"species": [{"element": "Cl", "occu": 1}], "abc": [0.0, 0.87638435, 0.41559310000000005], "xyz": [0.0, 6.38238208245615, 18.159663420338703], "label": "Cl", "properties": {}}, {"species": [{"element": "Cl", "occu": 1}], "abc": [0.5, 0.62686758, 0.45733131000000005], "xyz": [2.5747985, 4.56524401726782, 19.983446936877872], "label": "Cl", "properties": {}}, {"species": [{"element": "Cl", "occu": 1}], "abc": [0.5, 0.62580623, 0.54113145], "xyz": [2.5747985, 4.5575145989786705, 23.645159166886646], "label": "Cl", "properties": {}}, {"species": [{"element": "Cl", "occu": 1}], "abc": [0.0, 0.87562911, 0.49905536], "xyz": [0.0, 6.37688194973019, 21.80661172121472], "label": "Cl", "properties": {}}, {"species": [{"element": "Cl", "occu": 1}], "abc": [0.0, 0.37562912, 0.49905536], "xyz": [0.0, 2.73556752255648, 21.80661172121472], "label": "Cl", "properties": {}}, {"species": [{"element": "Cl", "occu": 1}], "abc": [0.5, 0.12580624, 0.54113145], "xyz": [2.5747985, 0.91620017180496, 23.645159166886646], "label": "Cl", "properties": {}}]}, "formula": "(LiCl)28.0", "bandgap": 5.2079, "slab_thickness": 23.640789589186646}