{"miller": "111_0.25", "final_energy": -233.88427939, "gamma": 0.024741427095695195, "work_function": 6.017579665170153, "ionization_potentail": -6.2864796651701536, "electron_affinity": -2.551179665170153, "is_stochiometric": true, "incar_parameters": {"SYSTEM": "unknown system", "LCOMPAT": false, "PREC": "normal", "ENMAX": 520.0, "ENAUG": 628.945, "EDIFF": 1e-05, "IALGO": 38, "IWAVPR": 11, "NBANDS": 193, "NBANDSLOW": -1, "NBANDSHIGH": -1, "NELECT": 320.0, "TURBO": 0, "IRESTART": 0, "NREBOOT": 0, "NMIN": 0, "EREF": 0.0, "ISMEAR": 0, "SIGMA": 0.05, "KSPACING": 0.5, "KGAMMA": true, "KBLOWUP": true, "LREAL": true, "ROPT": [-0.0005, -0.0005], "LMAXPAW": -100, "LMAXMIX": 2, "NLSPLINE": false, "ISTART": 0, "ICHARG": 2, "INIWAV": 1, "ISPIN": 1, "LNONCOLLINEAR": false, "MAGMOM": [0.6, 0.6, 0.6, 0.6, 0.6, 0.6, 0.6, 0.6, 0.6, 0.6, 0.6, 0.6, 0.6, 0.6, 0.6, 0.6, 0.6, 0.6, 0.6, 0.6, 0.6, 0.6, 0.6, 0.6, 0.6, 0.6, 0.6, 0.6, 0.6, 0.6, 0.6, 0.6, 0.6, 0.6, 0.6, 0.6, 0.6, 0.6, 0.6, 0.6, 0.6, 0.6, 0.6, 0.6, 0.6, 0.6, 0.6, 0.6, 0.6, 0.6, 0.6, 0.6, 0.6, 0.6, 0.6, 0.6, 0.6, 0.6, 0.6, 0.6, 0.6, 0.6, 0.6, 0.6], "NUPDOWN": -1.0, "LSORBIT": false, "SAXIS": [0.0, 0.0, 1.0], "LSPIRAL": false, "QSPIRAL": [0.0, 0.0, 0.0], "LZEROZ": false, "LASPH": false, "LMETAGGA": false, "NELM": 100, "NELMDL": -5, "NELMIN": 6, "ENINI": 520.0, "LDIAG": true, "LSUBROT": false, "WEIMIN": 0.001, "EBREAK": 1e-08, "DEPER": 0.3, "NRMM": 4, "TIME": 0.4, "AMIX": 0.4, "BMIX": 1.0, "AMIN": 0.1, "AMIX_MAG": 1.6, "BMIX_MAG": 1.0, "IMIX": 4, "MIXFIRST": false, "MAXMIX": -45, "WC": 100.0, "INIMIX": 1, "MIXPRE": 1, "MREMOVE": 5, "LDIPOL": false, "LMONO": false, "IDIPOL": 0, "EPSILON": 1.0, "DIPOL": [-100.0, -100.0, -100.0], "EFIELD": 0.0, "NGX": 42, "NGY": 42, "NGZ": 250, "NGXF": 84, "NGYF": 84, "NGZF": 500, "ADDGRID": false, "NSW": 150, "IBRION": 2, "MDALGO": 0, "ISIF": 2, "PSTRESS": 0.0, "EDIFFG": -0.01, "NFREE": 1, "POTIM": 0.5, "SMASS": -3.0, "SCALEE": 1.0, "TEBEG": 0.0001, "TEEND": 0.0001, "NBLOCK": 1, "KBLOCK": 150, "NPACO": 256, "APACO": 10.0, "ISYM": 0, "SYMPREC": 1e-05, "LORBIT": 11, "RWIGS": [-1.0, -1.0], "NEDOS": 301, "EMIN": 10.0, "EMAX": -10.0, "EFERMI": 0.0, "NWRITE": 2, "LWAVE": false, "LDOWNSAMPLE": false, "LCHARG": false, "LPARD": false, "LVTOT": false, "LVHAR": false, "LELF": false, "LOPTICS": false, "STM": [0.0, 0.0, 0.0, 0.0, 0.0, 0.0, 0.0], "NPAR": 1, "NSIM": 4, "NBLK": -1, "LPLANE": true, "LSCALAPACK": true, "LSCAAWARE": false, "LSCALU": false, "LASYNC": false, "LORBITALREAL": false, "IDIOT": 3, "PHON_NSTRUCT": -1, "LMUSIC": false, "POMASS": [7.01, 35.453], "DARWINR": [0.0, 0.0], "DARWINV": [1.0, 1.0], "LCORR": true, "GGA_COMPAT": true, "LBERRY": false, "ICORELEVEL": 0, "LDAU": false, "I_CONSTRAINED_M": 0, "GGA": "--", "VOSKOWN": 0, "LHFCALC": false, "PRECFOCK": "", "LSYMGRAD": false, "LHFONE": false, "LRHFCALC": false, "LTHOMAS": false, "LMODELHF": false, "LFOCKACE": false, "ENCUT4O": -1.0, "EXXOEP": 0, "FOURORBIT": 0, "AEXX": 0.0, "HFALPHA": 0.0, "MCALPHA": 0.0, "ALDAX": 1.0, "AGGAX": 1.0, "ALDAC": 1.0, "AGGAC": 1.0, "NKREDX": 1, "NKREDY": 1, "NKREDZ": 1, "SHIFTRED": false, "ODDONLY": false, "EVENONLY": false, "LMAXFOCK": 0, "NMAXFOCKAE": 0, "LFOCKAEDFT": false, "HFSCREEN": 0.0, "HFSCREENC": 0.0, "NBANDSGWLOW": 0, "LUSE_VDW": false, "Zab_VDW": -0.8491, "PARAM1": 0.1234, "PARAM2": 1.0, "PARAM3": 0.0, "MODEL_GW": 0, "MODEL_EPS0": 19.20357754, "MODEL_ALPHA": 1.0, "LEPSILON": false, "LRPA": false, "LNABLA": false, "LVEL": false, "CSHIFT": 0.1, "OMEGAMAX": -1.0, "DEG_THRESHOLD": 0.002, "RTIME": -0.1, "WPLASMAI": 0.0, "DFIELD": [0.0, 0.0, 0.0], "WPLASMA": [0.0, 0.0, 0.0, 0.0, 0.0, 0.0, 0.0, 0.0, 0.0], "NUCIND": false, "MAGPOS": [0.0, 0.0, 0.0], "LNICSALL": true, "ORBITALMAG": false, "LMAGBLOCH": false, "LCHIMAG": false, "LGAUGE": true, "MAGATOM": 0, "MAGDIPOL": [0.0, 0.0, 0.0], "AVECCONST": [0.0, 0.0, 0.0], "LFINITE_TEMPERATURE": false, "LADDER": false, "LRPAFORCE": false, "LFXC": false, "LHARTREE": true, "IBSE": 0, "KPOINT": [-1, 0, 0, 0], "LTCTC": false, "LTCTE": false, "LTETE": false, "LTRIPLET": false, "LFXCEPS": false, "LFXHEG": false, "NATURALO": 2, "LHOLEGF": false, "L2ORDER": false, "LDMP1": false, "LMP2LT": false, "LSMP2LT": false, "LGWLF": false, "ENCUTGW": -2.0, "ENCUTGWSOFT": -2.0, "ENCUTLF": -1.0, "LESF_SPLINES": false, "LMAXMP2": -1, "SCISSOR": 0.0, "NOMEGA": 0, "NOMEGAR": 0, "NBANDSGW": -1, "NBANDSO": -1, "NBANDSV": -1, "NELMGW": 1, "NELMHF": 1, "DIM": 3, "IESPILON": 4, "ANTIRES": 0, "OMEGAMIN": -30.0, "OMEGATL": -200.0, "OMEGAGRID": 0, "LSELFENERGY": false, "LSPECTRAL": false, "LSPECTRALGW": false, "LSINGLES": false, "LFERMIGW": false, "ODDONLYGW": false, "EVENONLYGW": false, "NKREDLFX": 1, "NKREDLFY": 1, "NKREDLFZ": 1, "MAXMEM": 2800, "TELESCOPE": 0, "NTAUPAR": -1, "NOMEGAPAR": -1, "DAMP_NEWTON": 0.80000001, "LAMBDA": 1.0, "OFIELD_KAPPA": 0.0, "OFIELD_K": [0.0, 0.0, 0.0], "OFIELD_Q6_NEAR": 0.0, "OFIELD_Q6_FAR": 0.0, "OFIELD_A": 0.0, "KPOINTS_OPT_MODE": 1, "LKPOINTS_OPT": false, "@module": "pymatgen.io.vasp.inputs", "@class": "Incar"}, "relaxed_structures": {"@module": "pymatgen.core.structure", "@class": "Structure", "charge": 0, "lattice": {"matrix": [[7.282629, 0.0, 0.0], [3.641315, 6.306942, 0.0], [0.0, 0.0, 44.596815]], "a": 7.282629, "b": 7.282629492195041, "c": 44.596815, "alpha": 90.0, "beta": 90.0, "gamma": 59.999997693408275, "volume": 2048.3816038760096}, "sites": [{"species": [{"element": "Li", "occu": 1}], "abc": [0.79996539, 0.77350856, 0.9835275099999999], "xyz": [8.64243947036671, 4.8784736244235205, 43.86219441088065], "label": "Li", "properties": {}}, {"species": [{"element": "Li", "occu": 1}], "abc": [0.45661669, 0.51140462, 0.99619596], "xyz": [5.18755526235331, 3.22539927687204, 44.4271669318674], "label": "Li", "properties": {}}, {"species": [{"element": "Li", "occu": 1}], "abc": [0.79788937, 0.1267072, 0.03059818999999999], "xyz": [6.272113092721731, 0.7991349613824, 1.3645818187648495], "label": "Li", "properties": {}}, {"species": [{"element": "Li", "occu": 1}], "abc": [0.3411037, 0.10318029, 0.99343916], "xyz": [2.85984363530865, 0.65075210457318, 44.3042224322754], "label": "Li", "properties": {}}, {"species": [{"element": "Li", "occu": 1}], "abc": [0.51279346, 0.44603997, 0.1014291], "xyz": [5.35865655616689, 2.81314822047174, 4.5234148083165], "label": "Li", "properties": {}}, {"species": [{"element": "Li", "occu": 1}], "abc": [0.96639172, 0.4518199, 0.04731454999999998], "xyz": [8.68309094460038, 2.8496019037458002, 2.1100782331582493], "label": "Li", "properties": {}}, {"species": [{"element": "Li", "occu": 1}], "abc": [0.44595337, 0.99787325, 0.08857090999999999], "xyz": [6.88128377833348, 6.293528711101501, 3.9499804876516493], "label": "Li", "properties": {}}, {"species": [{"element": "Li", "occu": 1}], "abc": [0.15882773, 0.75270765, 0.06121571999999999], "xyz": [3.89752908906192, 4.7472834915063, 2.7300261399317995], "label": "Li", "properties": {}}, {"species": [{"element": "Li", "occu": 1}], "abc": [0.92335247, 0.24867256, 0.19238150999999998], "xyz": [7.6299285980600295, 1.56836341291152, 8.57960261089065], "label": "Li", "properties": {}}, {"species": [{"element": "Li", "occu": 1}], "abc": [0.50825879, 0.19690738, 0.17063911999999998], "xyz": [4.418461999963609, 1.24188342503196, 7.609961266402799], "label": "Li", "properties": {}}, {"species": [{"element": "Li", "occu": 1}], "abc": [0.02130871, 0.66631254, 0.12843349999999998], "xyz": [2.58143727598869, 4.20239454365268, 5.7277250393024985], "label": "Li", "properties": {}}, {"species": [{"element": "Li", "occu": 1}], "abc": [0.46853899, 0.75359391, 0.15333053], "xyz": [6.1562684445963605, 4.75287308192322, 6.83805328026195], "label": "Li", "properties": {}}, {"species": [{"element": "Li", "occu": 1}], "abc": [0.98097682, 0.68853234, 0.21513203999999997], "xyz": [9.65125337528688, 4.34253353350428, 9.594203788452598], "label": "Li", "properties": {}}, {"species": [{"element": "Li", "occu": 1}], "abc": [0.42542739, 0.76182905, 0.23606681999999996], "xyz": [5.87228939500906, 4.804811632265101, 10.527828299178298], "label": "Li", "properties": {}}, {"species": [{"element": "Li", "occu": 1}], "abc": [0.96051156, 0.31801388, 0.27735426], "xyz": [8.15303805314344, 2.0056950963549602, 12.3691166226819], "label": "Li", "properties": {}}, {"species": [{"element": "Li", "occu": 1}], "abc": [0.50997153, 0.21902666, 0.25477526], "xyz": [4.5114785160102695, 1.38138844107372, 11.3621651367969], "label": "Li", "properties": {}}, {"species": [{"element": "Li", "occu": 1}], "abc": [0.2905378, 0.55442379, 0.30597352], "xyz": [4.13471067076005, 3.49671868695018, 13.6454444663388], "label": "Li", "properties": {}}, {"species": [{"element": "Li", "occu": 1}], "abc": [0.88072426, 0.55822174, 0.36738415], "xyz": [8.44664923206764, 3.5206721373190804, 16.38416297148225], "label": "Li", "properties": {}}, {"species": [{"element": "Li", "occu": 1}], "abc": [0.32945954, 0.03800035, 0.32506806], "xyz": [2.53770284479091, 0.23966600342970001, 14.4970001342289], "label": "Li", "properties": {}}, {"species": [{"element": "Li", "occu": 1}], "abc": [0.79923204, 0.1004224, 0.34460451], "xyz": [6.18618002368916, 0.6333582523008, 15.368263580635649], "label": "Li", "properties": {}}, {"species": [{"element": "Li", "occu": 1}], "abc": [0.8721972, 0.15708623, 0.42400875], "xyz": [6.92388906803125, 0.99073374160866, 18.909439782131248], "label": "Li", "properties": {}}, {"species": [{"element": "Li", "occu": 1}], "abc": [0.42829063, 0.09119862, 0.40630907], "xyz": [3.45116466545157, 0.57518440682004, 18.12009042761205], "label": "Li", "properties": {}}, {"species": [{"element": "Li", "occu": 1}], "abc": [0.96290874, 0.60874838, 0.45056042], "xyz": [9.22915172159716, 3.83934072525396, 20.0935596970623], "label": "Li", "properties": {}}, {"species": [{"element": "Li", "occu": 1}], "abc": [0.32994147, 0.650757, 0.38885182], "xyz": [4.7724525431796305, 4.1042866550940005, 17.3415526789533], "label": "Li", "properties": {}}, {"species": [{"element": "Li", "occu": 1}], "abc": [0.91137136, 0.43946042, 0.5173183], "xyz": [8.23739331535774, 2.77165138023564, 23.0707485212145], "label": "Li", "properties": {}}, {"species": [{"element": "Li", "occu": 1}], "abc": [0.18828632, 0.64899112, 0.52931417], "xyz": [3.7344005144580805, 4.093149352355041, 23.60572611636855], "label": "Li", "properties": {}}, {"species": [{"element": "Li", "occu": 1}], "abc": [0.64227799, 0.18192049, 0.49028447999999997], "xyz": [5.33990212508006, 1.1473619790415799, 21.865126251931198], "label": "Li", "properties": {}}, {"species": [{"element": "Li", "occu": 1}], "abc": [0.1964291, 0.10720875, 0.47422569], "xyz": [1.82090108961015, 0.6761593681425001, 21.148955365177347], "label": "Li", "properties": {}}, {"species": [{"element": "Li", "occu": 1}], "abc": [0.54131116, 0.25466742, 0.5814675199999999], "xyz": [4.86949264829694, 1.60617264722964, 25.931599417948796], "label": "Li", "properties": {}}, {"species": [{"element": "Li", "occu": 1}], "abc": [0.1340708, 0.14169849, 0.5802778199999999], "xyz": [1.49235673324755, 0.8936841579175802, 25.878542587143297], "label": "Li", "properties": {}}, {"species": [{"element": "Li", "occu": 1}], "abc": [0.51911062, 0.80610133, 0.54470212], "xyz": [6.71575891986893, 5.08403433443286, 24.291979675747797], "label": "Li", "properties": {}}, {"species": [{"element": "Li", "occu": 1}], "abc": [0.86714189, 0.79432863, 0.59339327], "xyz": [9.20747343057726, 5.00978459834946, 26.463449884435047], "label": "Li", "properties": {}}, {"species": [{"element": "Cl", "occu": 1}], "abc": [0.50199215, 0.76208896, 0.9709164899999999], "xyz": [6.430828550744749, 4.8064508695603205, 43.299783084979346], "label": "Cl", "properties": {}}, {"species": [{"element": "Cl", "occu": 1}], "abc": [0.66209463, 0.1411882, 0.98299319], "xyz": [5.335900263665271, 0.8904657884844002, 43.83836544068985], "label": "Cl", "properties": {}}, {"species": [{"element": "Cl", "occu": 1}], "abc": [0.78212181, 0.85558726, 0.055658299999999994], "xyz": [8.81136569868539, 5.39613922475892, 2.4821829083144995], "label": "Cl", "properties": {}}, {"species": [{"element": "Cl", "occu": 1}], "abc": [0.60777536, 0.47331406, 0.049244019999999986], "xyz": [6.14968804861034, 2.98516432420452, 2.1961264497962993], "label": "Cl", "properties": {}}, {"species": [{"element": "Cl", "occu": 1}], "abc": [0.12730584, 0.50196461, 9.999999999998899e-05], "xyz": [2.7549324661155103, 3.16586168132262, 0.004459681499999509], "label": "Cl", "properties": {}}, {"species": [{"element": "Cl", "occu": 1}], "abc": [0.15198895, 0.04851145, 0.03461220999999999], "xyz": [1.2835246055063, 0.3059589014859, 1.5435943261111496], "label": "Cl", "properties": {}}, {"species": [{"element": "Cl", "occu": 1}], "abc": [0.24616267, 0.82273578, 0.10897588], "xyz": [4.7885515360101305, 5.18894684578476, 4.8599771598222], "label": "Cl", "properties": {}}, {"species": [{"element": "Cl", "occu": 1}], "abc": [0.21929839, 0.38608819, 0.08783991], "xyz": [3.0029375322371603, 2.43503582121498, 3.9173802158866495], "label": "Cl", "properties": {}}, {"species": [{"element": "Cl", "occu": 1}], "abc": [0.68716104, 0.38427924, 0.14785536999999999], "xyz": [6.403620678374761, 2.42362687848408, 6.593878582646549], "label": "Cl", "properties": {}}, {"species": [{"element": "Cl", "occu": 1}], "abc": [0.65373128, 0.91721055, 0.13314272], "xyz": [8.10073491180837, 5.7847937406381, 5.937741252436799], "label": "Cl", "properties": {}}, {"species": [{"element": "Cl", "occu": 1}], "abc": [0.7980115, 0.511422, 0.23349955], "xyz": [7.6738702921635, 3.2255088915240004, 10.41333623393325], "label": "Cl", "properties": {}}, {"species": [{"element": "Cl", "occu": 1}], "abc": [0.73289914, 0.06233211, 0.21367945], "xyz": [5.564403378163711, 0.39312500250762006, 9.529422900951749], "label": "Cl", "properties": {}}, {"species": [{"element": "Cl", "occu": 1}], "abc": [0.27294248, 0.95363929, 0.19295519], "xyz": [5.46023987144627, 6.01454769095118, 8.60518691171985], "label": "Cl", "properties": {}}, {"species": [{"element": "Cl", "occu": 1}], "abc": [0.15256424, 0.48423434, 0.1725601], "xyz": [2.87431852434406, 3.05403789678828, 7.695630856081499], "label": "Cl", "properties": {}}, {"species": [{"element": "Cl", "occu": 1}], "abc": [0.66819591, 0.28056054, 0.30046224], "xyz": [5.88783221455749, 1.7694790532686802, 13.3996589317656], "label": "Cl", "properties": {}}, {"species": [{"element": "Cl", "occu": 1}], "abc": [0.33689238, 0.03102521, 0.27304846], "xyz": [2.56643477901817, 0.19567420000782001, 12.1770916566549], "label": "Cl", "properties": {}}, {"species": [{"element": "Cl", "occu": 1}], "abc": [0.2424146, 0.58825464, 0.25412413], "xyz": [3.907436040435001, 3.7100878957108803, 11.33312681264595], "label": "Cl", "properties": {}}, {"species": [{"element": "Cl", "occu": 1}], "abc": [0.08052344, 0.40837533, 0.32511855], "xyz": [2.07344555408271, 2.57559952054086, 14.49925182741825], "label": "Cl", "properties": {}}, {"species": [{"element": "Cl", "occu": 1}], "abc": [0.1726333, 0.83896801, 0.34420611], "xyz": [4.31217107627885, 5.291322578925421, 15.350496209539651], "label": "Cl", "properties": {}}, {"species": [{"element": "Cl", "occu": 1}], "abc": [0.15445228, 0.46450088, 0.4063013], "xyz": [2.81621267530132, 2.92958010910896, 18.1197439103595], "label": "Cl", "properties": {}}, {"species": [{"element": "Cl", "occu": 1}], "abc": [0.69733785, 0.3774269, 0.38386259], "xyz": [6.452783081581151, 2.3804095675398003, 17.11904891165085], "label": "Cl", "properties": {}}, {"species": [{"element": "Cl", "occu": 1}], "abc": [0.61365623, 0.92650369, 0.36217304], "xyz": [7.842722440581021, 5.84340503561598, 16.1517640628676], "label": "Cl", "properties": {}}, {"species": [{"element": "Cl", "occu": 1}], "abc": [0.81870362, 0.37514539, 0.46829679], "xyz": [7.32833726120483, 2.3660202162973802, 20.88454530872385], "label": "Cl", "properties": {}}, {"species": [{"element": "Cl", "occu": 1}], "abc": [0.70636549, 0.97639708, 0.44440173], "xyz": [8.69956713543341, 6.1580797525293605, 19.81890173848995], "label": "Cl", "properties": {}}, {"species": [{"element": "Cl", "occu": 1}], "abc": [0.2439219, 0.92567837, 0.42860869], "xyz": [5.14707923653165, 5.83819979024454, 19.11458245532235], "label": "Cl", "properties": {}}, {"species": [{"element": "Cl", "occu": 1}], "abc": [0.25349823, 0.39938841, 0.48919166], "xyz": [3.30043256940582, 2.5189195373422204, 21.816389960562898], "label": "Cl", "properties": {}}, {"species": [{"element": "Cl", "occu": 1}], "abc": [0.78835569, 0.8304385, 0.5209227900000001], "xyz": [8.76519017693651, 5.237527454067, 23.231497294913854], "label": "Cl", "properties": {}}, {"species": [{"element": "Cl", "occu": 1}], "abc": [0.59627322, 0.45186557, 0.5410667499999999], "xyz": [5.987821521919931, 2.84988994178694, 24.129853752401246], "label": "Cl", "properties": {}}, {"species": [{"element": "Cl", "occu": 1}], "abc": [0.13869319, 0.47183539, 0.5747904199999999], "xyz": [2.72815233073436, 2.97583843827738, 25.633822024512295], "label": "Cl", "properties": {}}, {"species": [{"element": "Cl", "occu": 1}], "abc": [0.17228055, 0.00313925, 0.5260961900000001], "xyz": [1.2660863276796999, 0.019799067673500002, 23.462214457634854], "label": "Cl", "properties": {}}, {"species": [{"element": "Cl", "occu": 1}], "abc": [0.50043569, 0.93650949, 0.5928136199999999], "xyz": [7.05461352220836, 5.90651103587958, 26.437599340620295], "label": "Cl", "properties": {}}, {"species": [{"element": "Cl", "occu": 1}], "abc": [0.88147229, 0.09336037, 0.6039081099999999], "xyz": [6.75939017753696, 0.58881843868854, 26.932378258669644], "label": "Cl", "properties": {}}]}, "formula": "(LiCl)32.0", "bandgap": 3.7352999999999996, "slab_thickness": 44.422707250367395}