{"miller": "210_0.13", "final_energy": -353.04769944, "gamma": 0.010016757942919887, "work_function": 6.717134234449414, "ionization_potentail": -7.079734234449415, "electron_affinity": -1.3116342344494143, "is_stochiometric": true, "incar_parameters": {"SYSTEM": "unknown system", "LCOMPAT": false, "PREC": "normal", "ENMAX": 520.0, "ENAUG": 628.945, "EDIFF": 1e-05, "IALGO": 38, "IWAVPR": 11, "NBANDS": 289, "NBANDSLOW": -1, "NBANDSHIGH": -1, "NELECT": 480.0, "TURBO": 0, "IRESTART": 0, "NREBOOT": 0, "NMIN": 0, "EREF": 0.0, "ISMEAR": 0, "SIGMA": 0.05, "KSPACING": 0.5, "KGAMMA": true, "KBLOWUP": true, "LREAL": true, "ROPT": [-0.0005, -0.0005], "LMAXPAW": -100, "LMAXMIX": 2, "NLSPLINE": false, "ISTART": 0, "ICHARG": 2, "INIWAV": 1, "ISPIN": 1, "LNONCOLLINEAR": false, "MAGMOM": [0.6, 0.6, 0.6, 0.6, 0.6, 0.6, 0.6, 0.6, 0.6, 0.6, 0.6, 0.6, 0.6, 0.6, 0.6, 0.6, 0.6, 0.6, 0.6, 0.6, 0.6, 0.6, 0.6, 0.6, 0.6, 0.6, 0.6, 0.6, 0.6, 0.6, 0.6, 0.6, 0.6, 0.6, 0.6, 0.6, 0.6, 0.6, 0.6, 0.6, 0.6, 0.6, 0.6, 0.6, 0.6, 0.6, 0.6, 0.6, 0.6, 0.6, 0.6, 0.6, 0.6, 0.6, 0.6, 0.6, 0.6, 0.6, 0.6, 0.6, 0.6, 0.6, 0.6, 0.6, 0.6, 0.6, 0.6, 0.6, 0.6, 0.6, 0.6, 0.6, 0.6, 0.6, 0.6, 0.6, 0.6, 0.6, 0.6, 0.6, 0.6, 0.6, 0.6, 0.6, 0.6, 0.6, 0.6, 0.6, 0.6, 0.6, 0.6, 0.6, 0.6, 0.6, 0.6, 0.6], "NUPDOWN": -1.0, "LSORBIT": false, "SAXIS": [0.0, 0.0, 1.0], "LSPIRAL": false, "QSPIRAL": [0.0, 0.0, 0.0], "LZEROZ": false, "LASPH": false, "LMETAGGA": false, "NELM": 100, "NELMDL": -5, "NELMIN": 6, "ENINI": 520.0, "LDIAG": true, "LSUBROT": false, "WEIMIN": 0.001, "EBREAK": 1e-08, "DEPER": 0.3, "NRMM": 4, "TIME": 0.4, "AMIX": 0.4, "BMIX": 1.0, "AMIN": 0.1, "AMIX_MAG": 1.6, "BMIX_MAG": 1.0, "IMIX": 4, "MIXFIRST": false, "MAXMIX": -45, "WC": 100.0, "INIMIX": 1, "MIXPRE": 1, "MREMOVE": 5, "LDIPOL": false, "LMONO": false, "IDIPOL": 0, "EPSILON": 1.0, "DIPOL": [-100.0, -100.0, -100.0], "EFIELD": 0.0, "NGX": 30, "NGY": 64, "NGZ": 270, "NGXF": 60, "NGYF": 128, "NGZF": 540, "ADDGRID": false, "NSW": 150, "IBRION": 2, "MDALGO": 0, "ISIF": 2, "PSTRESS": 0.0, "EDIFFG": -0.01, "NFREE": 1, "POTIM": 0.5, "SMASS": -3.0, "SCALEE": 1.0, "TEBEG": 0.0001, "TEEND": 0.0001, "NBLOCK": 1, "KBLOCK": 150, "NPACO": 256, "APACO": 10.0, "ISYM": 0, "SYMPREC": 1e-05, "LORBIT": 11, "RWIGS": [-1.0, -1.0], "NEDOS": 301, "EMIN": 10.0, "EMAX": -10.0, "EFERMI": 0.0, "NWRITE": 2, "LWAVE": false, "LDOWNSAMPLE": false, "LCHARG": false, "LPARD": false, "LVTOT": false, "LVHAR": false, "LELF": false, "LOPTICS": false, "STM": [0.0, 0.0, 0.0, 0.0, 0.0, 0.0, 0.0], "NPAR": 1, "NSIM": 4, "NBLK": -1, "LPLANE": true, "LSCALAPACK": true, "LSCAAWARE": false, "LSCALU": false, "LASYNC": false, "LORBITALREAL": false, "IDIOT": 3, "PHON_NSTRUCT": -1, "LMUSIC": false, "POMASS": [7.01, 35.453], "DARWINR": [0.0, 0.0], "DARWINV": [1.0, 1.0], "LCORR": true, "GGA_COMPAT": true, "LBERRY": false, "ICORELEVEL": 0, "LDAU": false, "I_CONSTRAINED_M": 0, "GGA": "--", "VOSKOWN": 0, "LHFCALC": false, "PRECFOCK": "", "LSYMGRAD": false, "LHFONE": false, "LRHFCALC": false, "LTHOMAS": false, "LMODELHF": false, "LFOCKACE": false, "ENCUT4O": -1.0, "EXXOEP": 0, "FOURORBIT": 0, "AEXX": 0.0, "HFALPHA": 0.0, "MCALPHA": 0.0, "ALDAX": 1.0, "AGGAX": 1.0, "ALDAC": 1.0, "AGGAC": 1.0, "NKREDX": 1, "NKREDY": 1, "NKREDZ": 1, "SHIFTRED": false, "ODDONLY": false, "EVENONLY": false, "LMAXFOCK": 0, "NMAXFOCKAE": 0, "LFOCKAEDFT": false, "HFSCREEN": 0.0, "HFSCREENC": 0.0, "NBANDSGWLOW": 0, "LUSE_VDW": false, "Zab_VDW": -0.8491, "PARAM1": 0.1234, "PARAM2": 1.0, "PARAM3": 0.0, "MODEL_GW": 0, "MODEL_EPS0": 17.06984903, "MODEL_ALPHA": 1.0, "LEPSILON": false, "LRPA": false, "LNABLA": false, "LVEL": false, "CSHIFT": 0.1, "OMEGAMAX": -1.0, "DEG_THRESHOLD": 0.002, "RTIME": -0.1, "WPLASMAI": 0.0, "DFIELD": [0.0, 0.0, 0.0], "WPLASMA": [0.0, 0.0, 0.0, 0.0, 0.0, 0.0, 0.0, 0.0, 0.0], "NUCIND": false, "MAGPOS": [0.0, 0.0, 0.0], "LNICSALL": true, "ORBITALMAG": false, "LMAGBLOCH": false, "LCHIMAG": false, "LGAUGE": true, "MAGATOM": 0, "MAGDIPOL": [0.0, 0.0, 0.0], "AVECCONST": [0.0, 0.0, 0.0], "LFINITE_TEMPERATURE": false, "LADDER": false, "LRPAFORCE": false, "LFXC": false, "LHARTREE": true, "IBSE": 0, "KPOINT": [-1, 0, 0, 0], "LTCTC": false, "LTCTE": false, "LTETE": false, "LTRIPLET": false, "LFXCEPS": false, "LFXHEG": false, "NATURALO": 2, "LHOLEGF": false, "L2ORDER": false, "LDMP1": false, "LMP2LT": false, "LSMP2LT": false, "LGWLF": false, "ENCUTGW": -2.0, "ENCUTGWSOFT": -2.0, "ENCUTLF": -1.0, "LESF_SPLINES": false, "LMAXMP2": -1, "SCISSOR": 0.0, "NOMEGA": 0, "NOMEGAR": 0, "NBANDSGW": -1, "NBANDSO": -1, "NBANDSV": -1, "NELMGW": 1, "NELMHF": 1, "DIM": 3, "IESPILON": 4, "ANTIRES": 0, "OMEGAMIN": -30.0, "OMEGATL": -200.0, "OMEGAGRID": 0, "LSELFENERGY": false, "LSPECTRAL": false, "LSPECTRALGW": false, "LSINGLES": false, "LFERMIGW": false, "ODDONLYGW": false, "EVENONLYGW": false, "NKREDLFX": 1, "NKREDLFY": 1, "NKREDLFZ": 1, "MAXMEM": 2800, "TELESCOPE": 0, "NTAUPAR": -1, "NOMEGAPAR": -1, "DAMP_NEWTON": 0.80000001, "LAMBDA": 1.0, "OFIELD_KAPPA": 0.0, "OFIELD_K": [0.0, 0.0, 0.0], "OFIELD_Q6_NEAR": 0.0, "OFIELD_Q6_FAR": 0.0, "OFIELD_A": 0.0, "KPOINTS_OPT_MODE": 1, "LKPOINTS_OPT": false, "@module": "pymatgen.io.vasp.inputs", "@class": "Incar"}, "relaxed_structures": {"@module": "pymatgen.core.structure", "@class": "Structure", "charge": 0, "lattice": {"matrix": [[5.149597, 0.0, 0.0], [0.0, 11.514848, 0.0], [0.0, 0.0, 46.059393]], "a": 5.149597, "b": 11.514848, "c": 46.059393, "alpha": 90.0, "beta": 90.0, "gamma": 90.0, "volume": 2731.1758453769344}, "sites": [{"species": [{"element": "Li", "occu": 1}], "abc": [2e-08, 0.41025494, 0.029703079999999996], "xyz": [1.0299194000000001e-07, 4.72402327534912, 1.3681058350304398], "label": "Li", "properties": {}}, {"species": [{"element": "Li", "occu": 1}], "abc": [0.0, 0.82889193, 0.07677534], "xyz": [0.0, 9.54456458237664, 3.5362255577686197], "label": "Li", "properties": {}}, {"species": [{"element": "Li", "occu": 1}], "abc": [1e-08, 0.12749121, 0.046070169999999994], "xyz": [5.1495970000000004e-08, 1.46804190448608, 2.1219640656068095], "label": "Li", "properties": {}}, {"species": [{"element": "Li", "occu": 1}], "abc": [0.0, 0.74278342, 0.0069181], "xyz": [0.0, 8.55303817822016, 0.3186434867133], "label": "Li", "properties": {}}, {"species": [{"element": "Li", "occu": 1}], "abc": [0.49999999, 0.32889079, 0.07677519], "xyz": [2.57479844850403, 3.78712745544992, 3.53621864885967], "label": "Li", "properties": {}}, {"species": [{"element": "Li", "occu": 1}], "abc": [0.49999999, 0.91025564, 0.02970336], "xyz": [2.57479844850403, 10.481455335742721, 1.3681187316604801], "label": "Li", "properties": {}}, {"species": [{"element": "Li", "occu": 1}], "abc": [0.5, 0.24278268, 0.0069183399999999985], "xyz": [2.5747985, 2.79560565723264, 0.3186545409676199], "label": "Li", "properties": {}}, {"species": [{"element": "Li", "occu": 1}], "abc": [0.5, 0.62749099, 0.046069879999999994], "xyz": [2.5747985, 7.22546337121952, 2.1219507083828395], "label": "Li", "properties": {}}, {"species": [{"element": "Li", "occu": 1}], "abc": [0.0, 0.22050134, 0.12640432000000001], "xyz": [0.0, 2.53903941389632, 5.822106251777761], "label": "Li", "properties": {}}, {"species": [{"element": "Li", "occu": 1}], "abc": [0.0, 0.62278801, 0.17608220000000002], "xyz": [0.0, 7.17130927137248, 8.110239250104602], "label": "Li", "properties": {}}, {"species": [{"element": "Li", "occu": 1}], "abc": [0.0, 0.92271611, 0.15090941000000002], "xyz": [0.0, 10.62493575380128, 6.950795822588131], "label": "Li", "properties": {}}, {"species": [{"element": "Li", "occu": 1}], "abc": [1e-08, 0.52371311, 0.10175489], "xyz": [5.1495970000000004e-08, 6.03047685725728, 4.68676846818177], "label": "Li", "properties": {}}, {"species": [{"element": "Li", "occu": 1}], "abc": [0.5, 0.12278749, 0.17608216000000002], "xyz": [2.5747985, 1.4138792836515202, 8.110237407728881], "label": "Li", "properties": {}}, {"species": [{"element": "Li", "occu": 1}], "abc": [0.5, 0.72050229, 0.12640444], "xyz": [2.5747985, 8.296474353001921, 5.822111778904921], "label": "Li", "properties": {}}, {"species": [{"element": "Li", "occu": 1}], "abc": [0.5, 0.02371286, 0.10175477999999999], "xyz": [2.5747985, 0.27304997854528, 4.686763401648539], "label": "Li", "properties": {}}, {"species": [{"element": "Li", "occu": 1}], "abc": [0.5, 0.42271577, 0.15090963000000002], "xyz": [2.5747985, 4.86750783875296, 6.950805955654591], "label": "Li", "properties": {}}, {"species": [{"element": "Li", "occu": 1}], "abc": [0.0, 0.02382691, 0.22553191], "xyz": [0.0, 0.27436324695968, 10.38786287673063], "label": "Li", "properties": {}}, {"species": [{"element": "Li", "occu": 1}], "abc": [0.0, 0.42505365, 0.27564272], "xyz": [0.0, 4.894428171595201, 12.69593636806896], "label": "Li", "properties": {}}, {"species": [{"element": "Li", "occu": 1}], "abc": [0.0, 0.72597403, 0.25077583], "xyz": [0.0, 8.35948060739744, 11.550582508871189], "label": "Li", "properties": {}}, {"species": [{"element": "Li", "occu": 1}], "abc": [0.0, 0.32420925, 0.20095972], "xyz": [0.0, 3.7332202339440004, 9.25608272064996], "label": "Li", "properties": {}}, {"species": [{"element": "Li", "occu": 1}], "abc": [0.5, 0.92505351, 0.27564269999999996], "xyz": [2.5747985, 10.65185055951648, 12.695935446881098], "label": "Li", "properties": {}}, {"species": [{"element": "Li", "occu": 1}], "abc": [0.5, 0.52382697, 0.22553196], "xyz": [2.5747985, 6.03178793785056, 10.387865179700281], "label": "Li", "properties": {}}, {"species": [{"element": "Li", "occu": 1}], "abc": [0.5, 0.82420957, 0.20095961], "xyz": [2.5747985, 9.49064791869536, 9.25607765411673], "label": "Li", "properties": {}}, {"species": [{"element": "Li", "occu": 1}], "abc": [0.5, 0.22597414, 0.25077583], "xyz": [2.5747985, 2.60205787403072, 11.550582508871189], "label": "Li", "properties": {}}, {"species": [{"element": "Li", "occu": 1}], "abc": [0.0, 0.82543019, 0.3256129], "xyz": [0.0, 9.50470317246112, 14.9975325269697], "label": "Li", "properties": {}}, {"species": [{"element": "Li", "occu": 1}], "abc": [0.0, 0.22551599, 0.37516677], "xyz": [0.0, 2.5967823464195203, 17.27995369997061], "label": "Li", "properties": {}}, {"species": [{"element": "Li", "occu": 1}], "abc": [0.0, 0.52561706, 0.35042736999999996], "xyz": [0.0, 6.05240055210688, 16.14047195278641], "label": "Li", "properties": {}}, {"species": [{"element": "Li", "occu": 1}], "abc": [0.0, 0.12632878, 0.30053446], "xyz": [0.0, 1.4546566997254402, 13.84243480318278], "label": "Li", "properties": {}}, {"species": [{"element": "Li", "occu": 1}], "abc": [0.5, 0.72551617, 0.37516691999999996], "xyz": [2.5747985, 8.35420841909216, 17.27996060887956], "label": "Li", "properties": {}}, {"species": [{"element": "Li", "occu": 1}], "abc": [0.5, 0.32543015, 0.32561271999999997], "xyz": [2.5747985, 3.7472787118672, 14.997524236278958], "label": "Li", "properties": {}}, {"species": [{"element": "Li", "occu": 1}], "abc": [0.5, 0.62632898, 0.30053449], "xyz": [2.5747985, 7.21208300269504, 13.84243618496457], "label": "Li", "properties": {}}, {"species": [{"element": "Li", "occu": 1}], "abc": [0.5, 0.02561589, 0.35042756999999997], "xyz": [2.5747985, 0.29496307973472, 16.140481164665008], "label": "Li", "properties": {}}, {"species": [{"element": "Li", "occu": 1}], "abc": [0.0, 0.62572335, 0.42523882999999996], "xyz": [0.0, 7.2051092653008, 19.586242389830186], "label": "Li", "properties": {}}, {"species": [{"element": "Li", "occu": 1}], "abc": [0.99999999, 0.02739837, 0.47431501], "xyz": [5.14959694850403, 0.31548806599775997, 21.84666145138893], "label": "Li", "properties": {}}, {"species": [{"element": "Li", "occu": 1}], "abc": [0.0, 0.32975051, 0.44974735], "xyz": [0.0, 3.79702700057248, 20.71508994435855], "label": "Li", "properties": {}}, {"species": [{"element": "Li", "occu": 1}], "abc": [0.0, 0.92640336, 0.40003602], "xyz": [0.0, 10.66739387708928, 18.425416259335858], "label": "Li", "properties": {}}, {"species": [{"element": "Li", "occu": 1}], "abc": [0.5, 0.52739864, 0.47431524999999997], "xyz": [2.5747985, 6.07291517500672, 21.846672505643248], "label": "Li", "properties": {}}, {"species": [{"element": "Li", "occu": 1}], "abc": [0.5, 0.1257219, 0.42523890999999997], "xyz": [2.5747985, 1.4476685687712, 19.586246074581627], "label": "Li", "properties": {}}, {"species": [{"element": "Li", "occu": 1}], "abc": [0.5, 0.42640291, 0.40003582], "xyz": [2.5747985, 4.90996469540768, 18.42540704745726], "label": "Li", "properties": {}}, {"species": [{"element": "Li", "occu": 1}], "abc": [0.50000001, 0.82975062, 0.44974718999999996], "xyz": [2.57479855149597, 9.554452267205761, 20.715082574855668], "label": "Li", "properties": {}}, {"species": [{"element": "Li", "occu": 1}], "abc": [0.0, 0.42266764, 0.53019224], "xyz": [0.0, 4.86695362911872, 24.42033274771032], "label": "Li", "properties": {}}, {"species": [{"element": "Li", "occu": 1}], "abc": [0.0, 0.80564843, 0.56926919], "xyz": [0.0, 9.27691921288864, 26.220193345001668], "label": "Li", "properties": {}}, {"species": [{"element": "Li", "occu": 1}], "abc": [0.99999998, 0.13867847, 0.54631606], "xyz": [5.14959689700806, 1.5968615029225601, 25.16298610975158], "label": "Li", "properties": {}}, {"species": [{"element": "Li", "occu": 1}], "abc": [1e-08, 0.72110893, 0.49955359999999993], "xyz": [5.1495970000000004e-08, 8.30345972039264, 23.009135586964796], "label": "Li", "properties": {}}, {"species": [{"element": "Li", "occu": 1}], "abc": [0.5, 0.30564824, 0.56926914], "xyz": [2.5747985, 3.5194930250675203, 26.220191042032017], "label": "Li", "properties": {}}, {"species": [{"element": "Li", "occu": 1}], "abc": [0.5, 0.92266752, 0.53019225], "xyz": [2.5747985, 10.62437624733696, 24.42033320830425], "label": "Li", "properties": {}}, {"species": [{"element": "Li", "occu": 1}], "abc": [0.5, 0.22110732, 0.49955377], "xyz": [2.5747985, 2.5460171814873602, 23.009143417061612], "label": "Li", "properties": {}}, {"species": [{"element": "Li", "occu": 1}], "abc": [0.49999999, 0.63867878, 0.54631583], "xyz": [2.57479844850403, 7.35428907252544, 25.162975516091187], "label": "Li", "properties": {}}, {"species": [{"element": "Cl", "occu": 1}], "abc": [0.50000001, 0.427214, 0.027138029999999997], "xyz": [2.57479855149597, 4.919304273472, 1.2499611890157898], "label": "Cl", "properties": {}}, {"species": [{"element": "Cl", "occu": 1}], "abc": [0.50000001, 0.82115297, 0.07704981], "xyz": [2.57479855149597, 9.45545163429856, 3.5488674793653296], "label": "Cl", "properties": {}}, {"species": [{"element": "Cl", "occu": 1}], "abc": [2e-08, 0.32115235, 0.07705007999999999], "xyz": [1.0299194000000001e-07, 3.6980204950927997, 3.54887991540144], "label": "Cl", "properties": {}}, {"species": [{"element": "Cl", "occu": 1}], "abc": [0.0, 0.92721289, 0.02713776], "xyz": [0.0, 10.67671549199072, 1.24994875297968], "label": "Cl", "properties": {}}, {"species": [{"element": "Cl", "occu": 1}], "abc": [2e-08, 0.23828103, 0.00010005999999999904], "xyz": [1.0299194000000001e-07, 2.74376984173344, 0.004608702863579956], "label": "Cl", "properties": {}}, {"species": [{"element": "Cl", "occu": 1}], "abc": [0.99999999, 0.62045788, 0.0489511], "xyz": [5.14959694850403, 7.144478178602241, 2.2546579526823], "label": "Cl", "properties": {}}, {"species": [{"element": "Cl", "occu": 1}], "abc": [0.49999997, 0.12045763, 0.048951209999999995], "xyz": [2.57479834551209, 1.38705129989024, 2.25466301921553], "label": "Cl", "properties": {}}, {"species": [{"element": "Cl", "occu": 1}], "abc": [0.5, 0.73828119, 9.99999999999994e-05], "xyz": [2.5747985, 8.50119568410912, 0.004605939299999972], "label": "Cl", "properties": {}}, {"species": [{"element": "Cl", "occu": 1}], "abc": [0.49999999, 0.22229176, 0.12586433], "xyz": [2.57479844850403, 2.55965582805248, 5.797234640151689], "label": "Cl", "properties": {}}, {"species": [{"element": "Cl", "occu": 1}], "abc": [0.5, 0.62346258, 0.17608541], "xyz": [2.5747985, 7.179076842387841, 8.11038710075613], "label": "Cl", "properties": {}}, {"species": [{"element": "Cl", "occu": 1}], "abc": [0.0, 0.12346239, 0.17608533], "xyz": [0.0, 1.4216506545667202, 8.11038341600469], "label": "Cl", "properties": {}}, {"species": [{"element": "Cl", "occu": 1}], "abc": [0.0, 0.72229078, 0.12586421], "xyz": [0.0, 8.31706854350144, 5.79722911302453], "label": "Cl", "properties": {}}, {"species": [{"element": "Cl", "occu": 1}], "abc": [0.99999999, 0.02321367, 0.10145752], "xyz": [5.14959694850403, 0.26730188157216, 4.67307178648536], "label": "Cl", "properties": {}}, {"species": [{"element": "Cl", "occu": 1}], "abc": [0.0, 0.42274305, 0.15121403], "xyz": [0.0, 4.8678219638064, 6.96482643488379], "label": "Cl", "properties": {}}, {"species": [{"element": "Cl", "occu": 1}], "abc": [0.49999999, 0.9227429, 0.15121401], "xyz": [2.57479844850403, 10.625244236579201, 6.9648255136959305], "label": "Cl", "properties": {}}, {"species": [{"element": "Cl", "occu": 1}], "abc": [0.49999999, 0.52318616, 0.10146759], "xyz": [2.57479844850403, 6.02440910810368, 4.67353560457287], "label": "Cl", "properties": {}}, {"species": [{"element": "Cl", "occu": 1}], "abc": [0.49999999, 0.02449503, 0.22580811], "xyz": [2.57479844850403, 0.28205654720544004, 10.40058448107723], "label": "Cl", "properties": {}}, {"species": [{"element": "Cl", "occu": 1}], "abc": [0.50000001, 0.4256094, 0.27564108], "xyz": [2.57479855149597, 4.9008275483712005, 12.69586083066444], "label": "Cl", "properties": {}}, {"species": [{"element": "Cl", "occu": 1}], "abc": [0.0, 0.92560944, 0.2756411], "xyz": [0.0, 10.658252008965121, 12.695861751852298], "label": "Cl", "properties": {}}, {"species": [{"element": "Cl", "occu": 1}], "abc": [0.99999999, 0.52449524, 0.22580824000000002], "xyz": [5.14959694850403, 6.03948296532352, 10.40059046879832], "label": "Cl", "properties": {}}, {"species": [{"element": "Cl", "occu": 1}], "abc": [0.0, 0.82375165, 0.20078385], "xyz": [0.0, 9.4853750394992, 9.24798225520305], "label": "Cl", "properties": {}}, {"species": [{"element": "Cl", "occu": 1}], "abc": [1e-08, 0.22524239, 0.25073533], "xyz": [5.1495970000000004e-08, 2.59363188400672, 11.548717103454688], "label": "Cl", "properties": {}}, {"species": [{"element": "Cl", "occu": 1}], "abc": [0.5, 0.72524232, 0.25073532], "xyz": [2.5747985, 8.351055077967361, 11.548716642860759], "label": "Cl", "properties": {}}, {"species": [{"element": "Cl", "occu": 1}], "abc": [0.5, 0.3237517, 0.20078395000000002], "xyz": [2.5747985, 3.7279516152416, 9.247986861142351], "label": "Cl", "properties": {}}, {"species": [{"element": "Cl", "occu": 1}], "abc": [0.49999999, 0.82588676, 0.32546591999999996], "xyz": [2.57479844850403, 9.509960506612481, 14.99076271738656], "label": "Cl", "properties": {}}, {"species": [{"element": "Cl", "occu": 1}], "abc": [0.5, 0.22638218, 0.37536388], "xyz": [2.5747985, 2.60675639260864, 17.28903246692484], "label": "Cl", "properties": {}}, {"species": [{"element": "Cl", "occu": 1}], "abc": [0.99999999, 0.72638195, 0.3753639], "xyz": [5.14959694850403, 8.3641777441936, 17.2890333881127], "label": "Cl", "properties": {}}, {"species": [{"element": "Cl", "occu": 1}], "abc": [0.0, 0.32588663, 0.32546588], "xyz": [0.0, 3.7525350096822403, 14.990760875010839], "label": "Cl", "properties": {}}, {"species": [{"element": "Cl", "occu": 1}], "abc": [0.0, 0.62586415, 0.30054319999999995], "xyz": [0.0, 7.2067305558992, 13.842837362277598], "label": "Cl", "properties": {}}, {"species": [{"element": "Cl", "occu": 1}], "abc": [0.0, 0.02601907, 0.35033648], "xyz": [0.0, 0.29960563615136, 16.13628561455664], "label": "Cl", "properties": {}}, {"species": [{"element": "Cl", "occu": 1}], "abc": [0.5, 0.52601877, 0.35033609], "xyz": [2.5747985, 6.05702618169696, 16.136267651393368], "label": "Cl", "properties": {}}, {"species": [{"element": "Cl", "occu": 1}], "abc": [0.5, 0.12586382, 0.30054308999999996], "xyz": [2.5747985, 1.4493027559993599, 13.842832295744367], "label": "Cl", "properties": {}}, {"species": [{"element": "Cl", "occu": 1}], "abc": [0.5, 0.62719972, 0.42487124], "xyz": [2.5747985, 7.22210944144256, 19.56931141755732], "label": "Cl", "properties": {}}, {"species": [{"element": "Cl", "occu": 1}], "abc": [0.50000001, 0.02701614, 0.47461999], "xyz": [2.57479855149597, 0.31108674564672, 21.86070864506607], "label": "Cl", "properties": {}}, {"species": [{"element": "Cl", "occu": 1}], "abc": [0.99999999, 0.52701515, 0.47462002], "xyz": [5.14959694850403, 6.0684993459472, 21.86071002684786], "label": "Cl", "properties": {}}, {"species": [{"element": "Cl", "occu": 1}], "abc": [0.0, 0.12720527, 0.42487147], "xyz": [0.0, 1.4647493488489602, 19.569322011217707], "label": "Cl", "properties": {}}, {"species": [{"element": "Cl", "occu": 1}], "abc": [0.0, 0.42638771, 0.40003794], "xyz": [0.0, 4.90978966971808, 18.42550469337042], "label": "Cl", "properties": {}}, {"species": [{"element": "Cl", "occu": 1}], "abc": [1e-08, 0.82811334, 0.45035044999999996], "xyz": [5.1495970000000004e-08, 9.53559923687232, 20.74286836427685], "label": "Cl", "properties": {}}, {"species": [{"element": "Cl", "occu": 1}], "abc": [0.50000001, 0.32811385, 0.4503509], "xyz": [2.57479855149597, 3.7781811094448, 20.7428890910037], "label": "Cl", "properties": {}}, {"species": [{"element": "Cl", "occu": 1}], "abc": [0.50000001, 0.92638829, 0.40003833], "xyz": [2.57479855149597, 10.66722034832992, 18.42552265653369], "label": "Cl", "properties": {}}, {"species": [{"element": "Cl", "occu": 1}], "abc": [0.49999999, 0.42915476, 0.52730195], "xyz": [2.57479844850403, 4.941651829876481, 24.28720774471635], "label": "Cl", "properties": {}}, {"species": [{"element": "Cl", "occu": 1}], "abc": [0.50000001, 0.81081084, 0.57603077], "xyz": [2.57479855149597, 9.336363579352321, 26.531627615522613], "label": "Cl", "properties": {}}, {"species": [{"element": "Cl", "occu": 1}], "abc": [0.99999999, 0.31081106, 0.57603074], "xyz": [5.14959694850403, 3.57894211261888, 26.53162623374082], "label": "Cl", "properties": {}}, {"species": [{"element": "Cl", "occu": 1}], "abc": [0.0, 0.92915456, 0.52730194], "xyz": [0.0, 10.69907352690688, 24.28720728412242], "label": "Cl", "properties": {}}, {"species": [{"element": "Cl", "occu": 1}], "abc": [1e-08, 0.2285504, 0.49909033999999997], "xyz": [5.1495970000000004e-08, 2.6317231163392, 22.987798112563617], "label": "Cl", "properties": {}}, {"species": [{"element": "Cl", "occu": 1}], "abc": [0.0, 0.62224025, 0.54898346], "xyz": [0.0, 7.165001898232001, 25.28584493463978], "label": "Cl", "properties": {}}, {"species": [{"element": "Cl", "occu": 1}], "abc": [0.5, 0.12224017, 0.5489833], "xyz": [2.5747985, 1.40757697704416, 25.285837565136898], "label": "Cl", "properties": {}}, {"species": [{"element": "Cl", "occu": 1}], "abc": [0.49999997, 0.72854995, 0.4990901], "xyz": [2.57479834551209, 8.3891419346576, 22.987787058309298], "label": "Cl", "properties": {}}]}, "formula": "(LiCl)48.0", "bandgap": 5.7681000000000004, "slab_thickness": 26.527021676222613}