{"miller": "110_0.25", "final_energy": -413.09425254, "sigma": 0.0024083844661824056, "incar_parameters": {"SYSTEM": "unknown system", "LCOMPAT": false, "PREC": "normal", "ENMAX": 520.0, "ENAUG": 628.945, "EDIFF": 1e-05, "IALGO": 38, "IWAVPR": 11, "NBANDS": 337, "NBANDSLOW": -1, "NBANDSHIGH": -1, "NELECT": 560.0, "TURBO": 0, "IRESTART": 0, "NREBOOT": 0, "NMIN": 0, "EREF": 0.0, "ISMEAR": 0, "SIGMA": 0.05, "KSPACING": 0.5, "KGAMMA": true, "KBLOWUP": true, "LREAL": true, "ROPT": [-0.0005, -0.0005], "LMAXPAW": -100, "LMAXMIX": 2, "NLSPLINE": false, "ISTART": 0, "ICHARG": 2, "INIWAV": 1, "ISPIN": 1, "LNONCOLLINEAR": false, "MAGMOM": [0.6, 0.6, 0.6, 0.6, 0.6, 0.6, 0.6, 0.6, 0.6, 0.6, 0.6, 0.6, 0.6, 0.6, 0.6, 0.6, 0.6, 0.6, 0.6, 0.6, 0.6, 0.6, 0.6, 0.6, 0.6, 0.6, 0.6, 0.6, 0.6, 0.6, 0.6, 0.6, 0.6, 0.6, 0.6, 0.6, 0.6, 0.6, 0.6, 0.6, 0.6, 0.6, 0.6, 0.6, 0.6, 0.6, 0.6, 0.6, 0.6, 0.6, 0.6, 0.6, 0.6, 0.6, 0.6, 0.6, 0.6, 0.6, 0.6, 0.6, 0.6, 0.6, 0.6, 0.6, 0.6, 0.6, 0.6, 0.6, 0.6, 0.6, 0.6, 0.6, 0.6, 0.6, 0.6, 0.6, 0.6, 0.6, 0.6, 0.6, 0.6, 0.6, 0.6, 0.6, 0.6, 0.6, 0.6, 0.6, 0.6, 0.6, 0.6, 0.6, 0.6, 0.6, 0.6, 0.6, 0.6, 0.6, 0.6, 0.6, 0.6, 0.6, 0.6, 0.6, 0.6, 0.6, 0.6, 0.6, 0.6, 0.6, 0.6, 0.6], "NUPDOWN": -1.0, "LSORBIT": false, "SAXIS": [0.0, 0.0, 1.0], "LSPIRAL": false, "QSPIRAL": [0.0, 0.0, 0.0], "LZEROZ": false, "LASPH": false, "LMETAGGA": false, "NELM": 100, "NELMDL": 0, "NELMIN": 6, "ENINI": 520.0, "LDIAG": true, "LSUBROT": false, "WEIMIN": 0.001, "EBREAK": 1e-08, "DEPER": 0.3, "NRMM": 4, "TIME": 0.4, "AMIX": 0.4, "BMIX": 1.0, "AMIN": 0.1, "AMIX_MAG": 1.6, "BMIX_MAG": 1.0, "IMIX": 4, "MIXFIRST": false, "MAXMIX": -45, "WC": 100.0, "INIMIX": 1, "MIXPRE": 1, "MREMOVE": 5, "LDIPOL": false, "LMONO": false, "IDIPOL": 0, "EPSILON": 1.0, "DIPOL": [-100.0, -100.0, -100.0], "EFIELD": 0.0, "NGX": 30, "NGY": 42, "NGZ": 288, "NGXF": 60, "NGYF": 84, "NGZF": 576, "ADDGRID": false, "NSW": 150, "IBRION": 2, "MDALGO": 0, "ISIF": 3, "PSTRESS": 0.0, "EDIFFG": -0.01, "NFREE": 1, "POTIM": 0.5, "SMASS": -3.0, "SCALEE": 1.0, "TEBEG": 0.0001, "TEEND": 0.0001, "NBLOCK": 1, "KBLOCK": 150, "NPACO": 256, "APACO": 10.0, "ISYM": 0, "SYMPREC": 1e-05, "LORBIT": 11, "RWIGS": [-1.0, -1.0], "NEDOS": 301, "EMIN": 10.0, "EMAX": -10.0, "EFERMI": 0.0, "NWRITE": 2, "LWAVE": false, "LDOWNSAMPLE": false, "LCHARG": false, "LPARD": false, "LVTOT": false, "LVHAR": false, "LELF": false, "LOPTICS": false, "STM": [0.0, 0.0, 0.0, 0.0, 0.0, 0.0, 0.0], "NPAR": 1, "NSIM": 4, "NBLK": -1, "LPLANE": true, "LSCALAPACK": true, "LSCAAWARE": false, "LSCALU": false, "LASYNC": false, "LORBITALREAL": false, "IDIOT": 3, "PHON_NSTRUCT": -1, "LMUSIC": false, "POMASS": [7.01, 35.453], "DARWINR": [0.0, 0.0], "DARWINV": [1.0, 1.0], "LCORR": true, "GGA_COMPAT": true, "LBERRY": false, "ICORELEVEL": 0, "LDAU": false, "I_CONSTRAINED_M": 0, "GGA": "--", "VOSKOWN": 0, "LHFCALC": false, "PRECFOCK": "", "LSYMGRAD": false, "LHFONE": false, "LRHFCALC": false, "LTHOMAS": false, "LMODELHF": false, "LFOCKACE": false, "ENCUT4O": -1.0, "EXXOEP": 0, "FOURORBIT": 0, "AEXX": 0.0, "HFALPHA": 0.0, "MCALPHA": 0.0, "ALDAX": 1.0, "AGGAX": 1.0, "ALDAC": 1.0, "AGGAC": 1.0, "NKREDX": 1, "NKREDY": 1, "NKREDZ": 1, "SHIFTRED": false, "ODDONLY": false, "EVENONLY": false, "LMAXFOCK": 0, "NMAXFOCKAE": 0, "LFOCKAEDFT": false, "HFSCREEN": 0.0, "HFSCREENC": 0.0, "NBANDSGWLOW": 0, "LUSE_VDW": false, "Zab_VDW": -0.8491, "PARAM1": 0.1234, "PARAM2": 1.0, "PARAM3": 0.0, "MODEL_GW": 0, "MODEL_EPS0": 10.17189961, "MODEL_ALPHA": 1.0, "LEPSILON": false, "LRPA": false, "LNABLA": false, "LVEL": false, "CSHIFT": 0.1, "OMEGAMAX": -1.0, "DEG_THRESHOLD": 0.002, "RTIME": -0.1, "WPLASMAI": 0.0, "DFIELD": [0.0, 0.0, 0.0], "WPLASMA": [0.0, 0.0, 0.0, 0.0, 0.0, 0.0, 0.0, 0.0, 0.0], "NUCIND": false, "MAGPOS": [0.0, 0.0, 0.0], "LNICSALL": true, "ORBITALMAG": false, "LMAGBLOCH": false, "LCHIMAG": false, "LGAUGE": true, "MAGATOM": 0, "MAGDIPOL": [0.0, 0.0, 0.0], "AVECCONST": [0.0, 0.0, 0.0], "LFINITE_TEMPERATURE": false, "LADDER": false, "LRPAFORCE": false, "LFXC": false, "LHARTREE": true, "IBSE": 0, "KPOINT": [-1, 0, 0, 0], "LTCTC": false, "LTCTE": false, "LTETE": false, "LTRIPLET": false, "LFXCEPS": false, "LFXHEG": false, "NATURALO": 2, "LHOLEGF": false, "L2ORDER": false, "LDMP1": false, "LMP2LT": false, "LSMP2LT": false, "LGWLF": false, "ENCUTGW": -2.0, "ENCUTGWSOFT": -2.0, "ENCUTLF": -1.0, "LESF_SPLINES": false, "LMAXMP2": -1, "SCISSOR": 0.0, "NOMEGA": 0, "NOMEGAR": 0, "NBANDSGW": -1, "NBANDSO": -1, "NBANDSV": -1, "NELMGW": 1, "NELMHF": 1, "DIM": 3, "IESPILON": 4, "ANTIRES": 0, "OMEGAMIN": -30.0, "OMEGATL": -200.0, "OMEGAGRID": 0, "LSELFENERGY": false, "LSPECTRAL": false, "LSPECTRALGW": false, "LSINGLES": false, "LFERMIGW": false, "ODDONLYGW": false, "EVENONLYGW": false, "NKREDLFX": 1, "NKREDLFY": 1, "NKREDLFZ": 1, "MAXMEM": 2800, "TELESCOPE": 0, "NTAUPAR": -1, "NOMEGAPAR": -1, "DAMP_NEWTON": 0.80000001, "LAMBDA": 1.0, "OFIELD_KAPPA": 0.0, "OFIELD_K": [0.0, 0.0, 0.0], "OFIELD_Q6_NEAR": 0.0, "OFIELD_Q6_FAR": 0.0, "OFIELD_A": 0.0, "KPOINTS_OPT_MODE": 1, "LKPOINTS_OPT": false, "@module": "pymatgen.io.vasp.inputs", "@class": "Incar"}, "relaxed_structures": {"@module": "pymatgen.core.structure", "@class": "Structure", "charge": 0, "lattice": {"matrix": [[5.149597, 0.0, 0.0], [0.0, 7.282629, 0.0], [0.0, 0.0, 51.60534225]], "a": 5.149597, "b": 7.282629, "c": 51.60534225, "alpha": 90.0, "beta": 90.0, "gamma": 90.0, "volume": 1935.3347379350964}, "sites": [{"species": [{"element": "Li", "occu": 1}], "abc": [5.9e-07, 0.62549167, 0.05503245], "xyz": [3.0382622299999998e-06, 4.555223775200431, 2.839968417106012], "label": "Li", "properties": {}}, {"species": [{"element": "Li", "occu": 1}], "abc": [5.7e-07, 0.1254917, 0.05503249], "xyz": [2.93527029e-06, 0.9139094936793001, 2.839970481319703], "label": "Li", "properties": {}}, {"species": [{"element": "Li", "occu": 1}], "abc": [0.50000056, 0.87469945, 0.02373203], "xyz": [2.57480138377432, 6.370111580854051, 1.2246995304372676], "label": "Li", "properties": {}}, {"species": [{"element": "Li", "occu": 1}], "abc": [0.50000046, 0.37469946, 0.02373204], "xyz": [2.57480086881462, 2.7287971536803397, 1.2247000464906899], "label": "Li", "properties": {}}, {"species": [{"element": "Li", "occu": 1}], "abc": [6.3e-07, 0.12446442, 0.12661109], "xyz": [3.24424611e-06, 0.9064281945601801, 6.533808632095553], "label": "Li", "properties": {}}, {"species": [{"element": "Li", "occu": 1}], "abc": [6.2e-07, 0.62446441, 0.12661109], "xyz": [3.19275014e-06, 4.54774262173389, 6.533808632095553], "label": "Li", "properties": {}}, {"species": [{"element": "Li", "occu": 1}], "abc": [0.50000061, 0.37552248, 0.0921213], "xyz": [2.5748016412541697, 2.73479090299992, 4.753951215014925], "label": "Li", "properties": {}}, {"species": [{"element": "Li", "occu": 1}], "abc": [0.5000006, 0.87552255, 0.0921213], "xyz": [2.5748015897582, 6.37610591278395, 4.753951215014925], "label": "Li", "properties": {}}, {"species": [{"element": "Li", "occu": 1}], "abc": [6.1e-07, 0.62525965, 0.19719572], "xyz": [3.14125417e-06, 4.5535340596198495, 10.17635262083517], "label": "Li", "properties": {}}, {"species": [{"element": "Li", "occu": 1}], "abc": [6.1e-07, 0.12525965, 0.19719572], "xyz": [3.14125417e-06, 0.91221955961985, 10.17635262083517], "label": "Li", "properties": {}}, {"species": [{"element": "Li", "occu": 1}], "abc": [0.50000063, 0.87544275, 0.16209391], "xyz": [2.5748017442461095, 6.375524758989751, 8.364911702190698], "label": "Li", "properties": {}}, {"species": [{"element": "Li", "occu": 1}], "abc": [0.50000063, 0.37544275, 0.1620939], "xyz": [2.5748017442461095, 2.73421025898975, 8.364911186137276], "label": "Li", "properties": {}}, {"species": [{"element": "Li", "occu": 1}], "abc": [6.1e-07, 0.12680037, 0.26760367], "xyz": [3.14125417e-06, 0.9234400517727299, 13.809778977706058], "label": "Li", "properties": {}}, {"species": [{"element": "Li", "occu": 1}], "abc": [6.1e-07, 0.62680033, 0.26760367], "xyz": [3.14125417e-06, 4.56475426046757, 13.809778977706058], "label": "Li", "properties": {}}, {"species": [{"element": "Li", "occu": 1}], "abc": [0.50000061, 0.3731998, 0.23239639], "xyz": [2.5748016412541697, 2.7178756862742004, 11.992895243614479], "label": "Li", "properties": {}}, {"species": [{"element": "Li", "occu": 1}], "abc": [0.5000006, 0.87319983, 0.23239639], "xyz": [2.5748015897582, 6.35919040475307, 11.992895243614479], "label": "Li", "properties": {}}, {"species": [{"element": "Li", "occu": 1}], "abc": [6.1e-07, 0.62455762, 0.33790621], "xyz": [3.14125417e-06, 4.548421435582981, 17.43776561545037], "label": "Li", "properties": {}}, {"species": [{"element": "Li", "occu": 1}], "abc": [6.2e-07, 0.12455762, 0.33790621], "xyz": [3.19275014e-06, 0.90710693558298, 17.43776561545037], "label": "Li", "properties": {}}, {"species": [{"element": "Li", "occu": 1}], "abc": [0.5000006, 0.87474052, 0.30280438], "xyz": [2.5748015897582, 6.37041067842708, 15.626323664699054], "label": "Li", "properties": {}}, {"species": [{"element": "Li", "occu": 1}], "abc": [0.50000059, 0.37474052, 0.30280438], "xyz": [2.57480153826223, 2.72909617842708, 15.626323664699054], "label": "Li", "properties": {}}, {"species": [{"element": "Li", "occu": 1}], "abc": [6e-07, 0.12447775, 0.40787879], "xyz": [3.0897582e-06, 0.90652527200475, 21.048724554465878], "label": "Li", "properties": {}}, {"species": [{"element": "Li", "occu": 1}], "abc": [6.2e-07, 0.62447776, 0.4078788], "xyz": [3.19275014e-06, 4.5478398448310395, 21.0487250705193], "label": "Li", "properties": {}}, {"species": [{"element": "Li", "occu": 1}], "abc": [0.50000061, 0.37553585, 0.37338905], "xyz": [2.5748016412541697, 2.73488827174965, 19.26886971765236], "label": "Li", "properties": {}}, {"species": [{"element": "Li", "occu": 1}], "abc": [0.50000061, 0.87553584, 0.37338905], "xyz": [2.5748016412541697, 6.376202698923359, 19.26886971765236], "label": "Li", "properties": {}}, {"species": [{"element": "Li", "occu": 1}], "abc": [6e-07, 0.62530056, 0.47626802], "xyz": [3.0897582e-06, 4.55383199197224, 24.577974174829844], "label": "Li", "properties": {}}, {"species": [{"element": "Li", "occu": 1}], "abc": [6.1e-07, 0.12530052, 0.47626801], "xyz": [3.14125417e-06, 0.91251720066708, 24.577973658776422], "label": "Li", "properties": {}}, {"species": [{"element": "Li", "occu": 1}], "abc": [0.50000061, 0.87450857, 0.44496761], "xyz": [2.5748016412541697, 6.36872147263053, 22.962705804214522], "label": "Li", "properties": {}}, {"species": [{"element": "Li", "occu": 1}], "abc": [0.5000006, 0.37450852, 0.44496757], "xyz": [2.5748015897582, 2.7274066084990802, 22.96270374000083], "label": "Li", "properties": {}}, {"species": [{"element": "Li", "occu": 1}], "abc": [6.2e-07, 0.37450723, 0.55503219], "xyz": [3.19275014e-06, 2.72739721390767, 28.64262612471703], "label": "Li", "properties": {}}, {"species": [{"element": "Li", "occu": 1}], "abc": [5.9e-07, 0.87450731, 0.55503216], "xyz": [3.0382622299999998e-06, 6.36871229651799, 28.64262457655676], "label": "Li", "properties": {}}, {"species": [{"element": "Li", "occu": 1}], "abc": [0.50000061, 0.12530018, 0.52373178], "xyz": [2.5748016412541697, 0.9125147245732201, 27.027357754101704], "label": "Li", "properties": {}}, {"species": [{"element": "Li", "occu": 1}], "abc": [0.50000059, 0.62530025, 0.5237318], "xyz": [2.57480153826223, 4.55382973435725, 27.02735878620855], "label": "Li", "properties": {}}, {"species": [{"element": "Li", "occu": 1}], "abc": [6e-07, 0.87553582, 0.62661093], "xyz": [3.0897582e-06, 6.37620255327078, 32.33647150024079], "label": "Li", "properties": {}}, {"species": [{"element": "Li", "occu": 1}], "abc": [6.2e-07, 0.37553587, 0.62661093], "xyz": [3.19275014e-06, 2.73488841740223, 32.33647150024079], "label": "Li", "properties": {}}, {"species": [{"element": "Li", "occu": 1}], "abc": [0.50000063, 0.62447775, 0.59212119], "xyz": [2.5748017442461095, 4.5478397720047505, 30.556616663427274], "label": "Li", "properties": {}}, {"species": [{"element": "Li", "occu": 1}], "abc": [0.50000061, 0.12447781, 0.59212119], "xyz": [2.5748016412541697, 0.90652570896249, 30.556616663427274], "label": "Li", "properties": {}}, {"species": [{"element": "Li", "occu": 1}], "abc": [6.1e-07, 0.37474042, 0.69719457], "xyz": [3.14125417e-06, 2.72909545016418, 35.97896439969158], "label": "Li", "properties": {}}, {"species": [{"element": "Li", "occu": 1}], "abc": [6e-07, 0.87474006, 0.69719458], "xyz": [3.0897582e-06, 6.37040732841774, 35.978964915745], "label": "Li", "properties": {}}, {"species": [{"element": "Li", "occu": 1}], "abc": [0.50000062, 0.12455712, 0.66209304], "xyz": [2.57480169275014, 0.9071032942684799, 34.16753793054294], "label": "Li", "properties": {}}, {"species": [{"element": "Li", "occu": 1}], "abc": [0.50000061, 0.62455711, 0.66209304], "xyz": [2.5748016412541697, 4.54841772144219, 34.16753793054294], "label": "Li", "properties": {}}, {"species": [{"element": "Li", "occu": 1}], "abc": [1.6e-07, 0.87320055, 0.76760415], "xyz": [8.239355200000001e-07, 6.35919564824595, 39.61247487327034], "label": "Li", "properties": {}}, {"species": [{"element": "Li", "occu": 1}], "abc": [1.7e-07, 0.37320083, 0.76760413], "xyz": [8.754314899999999e-07, 2.71788318738207, 39.61247384116349], "label": "Li", "properties": {}}, {"species": [{"element": "Li", "occu": 1}], "abc": [0.50000064, 0.62679954, 0.73239566], "xyz": [2.57480179574208, 4.56474850719066, 37.795528696714634], "label": "Li", "properties": {}}, {"species": [{"element": "Li", "occu": 1}], "abc": [0.50000049, 0.12679975, 0.73239567], "xyz": [2.57480102330253, 0.9234355365427499, 37.79552921276806], "label": "Li", "properties": {}}, {"species": [{"element": "Li", "occu": 1}], "abc": [1.6e-07, 0.37544297, 0.83790684], "xyz": [8.239355200000001e-07, 2.73421186116813, 43.240469251815995], "label": "Li", "properties": {}}, {"species": [{"element": "Li", "occu": 1}], "abc": [1.8e-07, 0.87544296, 0.83790684], "xyz": [9.2692746e-07, 6.37552628834184, 43.240469251815995], "label": "Li", "properties": {}}, {"species": [{"element": "Li", "occu": 1}], "abc": [0.50000068, 0.12526028, 0.8028053], "xyz": [2.57480200172596, 0.91222414767612, 41.429042266613926], "label": "Li", "properties": {}}, {"species": [{"element": "Li", "occu": 1}], "abc": [0.4999993, 0.6252597, 0.8028052], "xyz": [2.5747948952821, 4.5535344237513, 41.4290371060797], "label": "Li", "properties": {}}, {"species": [{"element": "Li", "occu": 1}], "abc": [6e-07, 0.87552263, 0.90787889], "xyz": [3.0897582e-06, 6.37610649539427, 46.8514008400001], "label": "Li", "properties": {}}, {"species": [{"element": "Li", "occu": 1}], "abc": [6.2e-07, 0.37552237, 0.90787889], "xyz": [3.19275014e-06, 2.73479010191073, 46.8514008400001], "label": "Li", "properties": {}}, {"species": [{"element": "Li", "occu": 1}], "abc": [0.50000064, 0.62446434, 0.8733891], "xyz": [2.57480179574208, 4.5477421119498596, 45.071543422919476], "label": "Li", "properties": {}}, {"species": [{"element": "Li", "occu": 1}], "abc": [0.50000046, 0.12446454, 0.87338911], "xyz": [2.57480086881462, 0.90642906847566, 45.071543938972894], "label": "Li", "properties": {}}, {"species": [{"element": "Li", "occu": 1}], "abc": [4.6e-07, 0.37469969, 0.97626838], "xyz": [2.3688146199999998e-06, 2.72879882868501, 50.38066387775306], "label": "Li", "properties": {}}, {"species": [{"element": "Li", "occu": 1}], "abc": [5.6e-07, 0.87469971, 0.97626836], "xyz": [2.8837743200000003e-06, 6.3701134743375905, 50.38066284564621], "label": "Li", "properties": {}}, {"species": [{"element": "Li", "occu": 1}], "abc": [0.5000006, 0.1254919, 0.9449677], "xyz": [2.5748015897582, 0.9139109502050999, 48.76538157369532], "label": "Li", "properties": {}}, {"species": [{"element": "Li", "occu": 1}], "abc": [0.50000058, 0.62549191, 0.94496772], "xyz": [2.57480148676626, 4.555225523031391, 48.765382605802166], "label": "Li", "properties": {}}, {"species": [{"element": "Cl", "occu": 1}], "abc": [0.50000086, 0.62470416, 0.05584845], "xyz": [2.57480292865342, 4.54948863203664, 2.8820783763820126], "label": "Cl", "properties": {}}, {"species": [{"element": "Cl", "occu": 1}], "abc": [8.7e-07, 0.87484383, 0.02265205], "xyz": [4.48014939e-06, 6.37116304682907, 1.1689667929141125], "label": "Cl", "properties": {}}, {"species": [{"element": "Cl", "occu": 1}], "abc": [9.4e-07, 0.37484408, 0.02265205], "xyz": [4.84062118e-06, 2.7298503674863204, 1.1689667929141125], "label": "Cl", "properties": {}}, {"species": [{"element": "Cl", "occu": 1}], "abc": [0.50000083, 0.12470423, 0.05584846], "xyz": [2.57480277416551, 0.90817464182067, 2.8820788924354352], "label": "Cl", "properties": {}}, {"species": [{"element": "Cl", "occu": 1}], "abc": [0.50000076, 0.12518724, 0.12669154], "xyz": [2.57480241369372, 0.91169222445396, 6.537960281879564], "label": "Cl", "properties": {}}, {"species": [{"element": "Cl", "occu": 1}], "abc": [7.9e-07, 0.37479574, 0.09179606], "xyz": [4.06818163e-06, 2.72949832520046, 4.737167093501535], "label": "Cl", "properties": {}}, {"species": [{"element": "Cl", "occu": 1}], "abc": [8.1e-07, 0.87479569, 0.09179607], "xyz": [4.17117357e-06, 6.3708124610690104, 4.737167609554957], "label": "Cl", "properties": {}}, {"species": [{"element": "Cl", "occu": 1}], "abc": [0.50000078, 0.62518725, 0.12669153], "xyz": [2.57480251668566, 4.55300679728025, 6.537959765826142], "label": "Cl", "properties": {}}, {"species": [{"element": "Cl", "occu": 1}], "abc": [0.5000007, 0.62465833, 0.19715544], "xyz": [2.5748021047178997, 4.549154869149571, 10.174273957649339], "label": "Cl", "properties": {}}, {"species": [{"element": "Cl", "occu": 1}], "abc": [7.3e-07, 0.87509889, 0.16207245], "xyz": [3.75920581e-06, 6.37302055418181, 8.363804251546012], "label": "Cl", "properties": {}}, {"species": [{"element": "Cl", "occu": 1}], "abc": [7.2e-07, 0.37509887, 0.16207245], "xyz": [3.70770984e-06, 2.73170590852923, 8.363804251546012], "label": "Cl", "properties": {}}, {"species": [{"element": "Cl", "occu": 1}], "abc": [0.50000071, 0.1246583, 0.19715544], "xyz": [2.57480215621387, 0.9078401506707, 10.174273957649339], "label": "Cl", "properties": {}}, {"species": [{"element": "Cl", "occu": 1}], "abc": [0.50000069, 0.1248283, 0.26756279], "xyz": [2.57480205322193, 0.9090781976007001, 13.807669351314876], "label": "Cl", "properties": {}}, {"species": [{"element": "Cl", "occu": 1}], "abc": [6.9e-07, 0.37517204, 0.2324373], "xyz": [3.55322193e-06, 2.73223877849316, 11.995006418165925], "label": "Cl", "properties": {}}, {"species": [{"element": "Cl", "occu": 1}], "abc": [6.9e-07, 0.87517206, 0.23243731], "xyz": [3.55322193e-06, 6.37355342414574, 11.995006934219347], "label": "Cl", "properties": {}}, {"species": [{"element": "Cl", "occu": 1}], "abc": [0.50000068, 0.62482832, 0.2675628], "xyz": [2.57480200172596, 4.55039284325328, 13.807669867368299], "label": "Cl", "properties": {}}, {"species": [{"element": "Cl", "occu": 1}], "abc": [0.50000067, 0.62490149, 0.33792769], "xyz": [2.57480195022999, 4.55092571321721, 17.438874098201904], "label": "Cl", "properties": {}}, {"species": [{"element": "Cl", "occu": 1}], "abc": [6.8e-07, 0.87534193, 0.30284467], "xyz": [3.5017259599999996e-06, 6.37479052433397, 15.628402843938307], "label": "Cl", "properties": {}}, {"species": [{"element": "Cl", "occu": 1}], "abc": [6.8e-07, 0.37534196, 0.30284467], "xyz": [3.5017259599999996e-06, 2.7334762428128396, 15.628402843938307], "label": "Cl", "properties": {}}, {"species": [{"element": "Cl", "occu": 1}], "abc": [0.50000068, 0.12490145, 0.33792768], "xyz": [2.57480200172596, 0.90961092191205, 17.43887358214848], "label": "Cl", "properties": {}}, {"species": [{"element": "Cl", "occu": 1}], "abc": [0.5000007, 0.12520458, 0.40820397], "xyz": [2.5748021047178997, 0.9118185052408201, 21.065505579658733], "label": "Cl", "properties": {}}, {"species": [{"element": "Cl", "occu": 1}], "abc": [6.6e-07, 0.37481306, 0.37330858], "xyz": [3.3987340200000003e-06, 2.72962446033474, 19.264717035761503], "label": "Cl", "properties": {}}, {"species": [{"element": "Cl", "occu": 1}], "abc": [6.8e-07, 0.87481304, 0.37330859], "xyz": [3.5017259599999996e-06, 6.370938814682161, 19.264717551814925], "label": "Cl", "properties": {}}, {"species": [{"element": "Cl", "occu": 1}], "abc": [0.50000068, 0.62520461, 0.40820396], "xyz": [2.57480200172596, 4.553133223719691, 21.065505063605308], "label": "Cl", "properties": {}}, {"species": [{"element": "Cl", "occu": 1}], "abc": [0.50000066, 0.62515671, 0.47734759], "xyz": [2.57480189873402, 4.55278438579059, 24.633685754162677], "label": "Cl", "properties": {}}, {"species": [{"element": "Cl", "occu": 1}], "abc": [6.2e-07, 0.8752961, 0.44415133], "xyz": [3.19275014e-06, 6.3744567614469005, 22.920581395442692], "label": "Cl", "properties": {}}, {"species": [{"element": "Cl", "occu": 1}], "abc": [7.1e-07, 0.37529608, 0.44415134], "xyz": [3.65621387e-06, 2.73314211579432, 22.920581911496114], "label": "Cl", "properties": {}}, {"species": [{"element": "Cl", "occu": 1}], "abc": [0.50000068, 0.12515665, 0.4773476], "xyz": [2.57480200172596, 0.9114694488328501, 24.6336862702161], "label": "Cl", "properties": {}}, {"species": [{"element": "Cl", "occu": 1}], "abc": [0.50000068, 0.3752953, 0.55584811], "xyz": [2.57480200172596, 2.7331364353437, 28.68473195556565], "label": "Cl", "properties": {}}, {"species": [{"element": "Cl", "occu": 1}], "abc": [6.7e-07, 0.12515529, 0.52265272], "xyz": [3.45022999e-06, 0.9114595444574101, 26.97167249349342], "label": "Cl", "properties": {}}, {"species": [{"element": "Cl", "occu": 1}], "abc": [6.8e-07, 0.62515532, 0.52265271], "xyz": [3.5017259599999996e-06, 4.552774262936279, 26.97167197744], "label": "Cl", "properties": {}}, {"species": [{"element": "Cl", "occu": 1}], "abc": [0.50000073, 0.87529543, 0.5558481], "xyz": [2.57480225920581, 6.37445188208547, 28.684731439512223], "label": "Cl", "properties": {}}, {"species": [{"element": "Cl", "occu": 1}], "abc": [0.50000066, 0.87481308, 0.62669103], "xyz": [2.57480189873402, 6.37093910598732, 32.340605088155016], "label": "Cl", "properties": {}}, {"species": [{"element": "Cl", "occu": 1}], "abc": [6.7e-07, 0.62520452, 0.59179577], "xyz": [3.45022999e-06, 4.55313256828308, 30.539823252952285], "label": "Cl", "properties": {}}, {"species": [{"element": "Cl", "occu": 1}], "abc": [6.8e-07, 0.12520458, 0.59179576], "xyz": [3.5017259599999996e-06, 0.9118185052408201, 30.53982273689886], "label": "Cl", "properties": {}}, {"species": [{"element": "Cl", "occu": 1}], "abc": [0.50000068, 0.3748131, 0.62669103], "xyz": [2.57480200172596, 2.7296247516399, 32.340605088155016], "label": "Cl", "properties": {}}, {"species": [{"element": "Cl", "occu": 1}], "abc": [0.50000066, 0.37532688, 0.69715047], "xyz": [2.57480189873402, 2.7333664207675197, 35.97668860409836], "label": "Cl", "properties": {}}, {"species": [{"element": "Cl", "occu": 1}], "abc": [6.8e-07, 0.12490058, 0.66207244], "xyz": [3.5017259599999996e-06, 0.90960458602482, 34.16647486049259], "label": "Cl", "properties": {}}, {"species": [{"element": "Cl", "occu": 1}], "abc": [6.6e-07, 0.62490057, 0.66207242], "xyz": [3.3987340200000003e-06, 4.55091901319853, 34.16647382838575], "label": "Cl", "properties": {}}, {"species": [{"element": "Cl", "occu": 1}], "abc": [0.50000068, 0.87532697, 0.69715048], "xyz": [2.57480200172596, 6.3746815762041305, 35.97668912015178], "label": "Cl", "properties": {}}, {"species": [{"element": "Cl", "occu": 1}], "abc": [0.49999777, 0.87517399, 0.76756237], "xyz": [2.57478701639869, 6.37356747961971, 39.610318802071134], "label": "Cl", "properties": {}}, {"species": [{"element": "Cl", "occu": 1}], "abc": [8.4e-07, 0.62482726, 0.73243751], "xyz": [4.32566148e-06, 4.55038512366654, 37.797688380287795], "label": "Cl", "properties": {}}, {"species": [{"element": "Cl", "occu": 1}], "abc": [4.6e-07, 0.12482706, 0.73243779], "xyz": [2.3688146199999998e-06, 0.90906916714074, 37.797702829783624], "label": "Cl", "properties": {}}, {"species": [{"element": "Cl", "occu": 1}], "abc": [0.49999773, 0.37517185, 0.76756229], "xyz": [2.57478681041481, 2.73223739479365, 39.61031467364375], "label": "Cl", "properties": {}}, {"species": [{"element": "Cl", "occu": 1}], "abc": [0.49999771, 0.37510061, 0.83792769], "xyz": [2.57478670742287, 2.73171858030369, 43.2415452232019], "label": "Cl", "properties": {}}, {"species": [{"element": "Cl", "occu": 1}], "abc": [1.02e-06, 0.12467213, 0.80284987], "xyz": [5.25258894e-06, 0.90794086942977, 41.431342316718], "label": "Cl", "properties": {}}, {"species": [{"element": "Cl", "occu": 1}], "abc": [0.99994075, 0.62466348, 0.80284819], "xyz": [5.149291886377751, 4.5491923746889205, 41.43125561974303], "label": "Cl", "properties": {}}, {"species": [{"element": "Cl", "occu": 1}], "abc": [0.49999772, 0.87509849, 0.8379276], "xyz": [2.57478675891884, 6.373017641130209, 43.2415405787211], "label": "Cl", "properties": {}}, {"species": [{"element": "Cl", "occu": 1}], "abc": [0.50000087, 0.87479594, 0.90820404], "xyz": [2.57480298014939, 6.37081428172626, 46.86818031703269], "label": "Cl", "properties": {}}, {"species": [{"element": "Cl", "occu": 1}], "abc": [1e-06, 0.62518751, 0.87330883], "xyz": [5.149597e-06, 4.5530086907637894, 45.06740106209707], "label": "Cl", "properties": {}}, {"species": [{"element": "Cl", "occu": 1}], "abc": [6.2e-07, 0.12518729, 0.87330909], "xyz": [3.19275014e-06, 0.91169258858541, 45.067414479486054], "label": "Cl", "properties": {}}, {"species": [{"element": "Cl", "occu": 1}], "abc": [0.50000087, 0.37479612, 0.90820405], "xyz": [2.57480298014939, 2.72950109259948, 46.868180833086114], "label": "Cl", "properties": {}}, {"species": [{"element": "Cl", "occu": 1}], "abc": [0.50000096, 0.37484455, 0.97734794], "xyz": [2.57480344361312, 2.72985379032195, 50.43637494103247], "label": "Cl", "properties": {}}, {"species": [{"element": "Cl", "occu": 1}], "abc": [9.3e-07, 0.12470448, 0.94415167], "xyz": [4.78912521e-06, 0.90817646247792, 48.723270066259055], "label": "Cl", "properties": {}}, {"species": [{"element": "Cl", "occu": 1}], "abc": [9.3e-07, 0.62470457, 0.94415165], "xyz": [4.78912521e-06, 4.54949161791453, 48.72326903415221], "label": "Cl", "properties": {}}, {"species": [{"element": "Cl", "occu": 1}], "abc": [0.50000094, 0.87484453, 0.97734795], "xyz": [2.57480334062118, 6.37116814466937, 50.43637545708589], "label": "Cl", "properties": {}}]}, "formula": "(LiCl)56.0", "bandgap": 6.0242}