{"miller": "100_0.12", "final_energy": -136.59313824, "gamma": 0.03569087099047034, "work_function": 2.764546075908891, "ionization_potentail": -2.9972460759088904, "electron_affinity": -1.3127460759088907, "is_stochiometric": true, "incar_parameters": {"SYSTEM": "unknown system", "LCOMPAT": false, "PREC": "normal", "ENMAX": 520.0, "ENAUG": 368.056, "EDIFF": 1e-05, "IALGO": 38, "IWAVPR": 11, "NBANDS": 168, "NBANDSLOW": -1, "NBANDSHIGH": -1, "NELECT": 280.0, "TURBO": 0, "IRESTART": 0, "NREBOOT": 0, "NMIN": 0, "EREF": 0.0, "ISMEAR": 0, "SIGMA": 0.05, "KSPACING": 0.5, "KGAMMA": true, "KBLOWUP": true, "LREAL": true, "ROPT": [-0.0005, -0.0005], "LMAXPAW": -100, "LMAXMIX": 2, "NLSPLINE": false, "ISTART": 0, "ICHARG": 2, "INIWAV": 1, "ISPIN": 1, "LNONCOLLINEAR": false, "MAGMOM": [0.6, 0.6, 0.6, 0.6, 0.6, 0.6, 0.6, 0.6, 0.6, 0.6, 0.6, 0.6, 0.6, 0.6, 0.6, 0.6, 0.6, 0.6, 0.6, 0.6, 0.6, 0.6, 0.6, 0.6, 0.6, 0.6, 0.6, 0.6, 0.6, 0.6, 0.6, 0.6, 0.6, 0.6, 0.6, 0.6, 0.6, 0.6, 0.6, 0.6, 0.6, 0.6], "NUPDOWN": -1.0, "LSORBIT": false, "SAXIS": [0.0, 0.0, 1.0], "LSPIRAL": false, "QSPIRAL": [0.0, 0.0, 0.0], "LZEROZ": false, "LASPH": false, "LMETAGGA": false, "NELM": 100, "NELMDL": -5, "NELMIN": 6, "ENINI": 520.0, "LDIAG": true, "LSUBROT": false, "WEIMIN": 0.001, "EBREAK": 1e-08, "DEPER": 0.3, "NRMM": 4, "TIME": 0.4, "AMIX": 0.4, "BMIX": 1.0, "AMIN": 0.1, "AMIX_MAG": 1.6, "BMIX_MAG": 1.0, "IMIX": 4, "MIXFIRST": false, "MAXMIX": -45, "WC": 100.0, "INIMIX": 1, "MIXPRE": 1, "MREMOVE": 5, "LDIPOL": false, "LMONO": false, "IDIPOL": 0, "EPSILON": 1.0, "DIPOL": [-100.0, -100.0, -100.0], "EFIELD": 0.0, "NGX": 40, "NGY": 40, "NGZ": 256, "NGXF": 80, "NGYF": 80, "NGZF": 512, "ADDGRID": false, "NSW": 150, "IBRION": 2, "MDALGO": 0, "ISIF": 2, "PSTRESS": 0.0, "EDIFFG": -0.01, "NFREE": 1, "POTIM": 0.5, "SMASS": -3.0, "SCALEE": 1.0, "TEBEG": 0.0001, "TEEND": 0.0001, "NBLOCK": 1, "KBLOCK": 150, "NPACO": 256, "APACO": 10.0, "ISYM": 0, "SYMPREC": 1e-05, "LORBIT": 11, "RWIGS": [-1.0, -1.0], "NEDOS": 301, "EMIN": 10.0, "EMAX": -10.0, "EFERMI": 0.0, "NWRITE": 2, "LWAVE": false, "LDOWNSAMPLE": false, "LCHARG": false, "LPARD": false, "LVTOT": false, "LVHAR": false, "LELF": false, "LOPTICS": false, "STM": [0.0, 0.0, 0.0, 0.0, 0.0, 0.0, 0.0], "NPAR": 1, "NSIM": 4, "NBLK": -1, "LPLANE": true, "LSCALAPACK": true, "LSCAAWARE": false, "LSCALU": false, "LASYNC": false, "LORBITALREAL": false, "IDIOT": 3, "PHON_NSTRUCT": -1, "LMUSIC": false, "POMASS": [22.99, 32.066], "DARWINR": [0.0, 0.0], "DARWINV": [1.0, 1.0], "LCORR": true, "GGA_COMPAT": true, "LBERRY": false, "ICORELEVEL": 0, "LDAU": false, "I_CONSTRAINED_M": 0, "GGA": "--", "VOSKOWN": 0, "LHFCALC": false, "PRECFOCK": "", "LSYMGRAD": false, "LHFONE": false, "LRHFCALC": false, "LTHOMAS": false, "LMODELHF": false, "LFOCKACE": false, "ENCUT4O": -1.0, "EXXOEP": 0, "FOURORBIT": 0, "AEXX": 0.0, "HFALPHA": 0.0, "MCALPHA": 0.0, "ALDAX": 1.0, "AGGAX": 1.0, "ALDAC": 1.0, "AGGAC": 1.0, "NKREDX": 1, "NKREDY": 1, "NKREDZ": 1, "SHIFTRED": false, "ODDONLY": false, "EVENONLY": false, "LMAXFOCK": 0, "NMAXFOCKAE": 0, "LFOCKAEDFT": false, "HFSCREEN": 0.0, "HFSCREENC": 0.0, "NBANDSGWLOW": 0, "LUSE_VDW": false, "Zab_VDW": -0.8491, "PARAM1": 0.1234, "PARAM2": 1.0, "PARAM3": 0.0, "MODEL_GW": 0, "MODEL_EPS0": 28.13914847, "MODEL_ALPHA": 1.0, "LEPSILON": false, "LRPA": false, "LNABLA": false, "LVEL": false, "CSHIFT": 0.1, "OMEGAMAX": -1.0, "DEG_THRESHOLD": 0.002, "RTIME": -0.1, "WPLASMAI": 0.0, "DFIELD": [0.0, 0.0, 0.0], "WPLASMA": [0.0, 0.0, 0.0, 0.0, 0.0, 0.0, 0.0, 0.0, 0.0], "NUCIND": false, "MAGPOS": [0.0, 0.0, 0.0], "LNICSALL": true, "ORBITALMAG": false, "LMAGBLOCH": false, "LCHIMAG": false, "LGAUGE": true, "MAGATOM": 0, "MAGDIPOL": [0.0, 0.0, 0.0], "AVECCONST": [0.0, 0.0, 0.0], "LFINITE_TEMPERATURE": false, "LADDER": false, "LRPAFORCE": false, "LFXC": false, "LHARTREE": true, "IBSE": 0, "KPOINT": [-1, 0, 0, 0], "LTCTC": false, "LTCTE": false, "LTETE": false, "LTRIPLET": false, "LFXCEPS": false, "LFXHEG": false, "NATURALO": 2, "LHOLEGF": false, "L2ORDER": false, "LDMP1": false, "LMP2LT": false, "LSMP2LT": false, "LGWLF": false, "ENCUTGW": -2.0, "ENCUTGWSOFT": -2.0, "ENCUTLF": -1.0, "LESF_SPLINES": false, "LMAXMP2": -1, "SCISSOR": 0.0, "NOMEGA": 0, "NOMEGAR": 0, "NBANDSGW": -1, "NBANDSO": -1, "NBANDSV": -1, "NELMGW": 1, "NELMHF": 1, "DIM": 3, "IESPILON": 4, "ANTIRES": 0, "OMEGAMIN": -30.0, "OMEGATL": -200.0, "OMEGAGRID": 0, "LSELFENERGY": false, "LSPECTRAL": false, "LSPECTRALGW": false, "LSINGLES": false, "LFERMIGW": false, "ODDONLYGW": false, "EVENONLYGW": false, "NKREDLFX": 1, "NKREDLFY": 1, "NKREDLFZ": 1, "MAXMEM": 2800, "TELESCOPE": 0, "NTAUPAR": -1, "NOMEGAPAR": -1, "DAMP_NEWTON": 0.80000001, "LAMBDA": 1.0, "OFIELD_KAPPA": 0.0, "OFIELD_K": [0.0, 0.0, 0.0], "OFIELD_Q6_NEAR": 0.0, "OFIELD_Q6_FAR": 0.0, "OFIELD_A": 0.0, "KPOINTS_OPT_MODE": 1, "LKPOINTS_OPT": false, "@module": "pymatgen.io.vasp.inputs", "@class": "Incar"}, "relaxed_structures": {"@module": "pymatgen.core.structure", "@class": "Structure", "charge": 0, "lattice": {"matrix": [[6.552952, 0.0, 0.0], [0.0, 6.552952, 0.0], [0.0, 0.0, 45.870663]], "a": 6.552952, "b": 6.552952, "c": 45.870663, "alpha": 90.0, "beta": 90.0, "gamma": 90.0, "volume": 1969.7403926714078}, "sites": [{"species": [{"element": "Na", "occu": 1}], "abc": [0.75000011, 0.74996701, 0.05947223], "xyz": [4.91471472082472, 4.91449781811352, 2.72803062018849], "label": "Na", "properties": {}}, {"species": [{"element": "Na", "occu": 1}], "abc": [0.24998059, 0.24998632, 0.0594722], "xyz": [1.6381108072016801, 1.63814835561664, 2.7280292440686003], "label": "Na", "properties": {}}, {"species": [{"element": "Na", "occu": 1}], "abc": [0.74999174, 0.24997641, 0.0661624], "xyz": [4.914659872616481, 1.63808341586232, 3.0349131536711997], "label": "Na", "properties": {}}, {"species": [{"element": "Na", "occu": 1}], "abc": [0.24999885, 0.74998234, 0.00010345000000000146], "xyz": [1.6382304641052001, 4.91459827486768, 0.004745320087350067], "label": "Na", "properties": {}}, {"species": [{"element": "Na", "occu": 1}], "abc": [0.74995794, 0.24994127, 9.99999999999994e-05], "xyz": [4.91443838283888, 1.6378531451290401, 0.004587066299999973], "label": "Na", "properties": {}}, {"species": [{"element": "Na", "occu": 1}], "abc": [0.24999132, 0.7499747, 0.06616525], "xyz": [1.63818112037664, 4.9145482103144005, 3.03504388506075], "label": "Na", "properties": {}}, {"species": [{"element": "Na", "occu": 1}], "abc": [0.25000639, 0.249984, 0.13401839], "xyz": [1.6382798733632802, 1.638133152768, 6.14751240349257], "label": "Na", "properties": {}}, {"species": [{"element": "Na", "occu": 1}], "abc": [0.75000857, 0.7499879, 0.20633674], "xyz": [4.91477015879864, 4.914634709280801, 9.46480306505862], "label": "Na", "properties": {}}, {"species": [{"element": "Na", "occu": 1}], "abc": [0.25000809, 0.249988, 0.20633689], "xyz": [1.6382910133816802, 1.638159364576, 9.46480994565807], "label": "Na", "properties": {}}, {"species": [{"element": "Na", "occu": 1}], "abc": [0.75000497, 0.74998628, 0.13401847], "xyz": [4.914746568171441, 4.91462409349856, 6.14751607314561], "label": "Na", "properties": {}}, {"species": [{"element": "Na", "occu": 1}], "abc": [0.750005, 0.24999025, 0.20660149], "xyz": [4.91474676476, 1.638174108718, 9.47694732308787], "label": "Na", "properties": {}}, {"species": [{"element": "Na", "occu": 1}], "abc": [0.25000603, 0.74998878, 0.13562592], "xyz": [1.6382775143005601, 4.91464047587856, 6.221250870384961], "label": "Na", "properties": {}}, {"species": [{"element": "Na", "occu": 1}], "abc": [0.75000407, 0.24998634, 0.13562519], "xyz": [4.91474067051464, 1.6381484866756801, 6.22121738480097], "label": "Na", "properties": {}}, {"species": [{"element": "Na", "occu": 1}], "abc": [0.25000483, 0.74998981, 0.20660173], "xyz": [1.6382696507581602, 4.91464722541912, 9.47695833204699], "label": "Na", "properties": {}}, {"species": [{"element": "Na", "occu": 1}], "abc": [0.25000608, 0.24999117, 0.27825741000000004], "xyz": [1.6382778419481603, 1.63818013743384, 12.763851881362832], "label": "Na", "properties": {}}, {"species": [{"element": "Na", "occu": 1}], "abc": [0.75000647, 0.74999046, 0.35065763], "xyz": [4.91475639759944, 4.91465148483792, 16.08489797410869], "label": "Na", "properties": {}}, {"species": [{"element": "Na", "occu": 1}], "abc": [0.25000393, 0.24999253, 0.35065814], "xyz": [1.63826375310136, 1.63818904944856, 16.08492136814682], "label": "Na", "properties": {}}, {"species": [{"element": "Na", "occu": 1}], "abc": [0.75000606, 0.74999129, 0.27825742000000003], "xyz": [4.91475371088912, 4.91465692378808, 12.763852340069462], "label": "Na", "properties": {}}, {"species": [{"element": "Na", "occu": 1}], "abc": [0.75000572, 0.24999247, 0.34885918000000005], "xyz": [4.91475148288544, 1.63818865627144, 16.00240188023634], "label": "Na", "properties": {}}, {"species": [{"element": "Na", "occu": 1}], "abc": [0.25000597, 0.7499918, 0.27783557000000003], "xyz": [1.6382771211234401, 4.9146602657936, 12.744501800882912], "label": "Na", "properties": {}}, {"species": [{"element": "Na", "occu": 1}], "abc": [0.75000597, 0.2499918, 0.27783547000000003], "xyz": [4.91475312112344, 1.6381842657936, 12.744497213816611], "label": "Na", "properties": {}}, {"species": [{"element": "Na", "occu": 1}], "abc": [0.25000367, 0.74999077, 0.34885616], "xyz": [1.6382620493338402, 4.914653516253041, 16.00226335083408], "label": "Na", "properties": {}}, {"species": [{"element": "Na", "occu": 1}], "abc": [0.24996274, 0.25004865, 0.42531678], "xyz": [1.6379938370084801, 1.6385568011148, 19.50956268362514], "label": "Na", "properties": {}}, {"species": [{"element": "Na", "occu": 1}], "abc": [0.74993455, 0.75007698, 0.42530103], "xyz": [4.9142851092916, 4.91521844624496, 19.50884022068289], "label": "Na", "properties": {}}, {"species": [{"element": "Na", "occu": 1}], "abc": [0.75007103, 0.25005987, 0.48441009], "xyz": [4.91517945618056, 1.6386303252362402, 22.22021199218967], "label": "Na", "properties": {}}, {"species": [{"element": "Na", "occu": 1}], "abc": [0.24999064, 0.75002032, 0.41827742], "xyz": [1.63817666436928, 4.91484715598464, 19.18666257332946], "label": "Na", "properties": {}}, {"species": [{"element": "Na", "occu": 1}], "abc": [0.74999243, 0.25002178, 0.41829049], "xyz": [4.914664394153361, 1.6383807232945602, 19.18726210289487], "label": "Na", "properties": {}}, {"species": [{"element": "Na", "occu": 1}], "abc": [0.25002021, 0.75000989, 0.48434887000000004], "xyz": [1.6383704351599202, 4.91477880869528, 22.217403790200812], "label": "Na", "properties": {}}, {"species": [{"element": "S", "occu": 1}], "abc": [3.18e-06, 0.99997067, 0.09901325], "xyz": [2.0838387360000002e-05, 6.55275980191784, 4.54180342328475], "label": "S", "properties": {}}, {"species": [{"element": "S", "occu": 1}], "abc": [0.49999201, 0.99998354, 0.0270367], "xyz": [3.27642364191352, 6.55284413841008, 1.2401913543321], "label": "S", "properties": {}}, {"species": [{"element": "S", "occu": 1}], "abc": [2.522e-05, 0.50001557, 0.027026990000000004], "xyz": [0.00016526544944, 3.27657802946264, 1.2397459501943702], "label": "S", "properties": {}}, {"species": [{"element": "S", "occu": 1}], "abc": [0.50003945, 0.49994797, 0.09901459], "xyz": [3.2767345139564004, 3.2761350499074404, 4.54186488997317], "label": "S", "properties": {}}, {"species": [{"element": "S", "occu": 1}], "abc": [2.74e-06, 0.99999403, 0.24223094999999997], "xyz": [1.7955088480000003e-05, 6.55291287887656, 11.11129427561985], "label": "S", "properties": {}}, {"species": [{"element": "S", "occu": 1}], "abc": [0.50002749, 0.99993411, 0.17069159], "xyz": [3.27665614065048, 6.55252022599272, 7.82973640182417], "label": "S", "properties": {}}, {"species": [{"element": "S", "occu": 1}], "abc": [5.151e-05, 0.49994439, 0.17068832], "xyz": [0.00033754255752000003, 3.2761115903392803, 7.82958640475616], "label": "S", "properties": {}}, {"species": [{"element": "S", "occu": 1}], "abc": [0.50000419, 0.49999271, 0.24223097000000002], "xyz": [3.27650345686888, 3.27642822897992, 11.111295193033111], "label": "S", "properties": {}}, {"species": [{"element": "S", "occu": 1}], "abc": [5.38e-06, 9.4e-06, 0.38559378000000005], "xyz": [3.525488176e-05, 6.15977488e-05, 17.687442337276142], "label": "S", "properties": {}}, {"species": [{"element": "S", "occu": 1}], "abc": [0.5000057, 0.99999672, 0.3138928], "xyz": [3.2765133518264, 6.55293050631744, 14.3984708469264], "label": "S", "properties": {}}, {"species": [{"element": "S", "occu": 1}], "abc": [0.99999938, 0.49999285, 0.31389262], "xyz": [6.55294793716976, 3.2764291463932, 14.39846259020706], "label": "S", "properties": {}}, {"species": [{"element": "S", "occu": 1}], "abc": [0.49998552, 0.50000531, 0.38559388], "xyz": [3.2763811132550402, 3.2765107961751205, 17.68744692434244], "label": "S", "properties": {}}, {"species": [{"element": "S", "occu": 1}], "abc": [0.50006807, 0.00017486, 0.45757544], "xyz": [3.27692205944264, 0.00114584918672, 20.989288805316722], "label": "S", "properties": {}}, {"species": [{"element": "S", "occu": 1}], "abc": [0.99980616, 0.50013867, 0.45756738], "xyz": [6.551681775784321, 3.27738469785384, 20.988919087772942], "label": "S", "properties": {}}]}, "formula": "(Na2S)14.0", "bandgap": 1.6903, "slab_thickness": 22.21562492588967}