{"miller": "110_0.25", "final_energy": -236.49254775, "gamma": 0.02405623784606454, "work_function": 4.264897470853171, "ionization_potentail": -4.567597470853171, "electron_affinity": -2.3375974708531713, "is_stochiometric": true, "incar_parameters": {"SYSTEM": "unknown system", "LCOMPAT": false, "PREC": "normal", "ENMAX": 520.0, "ENAUG": 368.056, "EDIFF": 1e-05, "IALGO": 38, "IWAVPR": 11, "NBANDS": 288, "NBANDSLOW": -1, "NBANDSHIGH": -1, "NELECT": 480.0, "TURBO": 0, "IRESTART": 0, "NREBOOT": 0, "NMIN": 0, "EREF": 0.0, "ISMEAR": 0, "SIGMA": 0.05, "KSPACING": 0.5, "KGAMMA": true, "KBLOWUP": true, "LREAL": true, "ROPT": [-0.0005, -0.0005], "LMAXPAW": -100, "LMAXMIX": 2, "NLSPLINE": false, "ISTART": 0, "ICHARG": 2, "INIWAV": 1, "ISPIN": 1, "LNONCOLLINEAR": false, "MAGMOM": [0.6, 0.6, 0.6, 0.6, 0.6, 0.6, 0.6, 0.6, 0.6, 0.6, 0.6, 0.6, 0.6, 0.6, 0.6, 0.6, 0.6, 0.6, 0.6, 0.6, 0.6, 0.6, 0.6, 0.6, 0.6, 0.6, 0.6, 0.6, 0.6, 0.6, 0.6, 0.6, 0.6, 0.6, 0.6, 0.6, 0.6, 0.6, 0.6, 0.6, 0.6, 0.6, 0.6, 0.6, 0.6, 0.6, 0.6, 0.6, 0.6, 0.6, 0.6, 0.6, 0.6, 0.6, 0.6, 0.6, 0.6, 0.6, 0.6, 0.6, 0.6, 0.6, 0.6, 0.6, 0.6, 0.6, 0.6, 0.6, 0.6, 0.6, 0.6, 0.6], "NUPDOWN": -1.0, "LSORBIT": false, "SAXIS": [0.0, 0.0, 1.0], "LSPIRAL": false, "QSPIRAL": [0.0, 0.0, 0.0], "LZEROZ": false, "LASPH": false, "LMETAGGA": false, "NELM": 100, "NELMDL": -5, "NELMIN": 6, "ENINI": 520.0, "LDIAG": true, "LSUBROT": false, "WEIMIN": 0.001, "EBREAK": 1e-08, "DEPER": 0.3, "NRMM": 4, "TIME": 0.4, "AMIX": 0.4, "BMIX": 1.0, "AMIN": 0.1, "AMIX_MAG": 1.6, "BMIX_MAG": 1.0, "IMIX": 4, "MIXFIRST": false, "MAXMIX": -45, "WC": 100.0, "INIMIX": 1, "MIXPRE": 1, "MREMOVE": 5, "LDIPOL": false, "LMONO": false, "IDIPOL": 0, "EPSILON": 1.0, "DIPOL": [-100.0, -100.0, -100.0], "EFIELD": 0.0, "NGX": 40, "NGY": 54, "NGZ": 270, "NGXF": 80, "NGYF": 108, "NGZF": 540, "ADDGRID": false, "NSW": 150, "IBRION": 2, "MDALGO": 0, "ISIF": 2, "PSTRESS": 0.0, "EDIFFG": -0.01, "NFREE": 1, "POTIM": 0.5, "SMASS": -3.0, "SCALEE": 1.0, "TEBEG": 0.0001, "TEEND": 0.0001, "NBLOCK": 1, "KBLOCK": 150, "NPACO": 256, "APACO": 10.0, "ISYM": 0, "SYMPREC": 1e-05, "LORBIT": 11, "RWIGS": [-1.0, -1.0], "NEDOS": 301, "EMIN": 10.0, "EMAX": -10.0, "EFERMI": 0.0, "NWRITE": 2, "LWAVE": false, "LDOWNSAMPLE": false, "LCHARG": false, "LPARD": false, "LVTOT": false, "LVHAR": false, "LELF": false, "LOPTICS": false, "STM": [0.0, 0.0, 0.0, 0.0, 0.0, 0.0, 0.0], "NPAR": 1, "NSIM": 4, "NBLK": -1, "LPLANE": true, "LSCALAPACK": true, "LSCAAWARE": false, "LSCALU": false, "LASYNC": false, "LORBITALREAL": false, "IDIOT": 3, "PHON_NSTRUCT": -1, "LMUSIC": false, "POMASS": [22.99, 32.066], "DARWINR": [0.0, 0.0], "DARWINV": [1.0, 1.0], "LCORR": true, "GGA_COMPAT": true, "LBERRY": false, "ICORELEVEL": 0, "LDAU": false, "I_CONSTRAINED_M": 0, "GGA": "--", "VOSKOWN": 0, "LHFCALC": false, "PRECFOCK": "", "LSYMGRAD": false, "LHFONE": false, "LRHFCALC": false, "LTHOMAS": false, "LMODELHF": false, "LFOCKACE": false, "ENCUT4O": -1.0, "EXXOEP": 0, "FOURORBIT": 0, "AEXX": 0.0, "HFALPHA": 0.0, "MCALPHA": 0.0, "ALDAX": 1.0, "AGGAX": 1.0, "ALDAC": 1.0, "AGGAC": 1.0, "NKREDX": 1, "NKREDY": 1, "NKREDZ": 1, "SHIFTRED": false, "ODDONLY": false, "EVENONLY": false, "LMAXFOCK": 0, "NMAXFOCKAE": 0, "LFOCKAEDFT": false, "HFSCREEN": 0.0, "HFSCREENC": 0.0, "NBANDSGWLOW": 0, "LUSE_VDW": false, "Zab_VDW": -0.8491, "PARAM1": 0.1234, "PARAM2": 1.0, "PARAM3": 0.0, "MODEL_GW": 0, "MODEL_EPS0": 23.44928892, "MODEL_ALPHA": 1.0, "LEPSILON": false, "LRPA": false, "LNABLA": false, "LVEL": false, "CSHIFT": 0.1, "OMEGAMAX": -1.0, "DEG_THRESHOLD": 0.002, "RTIME": -0.1, "WPLASMAI": 0.0, "DFIELD": [0.0, 0.0, 0.0], "WPLASMA": [0.0, 0.0, 0.0, 0.0, 0.0, 0.0, 0.0, 0.0, 0.0], "NUCIND": false, "MAGPOS": [0.0, 0.0, 0.0], "LNICSALL": true, "ORBITALMAG": false, "LMAGBLOCH": false, "LCHIMAG": false, "LGAUGE": true, "MAGATOM": 0, "MAGDIPOL": [0.0, 0.0, 0.0], "AVECCONST": [0.0, 0.0, 0.0], "LFINITE_TEMPERATURE": false, "LADDER": false, "LRPAFORCE": false, "LFXC": false, "LHARTREE": true, "IBSE": 0, "KPOINT": [-1, 0, 0, 0], "LTCTC": false, "LTCTE": false, "LTETE": false, "LTRIPLET": false, "LFXCEPS": false, "LFXHEG": false, "NATURALO": 2, "LHOLEGF": false, "L2ORDER": false, "LDMP1": false, "LMP2LT": false, "LSMP2LT": false, "LGWLF": false, "ENCUTGW": -2.0, "ENCUTGWSOFT": -2.0, "ENCUTLF": -1.0, "LESF_SPLINES": false, "LMAXMP2": -1, "SCISSOR": 0.0, "NOMEGA": 0, "NOMEGAR": 0, "NBANDSGW": -1, "NBANDSO": -1, "NBANDSV": -1, "NELMGW": 1, "NELMHF": 1, "DIM": 3, "IESPILON": 4, "ANTIRES": 0, "OMEGAMIN": -30.0, "OMEGATL": -200.0, "OMEGAGRID": 0, "LSELFENERGY": false, "LSPECTRAL": false, "LSPECTRALGW": false, "LSINGLES": false, "LFERMIGW": false, "ODDONLYGW": false, "EVENONLYGW": false, "NKREDLFX": 1, "NKREDLFY": 1, "NKREDLFZ": 1, "MAXMEM": 2800, "TELESCOPE": 0, "NTAUPAR": -1, "NOMEGAPAR": -1, "DAMP_NEWTON": 0.80000001, "LAMBDA": 1.0, "OFIELD_KAPPA": 0.0, "OFIELD_K": [0.0, 0.0, 0.0], "OFIELD_Q6_NEAR": 0.0, "OFIELD_Q6_FAR": 0.0, "OFIELD_A": 0.0, "KPOINTS_OPT_MODE": 1, "LKPOINTS_OPT": false, "@module": "pymatgen.io.vasp.inputs", "@class": "Incar"}, "relaxed_structures": {"@module": "pymatgen.core.structure", "@class": "Structure", "charge": 0, "lattice": {"matrix": [[6.552952, 0.0, 0.0], [0.0, 9.267273, 0.0], [0.0, 0.0, 46.336367]], "a": 6.552952, "b": 9.267273, "c": 46.336367, "alpha": 90.0, "beta": 90.0, "gamma": 90.0, "volume": 2813.914669976438}, "sites": [{"species": [{"element": "Na", "occu": 1}], "abc": [0.72824296, 0.62432808, 0.00010065000000000074], "xyz": [4.77214116121792, 5.785818758925839, 0.004663755338550035], "label": "Na", "properties": {}}, {"species": [{"element": "Na", "occu": 1}], "abc": [0.27178941, 0.12434541, 0.00010102000000000028], "xyz": [1.78102295783832, 1.15234286076693, 0.004680899794340013], "label": "Na", "properties": {}}, {"species": [{"element": "Na", "occu": 1}], "abc": [0.74890462, 0.37467226, 0.04884433], "xyz": [4.9075360274382405, 3.4721901189469797, 2.26326880074911], "label": "Na", "properties": {}}, {"species": [{"element": "Na", "occu": 1}], "abc": [0.2510564, 0.87467521, 0.04884422], "xyz": [1.6451605384928, 8.10585395740233, 2.26326370374874], "label": "Na", "properties": {}}, {"species": [{"element": "Na", "occu": 1}], "abc": [0.72821592, 0.12434522, 9.99999999999994e-05], "xyz": [4.77196396939584, 1.15234109998506, 0.004633636699999972], "label": "Na", "properties": {}}, {"species": [{"element": "Na", "occu": 1}], "abc": [0.27176238, 0.62432814, 0.00010173999999999947], "xyz": [1.7808458315457603, 5.78581931496222, 0.004714261978579976], "label": "Na", "properties": {}}, {"species": [{"element": "Na", "occu": 1}], "abc": [0.74894271, 0.87467519, 0.048844309999999995], "xyz": [4.90778562937992, 8.10585377205687, 2.26326787402177], "label": "Na", "properties": {}}, {"species": [{"element": "Na", "occu": 1}], "abc": [0.25109507, 0.37467227, 0.04884428], "xyz": [1.64541394114664, 3.4721902116197096, 2.26326648393076], "label": "Na", "properties": {}}, {"species": [{"element": "Na", "occu": 1}], "abc": [0.74982789, 0.12466273, 0.09861998], "xyz": [4.91358617143128, 1.15528355183529, 4.56969158681266], "label": "Na", "properties": {}}, {"species": [{"element": "Na", "occu": 1}], "abc": [0.25018004, 0.62464322, 0.09861914], "xyz": [1.63941779347808, 5.78873924733906, 4.56965266426438], "label": "Na", "properties": {}}, {"species": [{"element": "Na", "occu": 1}], "abc": [0.74964865, 0.87463558, 0.14900132000000002], "xyz": [4.9124116203148, 8.105486695373338, 6.904179847004442], "label": "Na", "properties": {}}, {"species": [{"element": "Na", "occu": 1}], "abc": [0.25035164, 0.3746345, 0.14899938000000001], "xyz": [1.6405422800412799, 3.4718401867184996, 6.904089954452461], "label": "Na", "properties": {}}, {"species": [{"element": "Na", "occu": 1}], "abc": [0.74981973, 0.62464332, 0.09861913], "xyz": [4.91353269934296, 5.788740174066359, 4.56965220090071], "label": "Na", "properties": {}}, {"species": [{"element": "Na", "occu": 1}], "abc": [0.25017189, 0.12466267, 0.09861996], "xyz": [1.6393643869192802, 1.15528299579891, 4.56969066008532], "label": "Na", "properties": {}}, {"species": [{"element": "Na", "occu": 1}], "abc": [0.7496483, 0.37463456, 0.14899948000000002], "xyz": [4.9124093267816, 3.4718407427548796, 6.904094588089161], "label": "Na", "properties": {}}, {"species": [{"element": "Na", "occu": 1}], "abc": [0.25035123, 0.87463559, 0.14900121], "xyz": [1.6405395933309599, 8.10548678804607, 6.90417475000407], "label": "Na", "properties": {}}, {"species": [{"element": "Na", "occu": 1}], "abc": [0.75010036, 0.62449834, 0.1990048], "xyz": [4.915371654262721, 5.78739660482682, 9.2211594475616], "label": "Na", "properties": {}}, {"species": [{"element": "Na", "occu": 1}], "abc": [0.24990027, 0.1244986, 0.19900488], "xyz": [1.6375844740970402, 1.1537625143177999, 9.221163154470961], "label": "Na", "properties": {}}, {"species": [{"element": "Na", "occu": 1}], "abc": [0.7499405, 0.37492998, 0.24916203], "xyz": [4.9143240993560005, 3.47457848054454, 11.54526326454501], "label": "Na", "properties": {}}, {"species": [{"element": "Na", "occu": 1}], "abc": [0.25005907, 0.87493196, 0.24916192], "xyz": [1.63862508287464, 8.10823332974508, 11.545258167544642], "label": "Na", "properties": {}}, {"species": [{"element": "Na", "occu": 1}], "abc": [0.75009947, 0.12449861, 0.19900486], "xyz": [4.91536582213544, 1.1537626069905298, 9.221162227743621], "label": "Na", "properties": {}}, {"species": [{"element": "Na", "occu": 1}], "abc": [0.24989937, 0.62449834, 0.19900482], "xyz": [1.6375785764402402, 5.78739660482682, 9.22116037428894], "label": "Na", "properties": {}}, {"species": [{"element": "Na", "occu": 1}], "abc": [0.74994085, 0.87493195, 0.24916196999999998], "xyz": [4.9143263928892, 8.10823323707235, 11.54526048436299], "label": "Na", "properties": {}}, {"species": [{"element": "Na", "occu": 1}], "abc": [0.25005938, 0.37492996, 0.24916196999999998], "xyz": [1.6386271142897602, 3.47457829519908, 11.54526048436299], "label": "Na", "properties": {}}, {"species": [{"element": "Na", "occu": 1}], "abc": [0.75007671, 0.12507199, 0.29910046999999995], "xyz": [4.91521667694792, 1.1590762759832698, 13.859229147792488], "label": "Na", "properties": {}}, {"species": [{"element": "Na", "occu": 1}], "abc": [0.24992369, 0.62507185, 0.29910067999999995], "xyz": [1.63773794423288, 5.7927114785650495, 13.859238878429558], "label": "Na", "properties": {}}, {"species": [{"element": "Na", "occu": 1}], "abc": [0.74989511, 0.8754821, 0.34925939], "xyz": [4.91402666086472, 8.1133316273133, 16.183411273236132], "label": "Na", "properties": {}}, {"species": [{"element": "Na", "occu": 1}], "abc": [0.2501053, 0.37548221, 0.34925945999999997], "xyz": [1.6389280258455998, 3.4796961467133296, 16.18341451678182], "label": "Na", "properties": {}}, {"species": [{"element": "Na", "occu": 1}], "abc": [0.7500763, 0.62507198, 0.29910064999999997], "xyz": [4.915213990237601, 5.79271268331054, 13.859237488338549], "label": "Na", "properties": {}}, {"species": [{"element": "Na", "occu": 1}], "abc": [0.24992325, 0.12507205, 0.29910053], "xyz": [1.6377350609340002, 1.1590768320196498, 13.859231927974509], "label": "Na", "properties": {}}, {"species": [{"element": "Na", "occu": 1}], "abc": [0.74989458, 0.37548216, 0.34925945999999997], "xyz": [4.91402318780016, 3.47969568334968, 16.18341451678182], "label": "Na", "properties": {}}, {"species": [{"element": "Na", "occu": 1}], "abc": [0.25010494, 0.8754821, 0.34925933], "xyz": [1.63892566678288, 8.1133316273133, 16.18340849305411], "label": "Na", "properties": {}}, {"species": [{"element": "Na", "occu": 1}], "abc": [0.75034453, 0.62534642, 0.39927195], "xyz": [4.91697168855256, 5.795255993712659, 18.50081160800565], "label": "Na", "properties": {}}, {"species": [{"element": "Na", "occu": 1}], "abc": [0.24965652, 0.12534783, 0.39927187999999997], "xyz": [1.6359871920470401, 1.16163256056759, 18.50080836445996], "label": "Na", "properties": {}}, {"species": [{"element": "Na", "occu": 1}], "abc": [0.7501659, 0.37535349, 0.44965014], "xyz": [4.9158011347368005, 3.4785032633327697, 20.83515390864138], "label": "Na", "properties": {}}, {"species": [{"element": "Na", "occu": 1}], "abc": [0.24983753, 0.87534908, 0.44965115], "xyz": [1.6371733418885601, 8.112098894658839, 20.835200708372053], "label": "Na", "properties": {}}, {"species": [{"element": "Na", "occu": 1}], "abc": [0.75034336, 0.12534755, 0.39927171], "xyz": [4.91696402159872, 1.16162996573115, 18.500800487277573], "label": "Na", "properties": {}}, {"species": [{"element": "Na", "occu": 1}], "abc": [0.2496553, 0.62534652, 0.39927207], "xyz": [1.6359791974456002, 5.79525692043996, 18.50081716836969], "label": "Na", "properties": {}}, {"species": [{"element": "Na", "occu": 1}], "abc": [0.75016241, 0.87534904, 0.44965115], "xyz": [4.91577826493432, 8.11209852396792, 20.835200708372053], "label": "Na", "properties": {}}, {"species": [{"element": "Na", "occu": 1}], "abc": [0.24983531, 0.37535405, 0.44965027999999996], "xyz": [1.63715879433512, 3.4785084530056496, 20.83516039573276], "label": "Na", "properties": {}}, {"species": [{"element": "Na", "occu": 1}], "abc": [0.75109777, 0.12531982, 0.49943517], "xyz": [4.92190763411704, 1.16137298425086, 23.14201132982739], "label": "Na", "properties": {}}, {"species": [{"element": "Na", "occu": 1}], "abc": [0.24890341, 0.62532632, 0.49943285], "xyz": [1.63105209836632, 5.795069721525359, 23.141903829455952], "label": "Na", "properties": {}}, {"species": [{"element": "Na", "occu": 1}], "abc": [0.7717789, 0.87567481, 0.5481825100000001], "xyz": [5.0574300863128006, 8.11511752349313, 25.400785966341175], "label": "Na", "properties": {}}, {"species": [{"element": "Na", "occu": 1}], "abc": [0.2282029, 0.37567636, 0.54818045], "xyz": [1.4954026499608, 3.4814953877662798, 25.400690513425154], "label": "Na", "properties": {}}, {"species": [{"element": "Na", "occu": 1}], "abc": [0.75109579, 0.62532603, 0.49943268999999996], "xyz": [4.9218946592720805, 5.795067034016189, 23.14189641563723], "label": "Na", "properties": {}}, {"species": [{"element": "Na", "occu": 1}], "abc": [0.24890214, 0.12531982, 0.49943524], "xyz": [1.63104377611728, 1.16137298425086, 23.142014573373082], "label": "Na", "properties": {}}, {"species": [{"element": "Na", "occu": 1}], "abc": [0.77179317, 0.37567682, 0.5481812500000001], "xyz": [5.05752359693784, 3.48149965071186, 25.400727582518755], "label": "Na", "properties": {}}, {"species": [{"element": "Na", "occu": 1}], "abc": [0.22821735, 0.87567433, 0.5481815], "xyz": [1.4954973401172003, 8.115113075202089, 25.4007391666105], "label": "Na", "properties": {}}, {"species": [{"element": "S", "occu": 1}], "abc": [7e-08, 0.62490125, 0.047411199999999994], "xyz": [4.5870664000000005e-07, 5.7911304817912495, 2.1968627631103996], "label": "S", "properties": {}}, {"species": [{"element": "S", "occu": 1}], "abc": [7e-08, 0.12493676, 0.04740722000000001], "xyz": [4.5870664000000005e-07, 1.15782306265548, 2.1966783443697406], "label": "S", "properties": {}}, {"species": [{"element": "S", "occu": 1}], "abc": [0.500001, 0.87437642, 0.0003420699999999999], "xyz": [3.2764825529520003, 8.10308498890266, 0.015850281059689997], "label": "S", "properties": {}}, {"species": [{"element": "S", "occu": 1}], "abc": [0.50000104, 0.37437899, 0.0003422699999999987], "xyz": [3.2764828150700804, 3.46947230579427, 0.01585954833308994], "label": "S", "properties": {}}, {"species": [{"element": "S", "occu": 1}], "abc": [0.99999992, 0.12487081, 0.1487481], "xyz": [6.552951475763841, 1.15721188600113, 6.8924465521527], "label": "S", "properties": {}}, {"species": [{"element": "S", "occu": 1}], "abc": [0.99999991, 0.62486829, 0.14874792], "xyz": [6.5529514102343205, 5.79082503247317, 6.892438211606641], "label": "S", "properties": {}}, {"species": [{"element": "S", "occu": 1}], "abc": [0.49999996, 0.37438353, 0.09927328000000002], "xyz": [3.2764757378819205, 3.46951437921369, 4.599963135373761], "label": "S", "properties": {}}, {"species": [{"element": "S", "occu": 1}], "abc": [0.4999999, 0.87437368, 0.09927118000000001], "xyz": [3.2764753447048003, 8.10305959657464, 4.599865829003061], "label": "S", "properties": {}}, {"species": [{"element": "S", "occu": 1}], "abc": [0.99999998, 0.62503536, 0.24906881], "xyz": [6.55295186894096, 5.79237331577328, 11.540943788413271], "label": "S", "properties": {}}, {"species": [{"element": "S", "occu": 1}], "abc": [0.99999999, 0.12503433, 0.24906883], "xyz": [6.55295193447048, 1.15872727048209, 11.54094471514061], "label": "S", "properties": {}}, {"species": [{"element": "S", "occu": 1}], "abc": [0.49999995, 0.87456471, 0.19914564], "xyz": [3.2764756723524004, 8.10482992373583, 9.227685461489882], "label": "S", "properties": {}}, {"species": [{"element": "S", "occu": 1}], "abc": [0.49999996, 0.3745632, 0.19914494000000002], "xyz": [3.2764757378819205, 3.4711794301535996, 9.227653026032982], "label": "S", "properties": {}}, {"species": [{"element": "S", "occu": 1}], "abc": [0.0, 0.12547459, 0.34911056999999995], "xyz": [0.0, 1.16280728009307, 16.17651549509919], "label": "S", "properties": {}}, {"species": [{"element": "S", "occu": 1}], "abc": [0.99999998, 0.62547506, 0.34911035999999995], "xyz": [6.55295186894096, 5.79644813571138, 16.176505764462117], "label": "S", "properties": {}}, {"species": [{"element": "S", "occu": 1}], "abc": [0.49999994, 0.37497054, 0.29919667], "xyz": [3.27647560682288, 3.47495436113742, 13.86368670629789], "label": "S", "properties": {}}, {"species": [{"element": "S", "occu": 1}], "abc": [0.49999996, 0.87497054, 0.29919655], "xyz": [3.2764757378819205, 8.108590861137419, 13.863681145933851], "label": "S", "properties": {}}, {"species": [{"element": "S", "occu": 1}], "abc": [2e-08, 0.62562089, 0.44899927], "xyz": [1.3105904000000002e-07, 5.79779958213297, 20.80499495745209], "label": "S", "properties": {}}, {"species": [{"element": "S", "occu": 1}], "abc": [8e-08, 0.12561825, 0.44900099], "xyz": [5.242361600000001e-07, 1.1641386165322498, 20.80507465600333], "label": "S", "properties": {}}, {"species": [{"element": "S", "occu": 1}], "abc": [0.49999994, 0.87500354, 0.39952074], "xyz": [3.27647560682288, 8.108896681146419, 18.51233963275158], "label": "S", "properties": {}}, {"species": [{"element": "S", "occu": 1}], "abc": [0.5, 0.37500123, 0.39952023999999997], "xyz": [3.276476, 3.47523877374579, 18.51231646456808], "label": "S", "properties": {}}, {"species": [{"element": "S", "occu": 1}], "abc": [0.99999923, 0.12565975, 0.5479325300000001], "xyz": [6.55294695422696, 1.1645232083617498, 25.389202801318515], "label": "S", "properties": {}}, {"species": [{"element": "S", "occu": 1}], "abc": [0.99999904, 0.62563544, 0.54792743], "xyz": [6.55294570916608, 5.79793442095512, 25.38896648584681], "label": "S", "properties": {}}, {"species": [{"element": "S", "occu": 1}], "abc": [0.49999984, 0.37517806, 0.5008714000000001], "xyz": [3.27647495152768, 3.47687750563038, 23.208561010203805], "label": "S", "properties": {}}, {"species": [{"element": "S", "occu": 1}], "abc": [0.4999999, 0.87518841, 0.50087197], "xyz": [3.2764753447048003, 8.11060992190593, 23.208587421932993], "label": "S", "properties": {}}]}, "formula": "(Na2S)24.0", "bandgap": 2.23, "slab_thickness": 25.396152329641176}