{"miller": "111_0.12", "final_energy": -237.10981899, "gamma": 0.015492186578733093, "work_function": "Not calculated", "ionization_potentail": "Not calculated", "electron_affinity": "Not calculated", "is_stochiometric": true, "incar_parameters": {"SYSTEM": "unknown system", "LCOMPAT": false, "PREC": "normal", "ENMAX": 520.0, "ENAUG": 368.056, "EDIFF": 1e-05, "IALGO": 38, "IWAVPR": 11, "NBANDS": 288, "NBANDSLOW": -1, "NBANDSHIGH": -1, "NELECT": 480.0, "TURBO": 0, "IRESTART": 0, "NREBOOT": 0, "NMIN": 0, "EREF": 0.0, "ISMEAR": 0, "SIGMA": 0.05, "KSPACING": 0.5, "KGAMMA": true, "KBLOWUP": true, "LREAL": true, "ROPT": [-0.0005, -0.0005], "LMAXPAW": -100, "LMAXMIX": 2, "NLSPLINE": false, "ISTART": 0, "ICHARG": 2, "INIWAV": 1, "ISPIN": 1, "LNONCOLLINEAR": false, "MAGMOM": [0.6, 0.6, 0.6, 0.6, 0.6, 0.6, 0.6, 0.6, 0.6, 0.6, 0.6, 0.6, 0.6, 0.6, 0.6, 0.6, 0.6, 0.6, 0.6, 0.6, 0.6, 0.6, 0.6, 0.6, 0.6, 0.6, 0.6, 0.6, 0.6, 0.6, 0.6, 0.6, 0.6, 0.6, 0.6, 0.6, 0.6, 0.6, 0.6, 0.6, 0.6, 0.6, 0.6, 0.6, 0.6, 0.6, 0.6, 0.6, 0.6, 0.6, 0.6, 0.6, 0.6, 0.6, 0.6, 0.6, 0.6, 0.6, 0.6, 0.6, 0.6, 0.6, 0.6, 0.6, 0.6, 0.6, 0.6, 0.6, 0.6, 0.6, 0.6, 0.6], "NUPDOWN": -1.0, "LSORBIT": false, "SAXIS": [0.0, 0.0, 1.0], "LSPIRAL": false, "QSPIRAL": [0.0, 0.0, 0.0], "LZEROZ": false, "LASPH": false, "LMETAGGA": false, "NELM": 100, "NELMDL": 0, "NELMIN": 6, "ENINI": 520.0, "LDIAG": true, "LSUBROT": false, "WEIMIN": 0.001, "EBREAK": 1e-08, "DEPER": 0.3, "NRMM": 4, "TIME": 0.4, "AMIX": 0.4, "BMIX": 1.0, "AMIN": 0.1, "AMIX_MAG": 1.6, "BMIX_MAG": 1.0, "IMIX": 4, "MIXFIRST": false, "MAXMIX": -45, "WC": 100.0, "INIMIX": 1, "MIXPRE": 1, "MREMOVE": 5, "LDIPOL": false, "LMONO": false, "IDIPOL": 0, "EPSILON": 1.0, "DIPOL": [-100.0, -100.0, -100.0], "EFIELD": 0.0, "NGX": 54, "NGY": 54, "NGZ": 240, "NGXF": 108, "NGYF": 108, "NGZF": 480, "ADDGRID": false, "NSW": 150, "IBRION": 2, "MDALGO": 0, "ISIF": 2, "PSTRESS": 0.0, "EDIFFG": -0.01, "NFREE": 1, "POTIM": 0.5, "SMASS": -3.0, "SCALEE": 1.0, "TEBEG": 0.0001, "TEEND": 0.0001, "NBLOCK": 1, "KBLOCK": 150, "NPACO": 256, "APACO": 10.0, "ISYM": 0, "SYMPREC": 1e-05, "LORBIT": 11, "RWIGS": [-1.0, -1.0], "NEDOS": 301, "EMIN": 10.0, "EMAX": -10.0, "EFERMI": 0.0, "NWRITE": 2, "LWAVE": false, "LDOWNSAMPLE": false, "LCHARG": false, "LPARD": false, "LVTOT": false, "LVHAR": false, "LELF": false, "LOPTICS": false, "STM": [0.0, 0.0, 0.0, 0.0, 0.0, 0.0, 0.0], "NPAR": 1, "NSIM": 4, "NBLK": -1, "LPLANE": true, "LSCALAPACK": true, "LSCAAWARE": false, "LSCALU": false, "LASYNC": false, "LORBITALREAL": false, "IDIOT": 3, "PHON_NSTRUCT": -1, "LMUSIC": false, "POMASS": [22.99, 32.066], "DARWINR": [0.0, 0.0], "DARWINV": [1.0, 1.0], "LCORR": true, "GGA_COMPAT": true, "LBERRY": false, "ICORELEVEL": 0, "LDAU": false, "I_CONSTRAINED_M": 0, "GGA": "--", "VOSKOWN": 0, "LHFCALC": false, "PRECFOCK": "", "LSYMGRAD": false, "LHFONE": false, "LRHFCALC": false, "LTHOMAS": false, "LMODELHF": false, "LFOCKACE": false, "ENCUT4O": -1.0, "EXXOEP": 0, "FOURORBIT": 0, "AEXX": 0.0, "HFALPHA": 0.0, "MCALPHA": 0.0, "ALDAX": 1.0, "AGGAX": 1.0, "ALDAC": 1.0, "AGGAC": 1.0, "NKREDX": 1, "NKREDY": 1, "NKREDZ": 1, "SHIFTRED": false, "ODDONLY": false, "EVENONLY": false, "LMAXFOCK": 0, "NMAXFOCKAE": 0, "LFOCKAEDFT": false, "HFSCREEN": 0.0, "HFSCREENC": 0.0, "NBANDSGWLOW": 0, "LUSE_VDW": false, "Zab_VDW": -0.8491, "PARAM1": 0.1234, "PARAM2": 1.0, "PARAM3": 0.0, "MODEL_GW": 0, "MODEL_EPS0": 25.79421682, "MODEL_ALPHA": 1.0, "LEPSILON": false, "LRPA": false, "LNABLA": false, "LVEL": false, "CSHIFT": 0.1, "OMEGAMAX": -1.0, "DEG_THRESHOLD": 0.002, "RTIME": -0.1, "WPLASMAI": 0.0, "DFIELD": [0.0, 0.0, 0.0], "WPLASMA": [0.0, 0.0, 0.0, 0.0, 0.0, 0.0, 0.0, 0.0, 0.0], "NUCIND": false, "MAGPOS": [0.0, 0.0, 0.0], "LNICSALL": true, "ORBITALMAG": false, "LMAGBLOCH": false, "LCHIMAG": false, "LGAUGE": true, "MAGATOM": 0, "MAGDIPOL": [0.0, 0.0, 0.0], "AVECCONST": [0.0, 0.0, 0.0], "LFINITE_TEMPERATURE": false, "LADDER": false, "LRPAFORCE": false, "LFXC": false, "LHARTREE": true, "IBSE": 0, "KPOINT": [-1, 0, 0, 0], "LTCTC": false, "LTCTE": false, "LTETE": false, "LTRIPLET": false, "LFXCEPS": false, "LFXHEG": false, "NATURALO": 2, "LHOLEGF": false, "L2ORDER": false, "LDMP1": false, "LMP2LT": false, "LSMP2LT": false, "LGWLF": false, "ENCUTGW": -2.0, "ENCUTGWSOFT": -2.0, "ENCUTLF": -1.0, "LESF_SPLINES": false, "LMAXMP2": -1, "SCISSOR": 0.0, "NOMEGA": 0, "NOMEGAR": 0, "NBANDSGW": -1, "NBANDSO": -1, "NBANDSV": -1, "NELMGW": 1, "NELMHF": 1, "DIM": 3, "IESPILON": 4, "ANTIRES": 0, "OMEGAMIN": -30.0, "OMEGATL": -200.0, "OMEGAGRID": 0, "LSELFENERGY": false, "LSPECTRAL": false, "LSPECTRALGW": false, "LSINGLES": false, "LFERMIGW": false, "ODDONLYGW": false, "EVENONLYGW": false, "NKREDLFX": 1, "NKREDLFY": 1, "NKREDLFZ": 1, "MAXMEM": 2800, "TELESCOPE": 0, "NTAUPAR": -1, "NOMEGAPAR": -1, "DAMP_NEWTON": 0.80000001, "LAMBDA": 1.0, "OFIELD_KAPPA": 0.0, "OFIELD_K": [0.0, 0.0, 0.0], "OFIELD_Q6_NEAR": 0.0, "OFIELD_Q6_FAR": 0.0, "OFIELD_A": 0.0, "KPOINTS_OPT_MODE": 1, "LKPOINTS_OPT": false, "@module": "pymatgen.io.vasp.inputs", "@class": "Incar"}, "relaxed_structures": {"@module": "pymatgen.core.structure", "@class": "Structure", "charge": 0, "lattice": {"matrix": [[9.267273, 0.0, 0.0], [4.633637, 8.025694, 0.0], [0.0, 0.0, 41.616834]], "a": 9.267273, "b": 9.267273387000353, "c": 41.616834, "alpha": 90.0, "beta": 90.0, "gamma": 59.999997811884434, "volume": 3095.3060187873766}, "sites": [{"species": [{"element": "Na", "occu": 1}], "abc": [0.91703431, 0.04148083, 0.00010000000000000286], "xyz": [8.690614409815339, 0.33291244844602, 0.004161683400000119], "label": "Na", "properties": {}}, {"species": [{"element": "Na", "occu": 1}], "abc": [0.41703423, 0.54148086, 0.00010011000000000742], "xyz": [6.37379580744261, 4.345759689216839, 0.004166261251740308], "label": "Na", "properties": {}}, {"species": [{"element": "Na", "occu": 1}], "abc": [0.4170343, 0.04148091, 0.00010011000000000742], "xyz": [4.05697818783357, 0.33291309050154, 0.004166261251740308], "label": "Na", "properties": {}}, {"species": [{"element": "Na", "occu": 1}], "abc": [0.91703437, 0.54148085, 0.00010004000000000263], "xyz": [11.007433558524461, 4.3457596089598995, 0.004163348073360109], "label": "Na", "properties": {}}, {"species": [{"element": "Na", "occu": 1}], "abc": [0.58348994, 0.70824998, 0.08883403], "xyz": [8.68913387931088, 5.684197614986119, 3.6969910800610197], "label": "Na", "properties": {}}, {"species": [{"element": "Na", "occu": 1}], "abc": [0.25029574, 0.37485427, 0.04385909], "xyz": [4.05649756839701, 3.0084656656133797, 1.82527646792106], "label": "Na", "properties": {}}, {"species": [{"element": "Na", "occu": 1}], "abc": [0.75029574, 0.87485428, 0.043859060000000005], "xyz": [11.006952614733379, 7.021312745870319, 1.8252752194160402], "label": "Na", "properties": {}}, {"species": [{"element": "Na", "occu": 1}], "abc": [0.08348992, 0.20824998, 0.08883403], "xyz": [1.73867869396542, 1.67135061498612, 3.6969910800610197], "label": "Na", "properties": {}}, {"species": [{"element": "Na", "occu": 1}], "abc": [0.08348998, 0.70825004, 0.08883403], "xyz": [4.05549802802002, 5.68419809652776, 3.6969910800610197], "label": "Na", "properties": {}}, {"species": [{"element": "Na", "occu": 1}], "abc": [0.75029571, 0.37485422, 0.04385905000000001], "xyz": [8.690133558696969, 3.00846526432868, 1.8252748032477004], "label": "Na", "properties": {}}, {"species": [{"element": "Na", "occu": 1}], "abc": [0.25029569, 0.87485424, 0.04385908000000001], "xyz": [6.37331546602425, 7.021312424842559, 1.8252760517527202], "label": "Na", "properties": {}}, {"species": [{"element": "Na", "occu": 1}], "abc": [0.58348997, 0.20825005, 0.08883404000000002], "xyz": [6.372315981683659, 1.6713511767846998, 3.6969914962293604], "label": "Na", "properties": {}}, {"species": [{"element": "Na", "occu": 1}], "abc": [0.24994384, 0.37502622, 0.18011436000000003], "xyz": [4.05403316891046, 3.00984568369668, 7.495789421136241], "label": "Na", "properties": {}}, {"species": [{"element": "Na", "occu": 1}], "abc": [0.91675337, 0.04162474, 0.13459417], "xyz": [8.68867768883939, 0.33406742606955997, 5.60138323025778], "label": "Na", "properties": {}}, {"species": [{"element": "Na", "occu": 1}], "abc": [0.41675334, 0.54162474, 0.13459418], "xyz": [6.3718594108212, 4.34691442606956, 5.60138364642612], "label": "Na", "properties": {}}, {"species": [{"element": "Na", "occu": 1}], "abc": [0.74994385, 0.87502622, 0.18011436000000003], "xyz": [11.00448826158319, 7.02269268369668, 7.495789421136241], "label": "Na", "properties": {}}, {"species": [{"element": "Na", "occu": 1}], "abc": [0.74994386, 0.37502621, 0.18011438000000002], "xyz": [8.68766980791955, 3.0098456034397403, 7.49579025347292], "label": "Na", "properties": {}}, {"species": [{"element": "Na", "occu": 1}], "abc": [0.4167533, 0.04162474, 0.13459417], "xyz": [4.05504054013028, 0.33406742606955997, 5.60138323025778], "label": "Na", "properties": {}}, {"species": [{"element": "Na", "occu": 1}], "abc": [0.91675333, 0.54162473, 0.13459416000000002], "xyz": [11.0054957718121, 4.346914345812619, 5.60138281408944], "label": "Na", "properties": {}}, {"species": [{"element": "Na", "occu": 1}], "abc": [0.24994384, 0.87502621, 0.18011437000000002], "xyz": [6.37085162257409, 7.02269260343974, 7.495789837304581], "label": "Na", "properties": {}}, {"species": [{"element": "Na", "occu": 1}], "abc": [0.91664186, 0.04167608, 0.27095815], "xyz": [8.68788218615074, 0.33447946519952, 11.2764203494971], "label": "Na", "properties": {}}, {"species": [{"element": "Na", "occu": 1}], "abc": [0.58326301, 0.70837128, 0.22552243], "xyz": [8.68759291721709, 5.68517113166832, 9.385529532586618], "label": "Na", "properties": {}}, {"species": [{"element": "Na", "occu": 1}], "abc": [0.08326302, 0.20837124, 0.22552243], "xyz": [1.73713782454434, 1.67232381064056, 9.385529532586618], "label": "Na", "properties": {}}, {"species": [{"element": "Na", "occu": 1}], "abc": [0.41664179, 0.54167613, 0.27095815], "xyz": [6.37106376912348, 4.34732686648422, 11.2764203494971], "label": "Na", "properties": {}}, {"species": [{"element": "Na", "occu": 1}], "abc": [0.41664182, 0.04167609, 0.27095815], "xyz": [4.054245361796189, 0.33447954545645997, 11.2764203494971], "label": "Na", "properties": {}}, {"species": [{"element": "Na", "occu": 1}], "abc": [0.08326305, 0.7083713, 0.22552242], "xyz": [4.05395688058075, 5.6851712921822, 9.38552911641828], "label": "Na", "properties": {}}, {"species": [{"element": "Na", "occu": 1}], "abc": [0.58326308, 0.20837126, 0.22552243], "xyz": [6.37077497325346, 1.67232397115444, 9.385529532586618], "label": "Na", "properties": {}}, {"species": [{"element": "Na", "occu": 1}], "abc": [0.91664188, 0.54167609, 0.27095816], "xyz": [11.004700917832569, 4.34732654545646, 11.27642076566544], "label": "Na", "properties": {}}, {"species": [{"element": "Na", "occu": 1}], "abc": [0.58304433, 0.70847466, 0.36180874], "xyz": [8.68604537535051, 5.68600082791404, 15.05733427232916], "label": "Na", "properties": {}}, {"species": [{"element": "Na", "occu": 1}], "abc": [0.24992544, 0.37504049, 0.31637218], "xyz": [4.05392877308725, 3.00996021035006, 13.16640849727812], "label": "Na", "properties": {}}, {"species": [{"element": "Na", "occu": 1}], "abc": [0.74992548, 0.8750405, 0.3163722], "xyz": [11.00438419011454, 7.022807290607, 13.1664093296148], "label": "Na", "properties": {}}, {"species": [{"element": "Na", "occu": 1}], "abc": [0.08304442, 0.20847458, 0.36180876], "xyz": [1.73559083871412, 1.6731531858585198, 15.057335104665839], "label": "Na", "properties": {}}, {"species": [{"element": "Na", "occu": 1}], "abc": [0.08304439, 0.70847465, 0.36180878], "xyz": [4.05240938505052, 5.6860007476571, 15.057335937002518], "label": "Na", "properties": {}}, {"species": [{"element": "Na", "occu": 1}], "abc": [0.74992547, 0.37504045, 0.31637221], "xyz": [8.687565365759959, 3.0099598893223, 13.166409745783138], "label": "Na", "properties": {}}, {"species": [{"element": "Na", "occu": 1}], "abc": [0.24992541, 0.87504051, 0.31637219], "xyz": [6.3707470877418, 7.02280737086394, 13.166408913446459], "label": "Na", "properties": {}}, {"species": [{"element": "Na", "occu": 1}], "abc": [0.58304434, 0.20847466, 0.36180875], "xyz": [6.3692269680232405, 1.6731538279140399, 15.0573346884975], "label": "Na", "properties": {}}, {"species": [{"element": "Na", "occu": 1}], "abc": [0.24975653, 0.37512107, 0.45264356999999994], "xyz": [4.05273681647428, 3.01060692077258, 18.837592313857375], "label": "Na", "properties": {}}, {"species": [{"element": "Na", "occu": 1}], "abc": [0.91634534, 0.04182997, 0.40756099], "xyz": [8.68584732475871, 0.33571453924918, 16.96139806570566], "label": "Na", "properties": {}}, {"species": [{"element": "Na", "occu": 1}], "abc": [0.41634532, 0.54183002, 0.407561], "xyz": [6.3690293710951, 4.34856194053388, 16.961398481874], "label": "Na", "properties": {}}, {"species": [{"element": "Na", "occu": 1}], "abc": [0.74975672, 0.87512091, 0.45264354], "xyz": [11.00319283587423, 7.02345263666154, 18.83759106535236], "label": "Na", "properties": {}}, {"species": [{"element": "Na", "occu": 1}], "abc": [0.74975665, 0.37512085, 0.45264356999999994], "xyz": [8.6863734091469, 3.0106051551199, 18.837592313857375], "label": "Na", "properties": {}}, {"species": [{"element": "Na", "occu": 1}], "abc": [0.41634532, 0.04183002, 0.40756101], "xyz": [4.0522108710951, 0.33571494053388, 16.96139889804234], "label": "Na", "properties": {}}, {"species": [{"element": "Na", "occu": 1}], "abc": [0.91634535, 0.54182999, 0.407561], "xyz": [11.002666010104178, 4.34856169976306, 16.961398481874], "label": "Na", "properties": {}}, {"species": [{"element": "Na", "occu": 1}], "abc": [0.2497565, 0.87512094, 0.45264356999999994], "xyz": [6.3695544360832805, 7.0234528774323595, 18.837592313857375], "label": "Na", "properties": {}}, {"species": [{"element": "Na", "occu": 1}], "abc": [0.58309602, 0.70845577, 0.49649092], "xyz": [8.68643687128895, 5.68584922255438, 20.66238020014728], "label": "Na", "properties": {}}, {"species": [{"element": "Na", "occu": 1}], "abc": [0.08309597, 0.2084558, 0.49649101999999995], "xyz": [1.73598154693441, 1.6730024633251999, 20.662384361830675], "label": "Na", "properties": {}}, {"species": [{"element": "Na", "occu": 1}], "abc": [0.08309594, 0.70845573, 0.49649103999999994], "xyz": [4.0527994445616295, 5.68584890152662, 20.662385194167356], "label": "Na", "properties": {}}, {"species": [{"element": "Na", "occu": 1}], "abc": [0.58309601, 0.20845569, 0.4964909], "xyz": [6.36961790792526, 1.6730015804988598, 20.662379367810598], "label": "Na", "properties": {}}, {"species": [{"element": "S", "occu": 1}], "abc": [0.58378502, 0.70810697, 0.02019765000000001], "xyz": [8.69120580980035, 5.68304986048718, 0.8405622472401004], "label": "S", "properties": {}}, {"species": [{"element": "S", "occu": 1}], "abc": [0.08378524, 0.70810706, 0.020197660000000006], "xyz": [4.05757176562774, 5.68305058279964, 0.8405626634084402], "label": "S", "properties": {}}, {"species": [{"element": "S", "occu": 1}], "abc": [0.58378507, 0.20810717, 0.02019767], "xyz": [6.374388699891401, 1.67020446562598, 0.84056307957678], "label": "S", "properties": {}}, {"species": [{"element": "S", "occu": 1}], "abc": [0.08378507, 0.20810693, 0.020197630000000008], "xyz": [1.74075108781852, 1.67020253945942, 0.8405614149034203], "label": "S", "properties": {}}, {"species": [{"element": "S", "occu": 1}], "abc": [0.25048041, 0.37475885, 0.11186466000000002], "xyz": [4.05776681405938, 3.0076998538918995, 4.65545298568644], "label": "S", "properties": {}}, {"species": [{"element": "S", "occu": 1}], "abc": [0.7504804, 0.3747588, 0.11186463], "xyz": [8.6914029897048, 3.0076994526072, 4.65545173718142], "label": "S", "properties": {}}, {"species": [{"element": "S", "occu": 1}], "abc": [0.25048036, 0.87475876, 0.1118646], "xyz": [6.374584433668399, 7.020546131579439, 4.6554504886764], "label": "S", "properties": {}}, {"species": [{"element": "S", "occu": 1}], "abc": [0.75048047, 0.87475879, 0.11186467000000001], "xyz": [11.008222092077538, 7.0205463723502595, 4.65545340185478], "label": "S", "properties": {}}, {"species": [{"element": "S", "occu": 1}], "abc": [0.91682916, 0.04158546, 0.20287528], "xyz": [8.6891980461987, 0.33375217680923996, 8.44302685046352], "label": "S", "properties": {}}, {"species": [{"element": "S", "occu": 1}], "abc": [0.4168292, 0.04158554, 0.20287528], "xyz": [4.05556228758058, 0.33375281886475994, 8.44302685046352], "label": "S", "properties": {}}, {"species": [{"element": "S", "occu": 1}], "abc": [0.91682914, 0.54158572, 0.20287526], "xyz": [11.00601756559886, 4.3466012634896805, 8.44302601812684], "label": "S", "properties": {}}, {"species": [{"element": "S", "occu": 1}], "abc": [0.41682902, 0.54158568, 0.20287530999999998], "xyz": [6.37237976818062, 4.34660094246192, 8.443028098968538], "label": "S", "properties": {}}, {"species": [{"element": "S", "occu": 1}], "abc": [0.58335406, 0.70832305, 0.29364572], "xyz": [8.68821322211123, 5.684784052446699, 12.220605184050479], "label": "S", "properties": {}}, {"species": [{"element": "S", "occu": 1}], "abc": [0.08335429, 0.70832306, 0.29364572], "xyz": [4.05457889992039, 5.68478413270364, 12.220605184050479], "label": "S", "properties": {}}, {"species": [{"element": "S", "occu": 1}], "abc": [0.58335424, 0.20832301, 0.29364572], "xyz": [6.37139620487489, 1.67193673141894, 12.220605184050479], "label": "S", "properties": {}}, {"species": [{"element": "S", "occu": 1}], "abc": [0.08335427, 0.20832286, 0.29364574], "xyz": [1.7377592878475299, 1.67193552756484, 12.220606016387158], "label": "S", "properties": {}}, {"species": [{"element": "S", "occu": 1}], "abc": [0.24959809, 0.37520068, 0.3845866], "xyz": [4.05163739358173, 3.01124584627192, 16.0052766908244], "label": "S", "properties": {}}, {"species": [{"element": "S", "occu": 1}], "abc": [0.74959812, 0.37520076, 0.38458654999999997], "xyz": [8.68527454229088, 3.01124648832744, 16.0052746099827], "label": "S", "properties": {}}, {"species": [{"element": "S", "occu": 1}], "abc": [0.24959813, 0.87520079, 0.38458654], "xyz": [6.36845677397272, 7.02409372909826, 16.00527419381436], "label": "S", "properties": {}}, {"species": [{"element": "S", "occu": 1}], "abc": [0.74959808, 0.87520073, 0.3845866], "xyz": [11.00209253259085, 7.024093247556619, 16.0052766908244], "label": "S", "properties": {}}, {"species": [{"element": "S", "occu": 1}], "abc": [0.9163633, 0.04181948, 0.47629879], "xyz": [8.68596515812966, 0.33563034971912, 19.82204767783086], "label": "S", "properties": {}}, {"species": [{"element": "S", "occu": 1}], "abc": [0.41636321, 0.04181966, 0.47629876], "xyz": [4.05232865812975, 0.33563179434404, 19.822046429325837], "label": "S", "properties": {}}, {"species": [{"element": "S", "occu": 1}], "abc": [0.91636338, 0.54181955, 0.47629878], "xyz": [11.002784723866089, 4.3484779115177, 19.82204726166252], "label": "S", "properties": {}}, {"species": [{"element": "S", "occu": 1}], "abc": [0.41636316, 0.54181958, 0.47629877000000004], "xyz": [6.36914632407514, 4.34847815228852, 19.82204684549418], "label": "S", "properties": {}}]}, "formula": "(Na2S)24.0", "bandgap": 2.4197, "slab_thickness": 20.658223510767357}