{"miller": "210_0.06", "final_energy": -373.06569735, "gamma": 0.03128002921218581, "work_function": 3.794588252899925, "ionization_potentail": -4.032188252899925, "electron_affinity": -2.004388252899925, "is_stochiometric": true, "incar_parameters": {"SYSTEM": "unknown system", "LCOMPAT": false, "PREC": "normal", "ENMAX": 520.0, "ENAUG": 368.056, "EDIFF": 1e-05, "IALGO": 38, "IWAVPR": 11, "NBANDS": 456, "NBANDSLOW": -1, "NBANDSHIGH": -1, "NELECT": 760.0, "TURBO": 0, "IRESTART": 0, "NREBOOT": 0, "NMIN": 0, "EREF": 0.0, "ISMEAR": 0, "SIGMA": 0.05, "KSPACING": 0.5, "KGAMMA": true, "KBLOWUP": true, "LREAL": true, "ROPT": [-0.0005, -0.0005], "LMAXPAW": -100, "LMAXMIX": 2, "NLSPLINE": false, "ISTART": 0, "ICHARG": 2, "INIWAV": 1, "ISPIN": 1, "LNONCOLLINEAR": false, "MAGMOM": [0.6, 0.6, 0.6, 0.6, 0.6, 0.6, 0.6, 0.6, 0.6, 0.6, 0.6, 0.6, 0.6, 0.6, 0.6, 0.6, 0.6, 0.6, 0.6, 0.6, 0.6, 0.6, 0.6, 0.6, 0.6, 0.6, 0.6, 0.6, 0.6, 0.6, 0.6, 0.6, 0.6, 0.6, 0.6, 0.6, 0.6, 0.6, 0.6, 0.6, 0.6, 0.6, 0.6, 0.6, 0.6, 0.6, 0.6, 0.6, 0.6, 0.6, 0.6, 0.6, 0.6, 0.6, 0.6, 0.6, 0.6, 0.6, 0.6, 0.6, 0.6, 0.6, 0.6, 0.6, 0.6, 0.6, 0.6, 0.6, 0.6, 0.6, 0.6, 0.6, 0.6, 0.6, 0.6, 0.6, 0.6, 0.6, 0.6, 0.6, 0.6, 0.6, 0.6, 0.6, 0.6, 0.6, 0.6, 0.6, 0.6, 0.6, 0.6, 0.6, 0.6, 0.6, 0.6, 0.6, 0.6, 0.6, 0.6, 0.6, 0.6, 0.6, 0.6, 0.6, 0.6, 0.6, 0.6, 0.6, 0.6, 0.6, 0.6, 0.6, 0.6, 0.6], "NUPDOWN": -1.0, "LSORBIT": false, "SAXIS": [0.0, 0.0, 1.0], "LSPIRAL": false, "QSPIRAL": [0.0, 0.0, 0.0], "LZEROZ": false, "LASPH": false, "LMETAGGA": false, "NELM": 100, "NELMDL": -5, "NELMIN": 6, "ENINI": 520.0, "LDIAG": true, "LSUBROT": false, "WEIMIN": 0.001, "EBREAK": 1e-08, "DEPER": 0.3, "NRMM": 4, "TIME": 0.4, "AMIX": 0.4, "BMIX": 1.0, "AMIN": 0.1, "AMIX_MAG": 1.6, "BMIX_MAG": 1.0, "IMIX": 4, "MIXFIRST": false, "MAXMIX": -45, "WC": 100.0, "INIMIX": 1, "MIXPRE": 1, "MREMOVE": 5, "LDIPOL": false, "LMONO": false, "IDIPOL": 0, "EPSILON": 1.0, "DIPOL": [-100.0, -100.0, -100.0], "EFIELD": 0.0, "NGX": 40, "NGY": 84, "NGZ": 270, "NGXF": 80, "NGYF": 168, "NGZF": 540, "ADDGRID": false, "NSW": 150, "IBRION": 2, "MDALGO": 0, "ISIF": 2, "PSTRESS": 0.0, "EDIFFG": -0.01, "NFREE": 1, "POTIM": 0.5, "SMASS": -3.0, "SCALEE": 1.0, "TEBEG": 0.0001, "TEEND": 0.0001, "NBLOCK": 1, "KBLOCK": 150, "NPACO": 256, "APACO": 10.0, "ISYM": 0, "SYMPREC": 1e-05, "LORBIT": 11, "RWIGS": [-1.0, -1.0], "NEDOS": 301, "EMIN": 10.0, "EMAX": -10.0, "EFERMI": 0.0, "NWRITE": 2, "LWAVE": false, "LDOWNSAMPLE": false, "LCHARG": false, "LPARD": false, "LVTOT": false, "LVHAR": false, "LELF": false, "LOPTICS": false, "STM": [0.0, 0.0, 0.0, 0.0, 0.0, 0.0, 0.0], "NPAR": 1, "NSIM": 4, "NBLK": -1, "LPLANE": true, "LSCALAPACK": true, "LSCAAWARE": false, "LSCALU": false, "LASYNC": false, "LORBITALREAL": false, "IDIOT": 3, "PHON_NSTRUCT": -1, "LMUSIC": false, "POMASS": [22.99, 32.066], "DARWINR": [0.0, 0.0], "DARWINV": [1.0, 1.0], "LCORR": true, "GGA_COMPAT": true, "LBERRY": false, "ICORELEVEL": 0, "LDAU": false, "I_CONSTRAINED_M": 0, "GGA": "--", "VOSKOWN": 0, "LHFCALC": false, "PRECFOCK": "", "LSYMGRAD": false, "LHFONE": false, "LRHFCALC": false, "LTHOMAS": false, "LMODELHF": false, "LFOCKACE": false, "ENCUT4O": -1.0, "EXXOEP": 0, "FOURORBIT": 0, "AEXX": 0.0, "HFALPHA": 0.0, "MCALPHA": 0.0, "ALDAX": 1.0, "AGGAX": 1.0, "ALDAC": 1.0, "AGGAC": 1.0, "NKREDX": 1, "NKREDY": 1, "NKREDZ": 1, "SHIFTRED": false, "ODDONLY": false, "EVENONLY": false, "LMAXFOCK": 0, "NMAXFOCKAE": 0, "LFOCKAEDFT": false, "HFSCREEN": 0.0, "HFSCREENC": 0.0, "NBANDSGWLOW": 0, "LUSE_VDW": false, "Zab_VDW": -0.8491, "PARAM1": 0.1234, "PARAM2": 1.0, "PARAM3": 0.0, "MODEL_GW": 0, "MODEL_EPS0": 23.69612503, "MODEL_ALPHA": 1.0, "LEPSILON": false, "LRPA": false, "LNABLA": false, "LVEL": false, "CSHIFT": 0.1, "OMEGAMAX": -1.0, "DEG_THRESHOLD": 0.002, "RTIME": -0.1, "WPLASMAI": 0.0, "DFIELD": [0.0, 0.0, 0.0], "WPLASMA": [0.0, 0.0, 0.0, 0.0, 0.0, 0.0, 0.0, 0.0, 0.0], "NUCIND": false, "MAGPOS": [0.0, 0.0, 0.0], "LNICSALL": true, "ORBITALMAG": false, "LMAGBLOCH": false, "LCHIMAG": false, "LGAUGE": true, "MAGATOM": 0, "MAGDIPOL": [0.0, 0.0, 0.0], "AVECCONST": [0.0, 0.0, 0.0], "LFINITE_TEMPERATURE": false, "LADDER": false, "LRPAFORCE": false, "LFXC": false, "LHARTREE": true, "IBSE": 0, "KPOINT": [-1, 0, 0, 0], "LTCTC": false, "LTCTE": false, "LTETE": false, "LTRIPLET": false, "LFXCEPS": false, "LFXHEG": false, "NATURALO": 2, "LHOLEGF": false, "L2ORDER": false, "LDMP1": false, "LMP2LT": false, "LSMP2LT": false, "LGWLF": false, "ENCUTGW": -2.0, "ENCUTGWSOFT": -2.0, "ENCUTLF": -1.0, "LESF_SPLINES": false, "LMAXMP2": -1, "SCISSOR": 0.0, "NOMEGA": 0, "NOMEGAR": 0, "NBANDSGW": -1, "NBANDSO": -1, "NBANDSV": -1, "NELMGW": 1, "NELMHF": 1, "DIM": 3, "IESPILON": 4, "ANTIRES": 0, "OMEGAMIN": -30.0, "OMEGATL": -200.0, "OMEGAGRID": 0, "LSELFENERGY": false, "LSPECTRAL": false, "LSPECTRALGW": false, "LSINGLES": false, "LFERMIGW": false, "ODDONLYGW": false, "EVENONLYGW": false, "NKREDLFX": 1, "NKREDLFY": 1, "NKREDLFZ": 1, "MAXMEM": 2800, "TELESCOPE": 0, "NTAUPAR": -1, "NOMEGAPAR": -1, "DAMP_NEWTON": 0.80000001, "LAMBDA": 1.0, "OFIELD_KAPPA": 0.0, "OFIELD_K": [0.0, 0.0, 0.0], "OFIELD_Q6_NEAR": 0.0, "OFIELD_Q6_FAR": 0.0, "OFIELD_A": 0.0, "KPOINTS_OPT_MODE": 1, "LKPOINTS_OPT": false, "@module": "pymatgen.io.vasp.inputs", "@class": "Incar"}, "relaxed_structures": {"@module": "pymatgen.core.structure", "@class": "Structure", "charge": 0, "lattice": {"matrix": [[6.552952, 0.0, 0.0], [0.0, 14.652846, 0.0], [0.0, 0.0, 46.889107]], "a": 6.552952, "b": 14.652846, "c": 46.889107, "alpha": 90.0, "beta": 90.0, "gamma": 90.0, "volume": 4502.263756629196}, "sites": [{"species": [{"element": "Na", "occu": 1}], "abc": [0.76395043, 0.77258831, 0.05441973], "xyz": [5.00613049816936, 11.32061752783026, 2.55169254288111], "label": "Na", "properties": {}}, {"species": [{"element": "Na", "occu": 1}], "abc": [0.24734438, 0.06394565, 0.03104378], "xyz": [1.6208358496097601, 0.9369857618199001, 1.45561512210446], "label": "Na", "properties": {}}, {"species": [{"element": "Na", "occu": 1}], "abc": [0.26089839, 0.46326504, 0.09154688999999999], "xyz": [1.70965462654728, 6.78815128830384, 4.29255192072723], "label": "Na", "properties": {}}, {"species": [{"element": "Na", "occu": 1}], "abc": [0.73603237, 0.27261145, 0.05441053], "xyz": [4.82318479105624, 3.9945335946866996, 2.55126116309671], "label": "Na", "properties": {}}, {"species": [{"element": "Na", "occu": 1}], "abc": [0.23906573, 0.96323273, 0.09154715], "xyz": [1.5665862535349602, 14.11410085484958, 4.29256411189505], "label": "Na", "properties": {}}, {"species": [{"element": "Na", "occu": 1}], "abc": [0.25273248, 0.563968, 0.03105393], "xyz": [1.65614381028096, 8.263736252928, 1.4560910465405101], "label": "Na", "properties": {}}, {"species": [{"element": "Na", "occu": 1}], "abc": [0.7094406, 0.06667379, 0.030243569999999997], "xyz": [4.6489301986512, 0.97696077710634, 1.41809398979199], "label": "Na", "properties": {}}, {"species": [{"element": "Na", "occu": 1}], "abc": [0.76008872, 0.46103048, 0.09125406], "xyz": [4.9808248979014405, 6.755408624746081, 4.27882138352442], "label": "Na", "properties": {}}, {"species": [{"element": "Na", "occu": 1}], "abc": [0.17268593, 0.31847694, 9.99999999999994e-05], "xyz": [1.13160261036536, 4.6665935563712395, 0.004688910699999972], "label": "Na", "properties": {}}, {"species": [{"element": "Na", "occu": 1}], "abc": [0.25080366, 0.76143437, 0.06212379999999999], "xyz": [1.6435043454043199, 11.15718056271702, 2.9129295054466], "label": "Na", "properties": {}}, {"species": [{"element": "Na", "occu": 1}], "abc": [0.7399425, 0.96102159, 0.09125218], "xyz": [4.84880768526, 14.08170136094514, 4.27873323200326], "label": "Na", "properties": {}}, {"species": [{"element": "Na", "occu": 1}], "abc": [0.79052219, 0.56668138, 0.030247449999999995], "xyz": [5.18025396600488, 8.30349499220748, 1.41827591952715], "label": "Na", "properties": {}}, {"species": [{"element": "Na", "occu": 1}], "abc": [0.24918531, 0.26143824, 0.06211388999999999], "xyz": [1.63289937553512, 3.83081426923104, 2.91246483439623], "label": "Na", "properties": {}}, {"species": [{"element": "Na", "occu": 1}], "abc": [0.3273545, 0.81846714, 0.00010274000000000047], "xyz": [2.145138325484, 11.99287295848044, 0.004817386853180022], "label": "Na", "properties": {}}, {"species": [{"element": "Na", "occu": 1}], "abc": [0.74651091, 0.16462712, 0.12109652], "xyz": [4.89185016070632, 2.41225583678352, 5.6781076836076405], "label": "Na", "properties": {}}, {"species": [{"element": "Na", "occu": 1}], "abc": [0.7513632, 0.56400776, 0.18458558], "xyz": [4.923646984166401, 8.26431885008496, 8.65505301127706], "label": "Na", "properties": {}}, {"species": [{"element": "Na", "occu": 1}], "abc": [0.24854936, 0.86330888, 0.15379106], "xyz": [1.62873202571072, 12.649932069072479, 7.211125467983421], "label": "Na", "properties": {}}, {"species": [{"element": "Na", "occu": 1}], "abc": [0.2498267, 0.26344043, 0.21621086], "xyz": [1.6371023734184003, 3.86015205096378, 10.137934149102021], "label": "Na", "properties": {}}, {"species": [{"element": "Na", "occu": 1}], "abc": [0.74856316, 0.06400256, 0.18457980000000002], "xyz": [4.90529845644832, 0.9378196552857601, 8.6547819922386], "label": "Na", "properties": {}}, {"species": [{"element": "Na", "occu": 1}], "abc": [0.75345327, 0.66463454, 0.12111129], "xyz": [4.93734311255304, 9.73878756090084, 5.67880023571803], "label": "Na", "properties": {}}, {"species": [{"element": "Na", "occu": 1}], "abc": [0.25007485, 0.76342829, 0.21622191000000002], "xyz": [1.6387284884572002, 11.186397165413341, 10.138452273734371], "label": "Na", "properties": {}}, {"species": [{"element": "Na", "occu": 1}], "abc": [0.25138792, 0.36331636, 0.15379001], "xyz": [1.64733297313984, 5.32361867236056, 7.21107623442107], "label": "Na", "properties": {}}, {"species": [{"element": "Na", "occu": 1}], "abc": [0.7487403, 0.86354425, 0.15381747], "xyz": [4.906459246365601, 12.6533809094355, 7.2123638092992906], "label": "Na", "properties": {}}, {"species": [{"element": "Na", "occu": 1}], "abc": [0.75013942, 0.26329994, 0.21625505], "xyz": [4.915627612567841, 3.8580934726292404, 10.14000617874035], "label": "Na", "properties": {}}, {"species": [{"element": "Na", "occu": 1}], "abc": [0.24705947, 0.16293431, 0.12245643999999999], "xyz": [1.61896884805544, 2.38745135254626, 5.74187311799908], "label": "Na", "properties": {}}, {"species": [{"element": "Na", "occu": 1}], "abc": [0.25119065, 0.56353601, 0.18507310000000002], "xyz": [1.6460402722988001, 8.25740636998446, 8.677912388721701], "label": "Na", "properties": {}}, {"species": [{"element": "Na", "occu": 1}], "abc": [0.74980166, 0.76327589, 0.21626749], "xyz": [4.913414287500321, 11.18416407168294, 10.140589479231432], "label": "Na", "properties": {}}, {"species": [{"element": "Na", "occu": 1}], "abc": [0.75118719, 0.36356471, 0.15381699000000001], "xyz": [4.922493599084881, 5.3272577066646605, 7.212341302527931], "label": "Na", "properties": {}}, {"species": [{"element": "Na", "occu": 1}], "abc": [0.24876407, 0.0635343, 0.18506758], "xyz": [1.63013901003464, 0.9309583136178, 8.677653560851061], "label": "Na", "properties": {}}, {"species": [{"element": "Na", "occu": 1}], "abc": [0.25289393, 0.66294237, 0.12246285999999999], "xyz": [1.65720178438136, 9.71399245448502, 5.74217414606602], "label": "Na", "properties": {}}, {"species": [{"element": "Na", "occu": 1}], "abc": [0.74973018, 0.96334756, 0.24756289], "xyz": [4.9129458824913605, 14.11578344115576, 11.608002838439232], "label": "Na", "properties": {}}, {"species": [{"element": "Na", "occu": 1}], "abc": [0.74986084, 0.36251739, 0.31034820999999996], "xyz": [4.91380209119968, 5.3119114879919405, 14.551950425948469], "label": "Na", "properties": {}}, {"species": [{"element": "Na", "occu": 1}], "abc": [0.2498394, 0.66286402, 0.27899616], "xyz": [1.6371855959088, 9.71284440400092, 13.08188079882912], "label": "Na", "properties": {}}, {"species": [{"element": "Na", "occu": 1}], "abc": [0.25014022, 0.06194729, 0.34180285], "xyz": [1.6391568549294402, 0.9077041004873401, 16.02683040655495], "label": "Na", "properties": {}}, {"species": [{"element": "Na", "occu": 1}], "abc": [0.75000707, 0.86253068, 0.31034634], "xyz": [4.91476032937064, 12.63852922431528, 14.551862743318381], "label": "Na", "properties": {}}, {"species": [{"element": "Na", "occu": 1}], "abc": [0.75016763, 0.46335928, 0.24756334], "xyz": [4.91581247134376, 6.78953217251088, 11.60802393853738], "label": "Na", "properties": {}}, {"species": [{"element": "Na", "occu": 1}], "abc": [0.24974748, 0.56194416, 0.34180791], "xyz": [1.63658324856096, 8.23408123707936, 16.02706766543637], "label": "Na", "properties": {}}, {"species": [{"element": "Na", "occu": 1}], "abc": [0.25007115, 0.16288129, 0.27898596], "xyz": [1.6387042425348002, 2.38667445865134, 13.08140252993772], "label": "Na", "properties": {}}, {"species": [{"element": "Na", "occu": 1}], "abc": [0.75010929, 0.66289269, 0.27897747], "xyz": [4.91543017212408, 9.71326450109574, 13.08100444141929], "label": "Na", "properties": {}}, {"species": [{"element": "Na", "occu": 1}], "abc": [0.75038307, 0.06214546, 0.34170798999999996], "xyz": [4.917224239322641, 0.91060785497916, 16.02238250586493], "label": "Na", "properties": {}}, {"species": [{"element": "Na", "occu": 1}], "abc": [0.24976128, 0.96310802, 0.24764664], "xyz": [1.6366736792985601, 14.11227349842492, 11.611929801150481], "label": "Na", "properties": {}}, {"species": [{"element": "Na", "occu": 1}], "abc": [0.24976261, 0.36249664, 0.31037187], "xyz": [1.63668239472472, 5.31160744143744, 14.55305982222009], "label": "Na", "properties": {}}, {"species": [{"element": "Na", "occu": 1}], "abc": [0.74956707, 0.56215516, 0.34171397], "xyz": [4.91187703049064, 8.23717298758536, 16.02266290272479], "label": "Na", "properties": {}}, {"species": [{"element": "Na", "occu": 1}], "abc": [0.74981629, 0.16290871, 0.27897036999999997], "xyz": [4.913510157188081, 2.38707623968866, 13.08067152875959], "label": "Na", "properties": {}}, {"species": [{"element": "Na", "occu": 1}], "abc": [0.25013049, 0.86249672, 0.31036936], "xyz": [1.63909309470648, 12.63803161366512, 14.55294213056152], "label": "Na", "properties": {}}, {"species": [{"element": "Na", "occu": 1}], "abc": [0.25018394, 0.46311575, 0.24764974000000003], "xyz": [1.63944334999088, 6.7859637649245, 11.612075157382183], "label": "Na", "properties": {}}, {"species": [{"element": "Na", "occu": 1}], "abc": [0.75006003, 0.76166011, 0.37316666], "xyz": [4.91510737370856, 11.16048829617306, 17.49745144957262], "label": "Na", "properties": {}}, {"species": [{"element": "Na", "occu": 1}], "abc": [0.75159738, 0.16158552, 0.43568605], "xyz": [4.92518155446576, 2.36768774038992, 20.42892981685735], "label": "Na", "properties": {}}, {"species": [{"element": "Na", "occu": 1}], "abc": [0.24844187, 0.46091042, 0.4048486], "xyz": [1.62802764890024, 6.75364940405532, 18.9829893242002], "label": "Na", "properties": {}}, {"species": [{"element": "Na", "occu": 1}], "abc": [0.25335462, 0.86013836, 0.46837810999999996], "xyz": [1.66022066383824, 12.60347492777256, 21.961831316247768], "label": "Na", "properties": {}}, {"species": [{"element": "Na", "occu": 1}], "abc": [0.74836278, 0.66158001, 0.43568245], "xyz": [4.903985375926561, 9.69403000320846, 20.42876101607215], "label": "Na", "properties": {}}, {"species": [{"element": "Na", "occu": 1}], "abc": [0.74984032, 0.26165371, 0.37317279999999997], "xyz": [4.91366762462464, 3.83397151795866, 17.4977393486896], "label": "Na", "properties": {}}, {"species": [{"element": "Na", "occu": 1}], "abc": [0.24661622, 0.3601296, 0.46838675999999996], "xyz": [1.6160642520814401, 5.2769235688416, 21.962236907023318], "label": "Na", "properties": {}}, {"species": [{"element": "Na", "occu": 1}], "abc": [0.25148381, 0.96095933, 0.40484745], "xyz": [1.64796133570712, 14.08078907475318, 18.98293540172715], "label": "Na", "properties": {}}, {"species": [{"element": "Na", "occu": 1}], "abc": [0.74864805, 0.46139961, 0.40432552], "xyz": [4.9058547365436, 6.760817429790061, 18.95846257011064], "label": "Na", "properties": {}}, {"species": [{"element": "Na", "occu": 1}], "abc": [0.75304151, 0.8617677, 0.46698344999999997], "xyz": [4.93464486903752, 12.6273493958742, 21.89643695427915], "label": "Na", "properties": {}}, {"species": [{"element": "Na", "occu": 1}], "abc": [0.24997779, 0.76184287, 0.37311879], "xyz": [1.6380924589360801, 11.16316625030802, 17.49520686802053], "label": "Na", "properties": {}}, {"species": [{"element": "Na", "occu": 1}], "abc": [0.25133699, 0.16129941, 0.43566634], "xyz": [1.64699923129448, 2.36349541462086, 20.42800563255838], "label": "Na", "properties": {}}, {"species": [{"element": "Na", "occu": 1}], "abc": [0.74689279, 0.36173902, 0.46698532], "xyz": [4.89435260201608, 5.300506152250921, 21.89652463690924], "label": "Na", "properties": {}}, {"species": [{"element": "Na", "occu": 1}], "abc": [0.75128458, 0.96143596, 0.40432693], "xyz": [4.92313179108016, 14.08777306074216, 18.95852868375151], "label": "Na", "properties": {}}, {"species": [{"element": "Na", "occu": 1}], "abc": [0.24862955, 0.66130876, 0.4356695], "xyz": [1.6292575069316002, 9.69005541873096, 20.4281538021365], "label": "Na", "properties": {}}, {"species": [{"element": "Na", "occu": 1}], "abc": [0.24994157, 0.26183095, 0.37312844], "xyz": [1.63785511101464, 3.8365685883837, 17.495659347903082], "label": "Na", "properties": {}}, {"species": [{"element": "Na", "occu": 1}], "abc": [0.73886935, 0.56147501, 0.49799422], "xyz": [4.8417753848212, 8.22720685437846, 23.35050426696154], "label": "Na", "properties": {}}, {"species": [{"element": "Na", "occu": 1}], "abc": [0.75247795, 0.96085249, 0.55851284], "xyz": [4.9309518874083995, 14.07922356468654, 26.18816831563388], "label": "Na", "properties": {}}, {"species": [{"element": "Na", "occu": 1}], "abc": [0.23648159, 0.25235886, 0.53509821], "xyz": [1.54965250815368, 3.6977755123155602, 25.090277224198474], "label": "Na", "properties": {}}, {"species": [{"element": "Na", "occu": 1}], "abc": [0.74777722, 0.46082221, 0.5585093], "xyz": [4.90014822935344, 6.75235687650966, 26.1880023281951], "label": "Na", "properties": {}}, {"species": [{"element": "Na", "occu": 1}], "abc": [0.76116436, 0.06148072, 0.49799303], "xyz": [4.98787351519072, 0.90086752212912, 23.35044846892421], "label": "Na", "properties": {}}, {"species": [{"element": "Na", "occu": 1}], "abc": [0.263698, 0.75234076, 0.5350900500000001], "xyz": [1.728000336496, 11.02393329580296, 25.089894609085356], "label": "Na", "properties": {}}, {"species": [{"element": "Na", "occu": 1}], "abc": [0.74971049, 0.26353938, 0.5274266000000001], "xyz": [4.91281685486648, 3.86160195007548, 24.730562282046204], "label": "Na", "properties": {}}, {"species": [{"element": "Na", "occu": 1}], "abc": [0.82716271, 0.70663518, 0.58939721], "xyz": [5.42035753481992, 10.35421647072228, 27.636308845191472], "label": "Na", "properties": {}}, {"species": [{"element": "Na", "occu": 1}], "abc": [0.23976641, 0.56375021, 0.49825669], "xyz": [1.5711777759423202, 8.26054500959766, 23.362811250875833], "label": "Na", "properties": {}}, {"species": [{"element": "Na", "occu": 1}], "abc": [0.29047058, 0.95840774, 0.5592893600000001], "xyz": [1.90343976815216, 14.043401019428039, 26.224578645001525], "label": "Na", "properties": {}}, {"species": [{"element": "Na", "occu": 1}], "abc": [0.673063, 0.20666518, 0.5894035200000001], "xyz": [4.410549531976, 3.0282330561022803, 27.636604715456645], "label": "Na", "properties": {}}, {"species": [{"element": "Na", "occu": 1}], "abc": [0.75050936, 0.76353144, 0.5274223600000001], "xyz": [4.91805181163072, 11.18790860647824, 24.730363472232526], "label": "Na", "properties": {}}, {"species": [{"element": "Na", "occu": 1}], "abc": [0.20984128, 0.45843168, 0.55929792], "xyz": [1.37507983545856, 6.71732880856128, 26.224980015757442], "label": "Na", "properties": {}}, {"species": [{"element": "Na", "occu": 1}], "abc": [0.2602755, 0.06376358, 0.49826560999999997], "xyz": [1.7055728582760001, 0.93431791814868, 23.36322950171027], "label": "Na", "properties": {}}, {"species": [{"element": "S", "occu": 1}], "abc": [0.01526931, 0.41439573, 0.044125649999999995], "xyz": [0.10005905550312, 6.0720768147475805, 2.0690123242945497], "label": "S", "properties": {}}, {"species": [{"element": "S", "occu": 1}], "abc": [0.99703005, 0.8137364, 0.10708887], "xyz": [6.5334900602076, 11.9235541537944, 5.021301483939091], "label": "S", "properties": {}}, {"species": [{"element": "S", "occu": 1}], "abc": [0.98470005, 0.11188548, 0.07414833], "xyz": [6.452692162047601, 1.63944070807608, 3.47674897924131], "label": "S", "properties": {}}, {"species": [{"element": "S", "occu": 1}], "abc": [0.03076431, 0.70651084, 0.01383646], "xyz": [0.20159704674312, 10.35239453585064, 0.64877925344122], "label": "S", "properties": {}}, {"species": [{"element": "S", "occu": 1}], "abc": [0.50295174, 0.31375175, 0.10709107], "xyz": [3.29581861053648, 4.5973560749805, 5.02140463997449], "label": "S", "properties": {}}, {"species": [{"element": "S", "occu": 1}], "abc": [0.4847582, 0.91440823, 0.04412625], "xyz": [3.1765972162064, 13.398682975322581, 2.0690404577587502], "label": "S", "properties": {}}, {"species": [{"element": "S", "occu": 1}], "abc": [0.46924704, 0.20652073, 0.013832929999999998], "xyz": [3.07495332926208, 3.0261164524975803, 0.6486137348935099], "label": "S", "properties": {}}, {"species": [{"element": "S", "occu": 1}], "abc": [0.51527693, 0.61189306, 0.07414584], "xyz": [3.37658498899736, 8.96597477664876, 3.4766322253648805], "label": "S", "properties": {}}, {"species": [{"element": "S", "occu": 1}], "abc": [0.99932124, 0.21314501, 0.16893334000000002], "xyz": [6.54850411830048, 3.12318100719846, 7.921133455127381], "label": "S", "properties": {}}, {"species": [{"element": "S", "occu": 1}], "abc": [0.00011928, 0.61353726, 0.23186995000000002], "xyz": [0.00078163611456, 8.99006698604196, 10.872174895634652], "label": "S", "properties": {}}, {"species": [{"element": "S", "occu": 1}], "abc": [0.9991046, 0.91380295, 0.20069867000000002], "xyz": [6.5470844867792, 13.3898139006957, 9.410581412387693], "label": "S", "properties": {}}, {"species": [{"element": "S", "occu": 1}], "abc": [0.00366416, 0.51369978, 0.13794316], "xyz": [0.02401106460032, 7.527163766573881, 6.46803158915812], "label": "S", "properties": {}}, {"species": [{"element": "S", "occu": 1}], "abc": [0.49983396, 0.11353896, 0.23186663000000002], "xyz": [3.27538794784992, 1.66366889588016, 10.87201922379941], "label": "S", "properties": {}}, {"species": [{"element": "S", "occu": 1}], "abc": [0.50062203, 0.71315248, 0.16893414], "xyz": [3.2805521327325606, 10.44971346395808, 7.921170966412981], "label": "S", "properties": {}}, {"species": [{"element": "S", "occu": 1}], "abc": [0.49626806, 0.01371377, 0.13793942], "xyz": [3.2520207763131204, 0.20094575988942, 6.4678562238979405], "label": "S", "properties": {}}, {"species": [{"element": "S", "occu": 1}], "abc": [0.50090431, 0.41380427, 0.20069752000000002], "xyz": [3.28240190002312, 6.06341024245242, 9.410527489914642], "label": "S", "properties": {}}, {"species": [{"element": "S", "occu": 1}], "abc": [1.036e-05, 0.01266271, 0.29456581], "xyz": [6.788858272e-05, 0.18554473957266002, 13.81192778363167], "label": "S", "properties": {}}, {"species": [{"element": "S", "occu": 1}], "abc": [0.99970577, 0.41185512, 0.3574485], "xyz": [6.551023924933041, 6.03484964767152, 16.7604409634895], "label": "S", "properties": {}}, {"species": [{"element": "S", "occu": 1}], "abc": [0.99993343, 0.7124095, 0.32611964], "xyz": [6.5525157699853604, 10.438826692437, 15.29145869476148], "label": "S", "properties": {}}, {"species": [{"element": "S", "occu": 1}], "abc": [0.99996362, 0.31300079, 0.26327584], "xyz": [6.55271360360624, 4.58635237374834, 12.344769032274879], "label": "S", "properties": {}}, {"species": [{"element": "S", "occu": 1}], "abc": [0.50027115, 0.91186467, 0.35744927], "xyz": [3.2782528329348, 13.361412582350821, 16.760477068101892], "label": "S", "properties": {}}, {"species": [{"element": "S", "occu": 1}], "abc": [0.49992665, 0.51268816, 0.29458462999999996], "xyz": [3.2759953409708, 7.512340654503359, 13.81281023662541], "label": "S", "properties": {}}, {"species": [{"element": "S", "occu": 1}], "abc": [0.49993937, 0.81299635, 0.26327893999999996], "xyz": [3.27607869452024, 11.9127103151121, 12.344914388506579], "label": "S", "properties": {}}, {"species": [{"element": "S", "occu": 1}], "abc": [0.49999604, 0.21235057, 0.32612044], "xyz": [3.27645005031008, 3.11154020022222, 15.291496206047082], "label": "S", "properties": {}}, {"species": [{"element": "S", "occu": 1}], "abc": [0.00079812, 0.81157469, 0.42034667], "xyz": [0.00523004205024, 11.89187895006774, 19.70967998672369], "label": "S", "properties": {}}, {"species": [{"element": "S", "occu": 1}], "abc": [0.00314798, 0.21108824, 0.48241411], "xyz": [0.02062856183696, 3.0930434731310403, 22.619966822099773], "label": "S", "properties": {}}, {"species": [{"element": "S", "occu": 1}], "abc": [0.99554935, 0.51103079, 0.45159305], "xyz": [6.5237871041812, 7.48805546712834, 21.17479484190635], "label": "S", "properties": {}}, {"species": [{"element": "S", "occu": 1}], "abc": [0.00079464, 0.11123269, 0.38876995], "xyz": [0.00520723777728, 1.62987547673574, 18.22907578393465], "label": "S", "properties": {}}, {"species": [{"element": "S", "occu": 1}], "abc": [0.49690963, 0.71108333, 0.48240921], "xyz": [3.25622495372776, 10.41939452765718, 22.61973706547547], "label": "S", "properties": {}}, {"species": [{"element": "S", "occu": 1}], "abc": [0.49913448, 0.31154408, 0.42033989], "xyz": [3.27080428898496, 4.56500742645168, 19.70936207857823], "label": "S", "properties": {}}, {"species": [{"element": "S", "occu": 1}], "abc": [0.49911985, 0.61122066, 0.38876499], "xyz": [3.2707084192972, 8.95612220299836, 18.22884321396393], "label": "S", "properties": {}}, {"species": [{"element": "S", "occu": 1}], "abc": [0.50447086, 0.01101457, 0.45158784999999996], "xyz": [3.30577333097872, 0.16139479796622, 21.17455101854995], "label": "S", "properties": {}}, {"species": [{"element": "S", "occu": 1}], "abc": [0.98485142, 0.61068369, 0.5454121700000001], "xyz": [6.453684082391841, 8.94825406428174, 25.573889598232196], "label": "S", "properties": {}}, {"species": [{"element": "S", "occu": 1}], "abc": [0.97030754, 0.31834934, 0.57569196], "xyz": [6.35837873485808, 4.6647238532216395, 26.993681911479722], "label": "S", "properties": {}}, {"species": [{"element": "S", "occu": 1}], "abc": [0.01563482, 0.9128072, 0.51539727], "xyz": [0.10245422498864001, 13.3752233292912, 24.16651774053789], "label": "S", "properties": {}}, {"species": [{"element": "S", "occu": 1}], "abc": [0.5155223, 0.11069872, 0.54542573], "xyz": [3.3781928868296003, 1.62205129655712, 25.574525414523112], "label": "S", "properties": {}}, {"species": [{"element": "S", "occu": 1}], "abc": [0.48449282, 0.41279758, 0.5154001], "xyz": [3.1748581938046403, 6.04865936891268, 24.166650436710704], "label": "S", "properties": {}}, {"species": [{"element": "S", "occu": 1}], "abc": [0.53007563, 0.81831044, 0.57566436], "xyz": [3.4735601597597605, 11.99057685751224, 26.99238777212652], "label": "S", "properties": {}}]}, "formula": "(Na2S)38.0", "bandgap": 2.0278, "slab_thickness": 27.631915804756645}