{"miller": "221_0.06", "final_energy": -453.74824157, "gamma": 0.019907888325522895, "work_function": 3.7917590244325243, "ionization_potentail": -4.070859024432524, "electron_affinity": -1.913759024432524, "is_stochiometric": true, "incar_parameters": {"SYSTEM": "unknown system", "LCOMPAT": false, "PREC": "normal", "ENMAX": 520.0, "ENAUG": 368.056, "EDIFF": 1e-05, "IALGO": 38, "IWAVPR": 11, "NBANDS": 552, "NBANDSLOW": -1, "NBANDSHIGH": -1, "NELECT": 920.0, "TURBO": 0, "IRESTART": 0, "NREBOOT": 0, "NMIN": 0, "EREF": 0.0, "ISMEAR": 0, "SIGMA": 0.05, "KSPACING": 0.5, "KGAMMA": true, "KBLOWUP": false, "LREAL": true, "ROPT": [-0.0005, -0.0005], "LMAXPAW": -100, "LMAXMIX": 2, "NLSPLINE": false, "ISTART": 0, "ICHARG": 2, "INIWAV": 1, "ISPIN": 1, "LNONCOLLINEAR": false, "MAGMOM": [0.6, 0.6, 0.6, 0.6, 0.6, 0.6, 0.6, 0.6, 0.6, 0.6, 0.6, 0.6, 0.6, 0.6, 0.6, 0.6, 0.6, 0.6, 0.6, 0.6, 0.6, 0.6, 0.6, 0.6, 0.6, 0.6, 0.6, 0.6, 0.6, 0.6, 0.6, 0.6, 0.6, 0.6, 0.6, 0.6, 0.6, 0.6, 0.6, 0.6, 0.6, 0.6, 0.6, 0.6, 0.6, 0.6, 0.6, 0.6, 0.6, 0.6, 0.6, 0.6, 0.6, 0.6, 0.6, 0.6, 0.6, 0.6, 0.6, 0.6, 0.6, 0.6, 0.6, 0.6, 0.6, 0.6, 0.6, 0.6, 0.6, 0.6, 0.6, 0.6, 0.6, 0.6, 0.6, 0.6, 0.6, 0.6, 0.6, 0.6, 0.6, 0.6, 0.6, 0.6, 0.6, 0.6, 0.6, 0.6, 0.6, 0.6, 0.6, 0.6, 0.6, 0.6, 0.6, 0.6, 0.6, 0.6, 0.6, 0.6, 0.6, 0.6, 0.6, 0.6, 0.6, 0.6, 0.6, 0.6, 0.6, 0.6, 0.6, 0.6, 0.6, 0.6, 0.6, 0.6, 0.6, 0.6, 0.6, 0.6, 0.6, 0.6, 0.6, 0.6, 0.6, 0.6, 0.6, 0.6, 0.6, 0.6, 0.6, 0.6, 0.6, 0.6, 0.6, 0.6, 0.6, 0.6], "NUPDOWN": -1.0, "LSORBIT": false, "SAXIS": [0.0, 0.0, 1.0], "LSPIRAL": false, "QSPIRAL": [0.0, 0.0, 0.0], "LZEROZ": false, "LASPH": false, "LMETAGGA": false, "NELM": 100, "NELMDL": 0, "NELMIN": 6, "ENINI": 520.0, "LDIAG": true, "LSUBROT": false, "WEIMIN": 0.001, "EBREAK": 0.0, "DEPER": 0.3, "NRMM": 4, "TIME": 0.4, "AMIX": 0.4, "BMIX": 1.0, "AMIN": 0.1, "AMIX_MAG": 1.6, "BMIX_MAG": 1.0, "IMIX": 4, "MIXFIRST": false, "MAXMIX": -45, "WC": 100.0, "INIMIX": 1, "MIXPRE": 1, "MREMOVE": 5, "LDIPOL": false, "LMONO": false, "IDIPOL": 0, "EPSILON": 1.0, "DIPOL": [-100.0, -100.0, -100.0], "EFIELD": 0.0, "NGX": 54, "NGY": 84, "NGZ": 250, "NGXF": 108, "NGYF": 168, "NGZF": 500, "ADDGRID": false, "NSW": 150, "IBRION": 2, "MDALGO": 0, "ISIF": 2, "PSTRESS": 0.0, "EDIFFG": -0.01, "NFREE": 1, "POTIM": 0.5, "SMASS": -3.0, "SCALEE": 1.0, "TEBEG": 0.0001, "TEEND": 0.0001, "NBLOCK": 1, "KBLOCK": 150, "NPACO": 256, "APACO": 10.0, "ISYM": 0, "SYMPREC": 1e-05, "LORBIT": 11, "RWIGS": [-1.0, -1.0], "NEDOS": 301, "EMIN": 10.0, "EMAX": -10.0, "EFERMI": 0.0, "NWRITE": 2, "LWAVE": false, "LDOWNSAMPLE": false, "LCHARG": false, "LPARD": false, "LVTOT": false, "LVHAR": false, "LELF": false, "LOPTICS": false, "STM": [0.0, 0.0, 0.0, 0.0, 0.0, 0.0, 0.0], "NPAR": 1, "NSIM": 4, "NBLK": -1, "LPLANE": true, "LSCALAPACK": true, "LSCAAWARE": false, "LSCALU": false, "LASYNC": false, "LORBITALREAL": false, "IDIOT": 3, "PHON_NSTRUCT": -1, "LMUSIC": false, "POMASS": [22.99, 32.066], "DARWINR": [0.0, 0.0], "DARWINV": [1.0, 1.0], "LCORR": true, "GGA_COMPAT": true, "LBERRY": false, "ICORELEVEL": 0, "LDAU": false, "I_CONSTRAINED_M": 0, "GGA": "--", "VOSKOWN": 0, "LHFCALC": false, "PRECFOCK": "", "LSYMGRAD": false, "LHFONE": false, "LRHFCALC": false, "LTHOMAS": false, "LMODELHF": false, "LFOCKACE": false, "ENCUT4O": -1.0, "EXXOEP": 0, "FOURORBIT": 0, "AEXX": 0.0, "HFALPHA": 0.0, "MCALPHA": 0.0, "ALDAX": 1.0, "AGGAX": 1.0, "ALDAC": 1.0, "AGGAC": 1.0, "NKREDX": 1, "NKREDY": 1, "NKREDZ": 1, "SHIFTRED": false, "ODDONLY": false, "EVENONLY": false, "LMAXFOCK": 0, "NMAXFOCKAE": 0, "LFOCKAEDFT": false, "HFSCREEN": 0.0, "HFSCREENC": 0.0, "NBANDSGWLOW": 0, "LUSE_VDW": false, "Zab_VDW": -0.8491, "PARAM1": 0.1234, "PARAM2": 1.0, "PARAM3": 0.0, "MODEL_GW": 0, "MODEL_EPS0": 24.46882267, "MODEL_ALPHA": 1.0, "LEPSILON": false, "LRPA": false, "LNABLA": false, "LVEL": false, "CSHIFT": 0.1, "OMEGAMAX": -1.0, "DEG_THRESHOLD": 0.002, "RTIME": -0.1, "WPLASMAI": 0.0, "DFIELD": [0.0, 0.0, 0.0], "WPLASMA": [0.0, 0.0, 0.0, 0.0, 0.0, 0.0, 0.0, 0.0, 0.0], "NUCIND": false, "MAGPOS": [0.0, 0.0, 0.0], "LNICSALL": true, "ORBITALMAG": false, "LMAGBLOCH": false, "LCHIMAG": false, "LGAUGE": true, "MAGATOM": 0, "MAGDIPOL": [0.0, 0.0, 0.0], "AVECCONST": [0.0, 0.0, 0.0], "LFINITE_TEMPERATURE": false, "LADDER": false, "LRPAFORCE": false, "LFXC": false, "LHARTREE": true, "IBSE": 0, "KPOINT": [-1, 0, 0, 0], "LTCTC": false, "LTCTE": false, "LTETE": false, "LTRIPLET": false, "LFXCEPS": false, "LFXHEG": false, "NATURALO": 2, "LHOLEGF": false, "L2ORDER": false, "LDMP1": false, "LMP2LT": false, "LSMP2LT": false, "LGWLF": false, "ENCUTGW": -2.0, "ENCUTGWSOFT": -2.0, "ENCUTLF": -1.0, "LESF_SPLINES": false, "LMAXMP2": -1, "SCISSOR": 0.0, "NOMEGA": 0, "NOMEGAR": 0, "NBANDSGW": -1, "NBANDSO": -1, "NBANDSV": -1, "NELMGW": 1, "NELMHF": 1, "DIM": 3, "IESPILON": 4, "ANTIRES": 0, "OMEGAMIN": -30.0, "OMEGATL": -200.0, "OMEGAGRID": 0, "LSELFENERGY": false, "LSPECTRAL": false, "LSPECTRALGW": false, "LSINGLES": false, "LFERMIGW": false, "ODDONLYGW": false, "EVENONLYGW": false, "NKREDLFX": 1, "NKREDLFY": 1, "NKREDLFZ": 1, "MAXMEM": 2800, "TELESCOPE": 0, "NTAUPAR": -1, "NOMEGAPAR": -1, "DAMP_NEWTON": 0.80000001, "LAMBDA": 1.0, "OFIELD_KAPPA": 0.0, "OFIELD_K": [0.0, 0.0, 0.0], "OFIELD_Q6_NEAR": 0.0, "OFIELD_Q6_FAR": 0.0, "OFIELD_A": 0.0, "KPOINTS_OPT_MODE": 1, "LKPOINTS_OPT": false, "@module": "pymatgen.io.vasp.inputs", "@class": "Incar"}, "relaxed_structures": {"@module": "pymatgen.core.structure", "@class": "Structure", "charge": 0, "lattice": {"matrix": [[9.267273, 0.0, 0.0], [4.633637, 13.90091, 0.0], [0.0, 0.0, 43.686346]], "a": 9.267273, "b": 14.652845821746334, "c": 43.686346, "alpha": 90.0, "beta": 90.0, "gamma": 71.5650499405594, "volume": 5627.8292135851925}, "sites": [{"species": [{"element": "Na", "occu": 1}], "abc": [0.99333052, 0.0750652, 0.05170741], "xyz": [9.55328999620436, 1.0434745893319999, 2.25890780402386], "label": "Na", "properties": {}}, {"species": [{"element": "Na", "occu": 1}], "abc": [0.22560184, 0.61095702, 0.00010000000000000026], "xyz": [4.92166689386406, 8.492858548888199, 0.004368634600000011], "label": "Na", "properties": {}}, {"species": [{"element": "Na", "occu": 1}], "abc": [0.38643815, 0.28905661, 0.075566], "xyz": [4.920611236855519, 4.0181499205151, 3.301202421836], "label": "Na", "properties": {}}, {"species": [{"element": "Na", "occu": 1}], "abc": [0.62094045, 0.82047594, 0.02304606], "xyz": [9.55621234008663, 11.405362199105399, 1.00679815109676], "label": "Na", "properties": {}}, {"species": [{"element": "Na", "occu": 1}], "abc": [0.00067341, 0.56056196, 0.05006304], "xyz": [2.60368131295945, 7.7923213553836, 2.18707128725184], "label": "Na", "properties": {}}, {"species": [{"element": "Na", "occu": 1}], "abc": [0.60996183, 0.34193255, 0.026104830000000002], "xyz": [7.23707411337394, 4.7531736036205, 1.14042463565118], "label": "Na", "properties": {}}, {"species": [{"element": "Na", "occu": 1}], "abc": [0.38938824, 0.78360519, 0.07298271], "xyz": [7.23950912484555, 10.8928252217229, 3.18834792107766], "label": "Na", "properties": {}}, {"species": [{"element": "Na", "occu": 1}], "abc": [0.4933305, 0.07506525, 0.05170741], "xyz": [4.91965354254075, 1.0434752843775, 2.25890780402386], "label": "Na", "properties": {}}, {"species": [{"element": "Na", "occu": 1}], "abc": [0.72560183, 0.61095704, 0.00010002000000000014], "xyz": [9.55530339386407, 8.4928588269064, 0.004369508326920006], "label": "Na", "properties": {}}, {"species": [{"element": "Na", "occu": 1}], "abc": [0.88643816, 0.28905661, 0.07556601], "xyz": [9.554247829528249, 4.0181499205151, 3.30120285869946], "label": "Na", "properties": {}}, {"species": [{"element": "Na", "occu": 1}], "abc": [0.12094045, 0.82047594, 0.023046050000000002], "xyz": [4.92257584008663, 11.405362199105399, 1.0067977142333], "label": "Na", "properties": {}}, {"species": [{"element": "Na", "occu": 1}], "abc": [0.50067341, 0.56056195, 0.05006303], "xyz": [7.23731776662308, 7.792321216374499, 2.18707085038838], "label": "Na", "properties": {}}, {"species": [{"element": "Na", "occu": 1}], "abc": [0.10996181, 0.34193255, 0.026104839999999997], "xyz": [2.6034374280284798, 4.7531736036205, 1.1404250725146399], "label": "Na", "properties": {}}, {"species": [{"element": "Na", "occu": 1}], "abc": [0.88938827, 0.78360518, 0.07298271], "xyz": [11.873145856527369, 10.8928250827138, 3.18834792107766], "label": "Na", "properties": {}}, {"species": [{"element": "Na", "occu": 1}], "abc": [0.55504008, 0.95230901, 0.14841960999999998], "xyz": [9.55636221147121, 13.2379618401991, 6.483910435645059], "label": "Na", "properties": {}}, {"species": [{"element": "Na", "occu": 1}], "abc": [0.77683894, 0.50862879, 0.09949979], "xyz": [9.55597971461985, 7.0704030331989, 4.3467822528673405], "label": "Na", "properties": {}}, {"species": [{"element": "Na", "occu": 1}], "abc": [0.9440759, 0.17403248, 0.17444565], "xyz": [9.55541243655046, 2.4192098415567997, 7.6208930240949], "label": "Na", "properties": {}}, {"species": [{"element": "Na", "occu": 1}], "abc": [0.1656082, 0.73130913, 0.12370840000000001], "xyz": [4.92335744364441, 10.165862398308299, 5.404367965506401], "label": "Na", "properties": {}}, {"species": [{"element": "Na", "occu": 1}], "abc": [0.7769225, 0.00799013, 0.09848649], "xyz": [7.23697626934531, 0.11107007801829999, 4.30251487846554], "label": "Na", "properties": {}}, {"species": [{"element": "Na", "occu": 1}], "abc": [0.55453076, 0.45316727, 0.14989132], "xyz": [7.23880056927847, 6.2994374352157, 6.5482040679167195], "label": "Na", "properties": {}}, {"species": [{"element": "Na", "occu": 1}], "abc": [0.16564733, 0.23079894, 0.12464325999999999], "xyz": [2.60453753677587, 3.2083152930354, 5.445208582927959], "label": "Na", "properties": {}}, {"species": [{"element": "Na", "occu": 1}], "abc": [0.94387102, 0.67468886, 0.17444474], "xyz": [11.873373684312279, 9.3787891208626, 7.6208532695200395], "label": "Na", "properties": {}}, {"species": [{"element": "Na", "occu": 1}], "abc": [0.05504011, 0.95230902, 0.14841961999999997], "xyz": [4.92272603582577, 13.2379619792082, 6.483910872508519], "label": "Na", "properties": {}}, {"species": [{"element": "Na", "occu": 1}], "abc": [0.27683899, 0.50862879, 0.09949979], "xyz": [4.9223436779835, 7.0704030331989, 4.3467822528673405], "label": "Na", "properties": {}}, {"species": [{"element": "Na", "occu": 1}], "abc": [0.44407572, 0.17403257, 0.17444568], "xyz": [4.92177468546865, 2.4192110926387, 7.620894334685279], "label": "Na", "properties": {}}, {"species": [{"element": "Na", "occu": 1}], "abc": [0.66560817, 0.73130918, 0.12370840000000001], "xyz": [9.55699389730807, 10.1658630933538, 5.404367965506401], "label": "Na", "properties": {}}, {"species": [{"element": "Na", "occu": 1}], "abc": [0.2769225, 0.00799013, 0.09848648], "xyz": [2.6033397693453098, 0.11107007801829999, 4.30251444160208], "label": "Na", "properties": {}}, {"species": [{"element": "Na", "occu": 1}], "abc": [0.05453094, 0.45316732, 0.14989131], "xyz": [2.60516596906946, 6.2994381302611995, 6.54820363105326], "label": "Na", "properties": {}}, {"species": [{"element": "Na", "occu": 1}], "abc": [0.66564726, 0.23079896, 0.12464327000000001], "xyz": [7.2381734807394995, 3.2083155710535998, 5.44520901979142], "label": "Na", "properties": {}}, {"species": [{"element": "Na", "occu": 1}], "abc": [0.44387107, 0.67468878, 0.17444474999999998], "xyz": [7.239737276984969, 9.3787880087898, 7.6208537063835], "label": "Na", "properties": {}}, {"species": [{"element": "Na", "occu": 1}], "abc": [0.11087562, 0.84059425, 0.24928496], "xyz": [4.92252325837151, 11.685025015767499, 10.89034901515616], "label": "Na", "properties": {}}, {"species": [{"element": "Na", "occu": 1}], "abc": [0.3327255, 0.39679354, 0.1999258], "xyz": [4.92205527086648, 5.5157912881214, 8.7340276731268], "label": "Na", "properties": {}}, {"species": [{"element": "Na", "occu": 1}], "abc": [0.49989219, 0.06270283, 0.27454505], "xyz": [4.92317954839058, 0.8716263965752999, 11.9938700468873], "label": "Na", "properties": {}}, {"species": [{"element": "Na", "occu": 1}], "abc": [0.72149329, 0.61925267, 0.22449253000000002], "xyz": [9.55566737015896, 8.608175632929699, 9.80725833999538], "label": "Na", "properties": {}}, {"species": [{"element": "Na", "occu": 1}], "abc": [0.33272512, 0.89698877, 0.19916503000000002], "xyz": [7.23977487425425, 12.4689601627807, 8.70079241168038], "label": "Na", "properties": {}}, {"species": [{"element": "Na", "occu": 1}], "abc": [0.11094768, 0.34048474, 0.24968198000000003], "xyz": [2.60586512847602, 4.7330477271134, 10.90769336824508], "label": "Na", "properties": {}}, {"species": [{"element": "Na", "occu": 1}], "abc": [0.72220125, 0.11817193, 0.22430134000000002], "xyz": [7.24040197190066, 1.6426973634562998, 9.798905947503641], "label": "Na", "properties": {}}, {"species": [{"element": "Na", "occu": 1}], "abc": [0.49995458, 0.56265172, 0.27474856000000003], "xyz": [7.24033940836598, 7.821370921065199, 12.002760655161762], "label": "Na", "properties": {}}, {"species": [{"element": "Na", "occu": 1}], "abc": [0.61087553, 0.84059422, 0.24928496], "xyz": [9.556158785307831, 11.685024598740199, 10.89034901515616], "label": "Na", "properties": {}}, {"species": [{"element": "Na", "occu": 1}], "abc": [0.83272586, 0.39679362, 0.19992570999999998], "xyz": [9.55569547777572, 5.5157924001942, 8.734023741355658], "label": "Na", "properties": {}}, {"species": [{"element": "Na", "occu": 1}], "abc": [0.99989239, 0.06270271, 0.27454505], "xyz": [9.556817345808739, 0.8716247284661, 11.9938700468873], "label": "Na", "properties": {}}, {"species": [{"element": "Na", "occu": 1}], "abc": [0.22149348, 0.61925264, 0.22449250999999998], "xyz": [4.92203249193172, 8.6081752159024, 9.807257466268458], "label": "Na", "properties": {}}, {"species": [{"element": "Na", "occu": 1}], "abc": [0.83272525, 0.89698861, 0.19916500999999998], "xyz": [11.87341183761782, 12.4689579386351, 8.700791537953458], "label": "Na", "properties": {}}, {"species": [{"element": "Na", "occu": 1}], "abc": [0.61094693, 0.34048504, 0.24968198000000003], "xyz": [7.23949606811237, 4.7330518973864, 10.90769336824508], "label": "Na", "properties": {}}, {"species": [{"element": "Na", "occu": 1}], "abc": [0.22220125, 0.11817229, 0.22430138], "xyz": [2.6067671400099797, 1.6427023677838999, 9.79890769495748], "label": "Na", "properties": {}}, {"species": [{"element": "Na", "occu": 1}], "abc": [0.99995421, 0.56265256, 0.27474869], "xyz": [11.87397637173005, 7.821382597829599, 12.002766334386742], "label": "Na", "properties": {}}, {"species": [{"element": "Na", "occu": 1}], "abc": [0.66702251, 0.7280392, 0.34967266], "xyz": [9.55494907188563, 10.120407395672, 15.275920811500361], "label": "Na", "properties": {}}, {"species": [{"element": "Na", "occu": 1}], "abc": [0.88893321, 0.28465627, 0.29969285], "xyz": [9.55698056079032, 3.9569811902057, 13.0924855388261], "label": "Na", "properties": {}}, {"species": [{"element": "Na", "occu": 1}], "abc": [0.05586645, 0.95054278, 0.37428962], "xyz": [4.922199839181711, 13.2134096359298, 16.35134584352852], "label": "Na", "properties": {}}, {"species": [{"element": "Na", "occu": 1}], "abc": [0.2778087, 0.50656796, 0.32488315], "xyz": [4.92178110714562, 7.041755620843601, 14.1929577004699], "label": "Na", "properties": {}}, {"species": [{"element": "Na", "occu": 1}], "abc": [0.88874918, 0.78498756, 0.29945531000000003], "xyz": [11.87362868214186, 10.9120414226796, 13.082108284197261], "label": "Na", "properties": {}}, {"species": [{"element": "Na", "occu": 1}], "abc": [0.66687855, 0.22907708, 0.34988186], "xyz": [7.241605614434109, 3.1843798721427996, 15.285059995083559], "label": "Na", "properties": {}}, {"species": [{"element": "Na", "occu": 1}], "abc": [0.27786552, 0.00676195, 0.32453143], "xyz": [2.6063880528391095, 0.0939972583745, 14.177592338854781], "label": "Na", "properties": {}}, {"species": [{"element": "Na", "occu": 1}], "abc": [0.05608978, 0.45030681, 0.37499153], "xyz": [2.60635759993791, 6.2596744381970995, 16.382009726649382], "label": "Na", "properties": {}}, {"species": [{"element": "Na", "occu": 1}], "abc": [0.16702254, 0.72803914, 0.34967267], "xyz": [4.9213125718856, 10.1204065616174, 15.27592124836382], "label": "Na", "properties": {}}, {"species": [{"element": "Na", "occu": 1}], "abc": [0.38893334, 0.28465644, 0.29969288], "xyz": [4.9233460532541, 3.9569835533604, 13.09248684941648], "label": "Na", "properties": {}}, {"species": [{"element": "Na", "occu": 1}], "abc": [0.55586644, 0.95054277, 0.37428962], "xyz": [9.55583620017261, 13.213409496920699, 16.35134584352852], "label": "Na", "properties": {}}, {"species": [{"element": "Na", "occu": 1}], "abc": [0.77780855, 0.50656797, 0.32488314], "xyz": [9.55541626339104, 7.041755759852699, 14.192957263606441], "label": "Na", "properties": {}}, {"species": [{"element": "Na", "occu": 1}], "abc": [0.38874934, 0.78498737, 0.29945529000000004], "xyz": [7.239992784514509, 10.912038781506698, 13.082107410470343], "label": "Na", "properties": {}}, {"species": [{"element": "Na", "occu": 1}], "abc": [0.16687858, 0.22907708, 0.34988184], "xyz": [2.6079693924522998, 3.1843798721427996, 15.28505912135664], "label": "Na", "properties": {}}, {"species": [{"element": "Na", "occu": 1}], "abc": [0.77786544, 0.00676202, 0.32453143], "xyz": [7.2400241358118596, 0.09399823143819999, 14.177592338854781], "label": "Na", "properties": {}}, {"species": [{"element": "Na", "occu": 1}], "abc": [0.55609011, 0.45030675, 0.37499150000000003], "xyz": [7.239996880119779, 6.2596736041425, 16.382008416059], "label": "Na", "properties": {}}, {"species": [{"element": "Na", "occu": 1}], "abc": [0.22335926, 0.61596069, 0.45036379000000004], "xyz": [4.924069483227511, 8.562414115227899, 19.674748355811342], "label": "Na", "properties": {}}, {"species": [{"element": "Na", "occu": 1}], "abc": [0.44506121, 0.1728099, 0.39976087], "xyz": [4.92524208138663, 2.402214867009, 17.46409168408102], "label": "Na", "properties": {}}, {"species": [{"element": "Na", "occu": 1}], "abc": [0.61200717, 0.8384853, 0.47466049], "xyz": [9.55687403238351, 11.655708691623, 20.73618239866954], "label": "Na", "properties": {}}, {"species": [{"element": "Na", "occu": 1}], "abc": [0.8341861, 0.39463176, 0.42568495], "xyz": [9.559210646016421, 5.4857405789016, 18.5966200126927], "label": "Na", "properties": {}}, {"species": [{"element": "Na", "occu": 1}], "abc": [0.44475929, 0.67251869, 0.39964753000000003], "xyz": [7.2379132448917, 9.3486217830079, 17.45914027362538], "label": "Na", "properties": {}}, {"species": [{"element": "Na", "occu": 1}], "abc": [0.22343091, 0.11617159, 0.4495429], "xyz": [2.60889221738126, 1.6148908171469, 19.6388866712434], "label": "Na", "properties": {}}, {"species": [{"element": "Na", "occu": 1}], "abc": [0.83443296, 0.89371592, 0.42428136], "xyz": [11.87407319491912, 12.4234645694872, 18.53530229431056], "label": "Na", "properties": {}}, {"species": [{"element": "Na", "occu": 1}], "abc": [0.61209514, 0.33914488, 0.47563838], "xyz": [7.24392702868178, 4.7144224538407995, 20.778902839559482], "label": "Na", "properties": {}}, {"species": [{"element": "Na", "occu": 1}], "abc": [0.72335922, 0.6159607, 0.45036380000000004], "xyz": [9.55770565887296, 8.562414254237, 19.6747487926748], "label": "Na", "properties": {}}, {"species": [{"element": "Na", "occu": 1}], "abc": [0.94506127, 0.17280997, 0.39976086], "xyz": [9.558879461777599, 2.4022158400727, 17.46409124721756], "label": "Na", "properties": {}}, {"species": [{"element": "Na", "occu": 1}], "abc": [0.11200721, 0.83848528, 0.47466048], "xyz": [4.92323781040169, 11.655708413604799, 20.73618196180608], "label": "Na", "properties": {}}, {"species": [{"element": "Na", "occu": 1}], "abc": [0.33418618, 0.39463177, 0.42568495], "xyz": [4.92557493373463, 5.4857407179107, 18.5966200126927], "label": "Na", "properties": {}}, {"species": [{"element": "Na", "occu": 1}], "abc": [0.94475923, 0.6725187, 0.39964753000000003], "xyz": [11.87154923519169, 9.348621922017, 17.45914027362538], "label": "Na", "properties": {}}, {"species": [{"element": "Na", "occu": 1}], "abc": [0.72343087, 0.11617155, 0.4495429], "xyz": [7.242528161344859, 1.6148902611105, 19.6388866712434], "label": "Na", "properties": {}}, {"species": [{"element": "Na", "occu": 1}], "abc": [0.33443299, 0.89371593, 0.42428136], "xyz": [7.2404370192736796, 12.4234647084963, 18.53530229431056], "label": "Na", "properties": {}}, {"species": [{"element": "Na", "occu": 1}], "abc": [0.11209514, 0.33914488, 0.47563837000000003], "xyz": [2.61029052868178, 4.7144224538407995, 20.778902402696023], "label": "Na", "properties": {}}, {"species": [{"element": "Na", "occu": 1}], "abc": [0.7681348, 0.52693932, 0.55092303], "xyz": [9.56016042230724, 7.3249360627812, 24.06781410794838], "label": "Na", "properties": {}}, {"species": [{"element": "Na", "occu": 1}], "abc": [0.00228757, 0.05815032, 0.49861577000000007], "xyz": [0.29064701001045, 0.8083423647911999, 21.782701049276422], "label": "Na", "properties": {}}, {"species": [{"element": "Na", "occu": 1}], "abc": [0.16339068, 0.73629923, 0.5740317699999999], "xyz": [4.92592939241515, 10.2352293292993, 25.077350519212416], "label": "Na", "properties": {}}, {"species": [{"element": "Na", "occu": 1}], "abc": [0.39542745, 0.27231508, 0.5223677], "xyz": [4.92634336118981, 3.7854274187228, 22.8203360814242], "label": "Na", "properties": {}}, {"species": [{"element": "Na", "occu": 1}], "abc": [0.99979076, 0.56372156, 0.50104785], "xyz": [11.877414993911199, 7.836242670619599, 21.888949737656098], "label": "Na", "properties": {}}, {"species": [{"element": "Na", "occu": 1}], "abc": [0.77877172, 0.00533949, 0.54813043], "xyz": [7.241831392344689, 0.07422376993589999, 23.945815618108778], "label": "Na", "properties": {}}, {"species": [{"element": "Na", "occu": 1}], "abc": [0.38818484, 0.78662917, 0.52406482], "xyz": [7.2423689141326095, 10.9348612955447, 22.89447705294772], "label": "Na", "properties": {}}, {"species": [{"element": "Na", "occu": 1}], "abc": [0.26813482, 0.52693934, 0.55092303], "xyz": [4.92652420032544, 7.3249363407993995, 24.06781410794838], "label": "Na", "properties": {}}, {"species": [{"element": "Na", "occu": 1}], "abc": [0.50228749, 0.05815033, 0.49861578], "xyz": [4.924282814964979, 0.8083425038002999, 21.78270148613988], "label": "Na", "properties": {}}, {"species": [{"element": "Na", "occu": 1}], "abc": [0.66339069, 0.73629922, 0.57403178], "xyz": [9.55956593875151, 10.2352291902902, 25.07735095607588], "label": "Na", "properties": {}}, {"species": [{"element": "Na", "occu": 1}], "abc": [0.89542739, 0.27231506, 0.5223677099999999], "xyz": [9.55997921248069, 3.7854271407046, 22.820336518287657], "label": "Na", "properties": {}}, {"species": [{"element": "Na", "occu": 1}], "abc": [0.49979078, 0.56372157, 0.5010478399999999], "xyz": [7.24377872559303, 7.8362428096287, 21.888949300792635], "label": "Na", "properties": {}}, {"species": [{"element": "Na", "occu": 1}], "abc": [0.27877168, 0.00533952, 0.5481304899999999], "xyz": [2.60819466066288, 0.0742241869632, 23.945818239289537], "label": "Na", "properties": {}}, {"species": [{"element": "Na", "occu": 1}], "abc": [0.88818487, 0.78662914, 0.52406482], "xyz": [11.87600555314169, 10.9348608785174, 22.89447705294772], "label": "Na", "properties": {}}, {"species": [{"element": "S", "occu": 1}], "abc": [0.58112023, 0.89950943, 0.08394926], "xyz": [9.5533999939297, 12.503999630581301, 3.66743641880396], "label": "S", "properties": {}}, {"species": [{"element": "S", "occu": 1}], "abc": [0.80689028, 0.44801432, 0.03704591], "xyz": [9.55360823548828, 6.2278067410312, 1.6184004421448601], "label": "S", "properties": {}}, {"species": [{"element": "S", "occu": 1}], "abc": [0.08112024, 0.89950943, 0.08394926], "xyz": [4.91976358660243, 12.503999630581301, 3.66743641880396], "label": "S", "properties": {}}, {"species": [{"element": "S", "occu": 1}], "abc": [0.30689028, 0.44801433, 0.0370459], "xyz": [4.91997178182465, 6.2278068800403, 1.6184000052814], "label": "S", "properties": {}}, {"species": [{"element": "S", "occu": 1}], "abc": [0.69271726, 0.17666563, 0.06205720000000001], "xyz": [7.2382043600282895, 2.4558130227232997, 2.7110523109912004], "label": "S", "properties": {}}, {"species": [{"element": "S", "occu": 1}], "abc": [0.92120153, 0.71992344, 0.012390640000000001], "xyz": [11.87288995527897, 10.0075909463304, 0.5413017862014401], "label": "S", "properties": {}}, {"species": [{"element": "S", "occu": 1}], "abc": [0.19271725, 0.17666563, 0.06205720000000001], "xyz": [2.60456776735556, 2.4558130227232997, 2.7110523109912004], "label": "S", "properties": {}}, {"species": [{"element": "S", "occu": 1}], "abc": [0.42120152, 0.71992343, 0.012390640000000001], "xyz": [7.2392533162698705, 10.0075908073213, 0.5413017862014401], "label": "S", "properties": {}}, {"species": [{"element": "S", "occu": 1}], "abc": [0.1380335, 0.78643439, 0.18643917999999998], "xyz": [4.92324561522193, 10.9321536762949, 8.144846525436279], "label": "S", "properties": {}}, {"species": [{"element": "S", "occu": 1}], "abc": [0.36026321, 0.34186841, 0.13769661], "xyz": [4.9227516326335, 4.7522819992531, 6.01546174748706], "label": "S", "properties": {}}, {"species": [{"element": "S", "occu": 1}], "abc": [0.6380334, 0.78643438, 0.18643917999999998], "xyz": [9.55688114215826, 10.9321535372858, 8.144846525436279], "label": "S", "properties": {}}, {"species": [{"element": "S", "occu": 1}], "abc": [0.86026322, 0.34186842, 0.13769657000000002], "xyz": [9.5563882716426, 4.7522821382622, 6.015460000033221], "label": "S", "properties": {}}, {"species": [{"element": "S", "occu": 1}], "abc": [0.25000045, 0.06238797, 0.16136442], "xyz": [2.6059056264197396, 0.8672495560527, 7.049421884209321], "label": "S", "properties": {}}, {"species": [{"element": "S", "occu": 1}], "abc": [0.47124145, 0.61997656, 0.1124388], "xyz": [7.23986949361457, 8.618238362669599, 4.912040320624801], "label": "S", "properties": {}}, {"species": [{"element": "S", "occu": 1}], "abc": [0.75000039, 0.06238793, 0.16136441], "xyz": [7.239541385037879, 0.8672490000163, 7.0494214473458605], "label": "S", "properties": {}}, {"species": [{"element": "S", "occu": 1}], "abc": [0.97124147, 0.61997657, 0.11243879], "xyz": [11.8735062252964, 8.618238501678698, 4.91203988376134], "label": "S", "properties": {}}, {"species": [{"element": "S", "occu": 1}], "abc": [0.694618, 0.6737066, 0.28711673], "xyz": [9.5589264656182, 9.365134813006, 12.543080809168579], "label": "S", "properties": {}}, {"species": [{"element": "S", "occu": 1}], "abc": [0.91668004, 0.2291576, 0.23706494], "xyz": [9.55695731852212, 3.185499173416, 10.35650099330924], "label": "S", "properties": {}}, {"species": [{"element": "S", "occu": 1}], "abc": [0.19461833, 0.67370661, 0.28711672], "xyz": [4.92529307015466, 9.365134952015099, 12.54308037230512], "label": "S", "properties": {}}, {"species": [{"element": "S", "occu": 1}], "abc": [0.41668059, 0.22915749, 0.23706495], "xyz": [4.9233254058222, 3.1854976443159, 10.3565014301727], "label": "S", "properties": {}}, {"species": [{"element": "S", "occu": 1}], "abc": [0.80531908, 0.95168031, 0.26187439], "xyz": [11.872852863056309, 13.2292223380821, 11.44033521007894], "label": "S", "properties": {}}, {"species": [{"element": "S", "occu": 1}], "abc": [0.02701343, 0.50814017, 0.21236719999999998], "xyz": [2.60487792337468, 7.0636107705547, 9.277546978251198], "label": "S", "properties": {}}, {"species": [{"element": "S", "occu": 1}], "abc": [0.30531915, 0.95168039, 0.26187439], "xyz": [7.23921738245638, 13.229223450154901, 11.44033521007894], "label": "S", "properties": {}}, {"species": [{"element": "S", "occu": 1}], "abc": [0.52701332, 0.50814014, 0.21236715], "xyz": [7.23851326496554, 7.063610353527399, 9.2775447939339], "label": "S", "properties": {}}, {"species": [{"element": "S", "occu": 1}], "abc": [0.250589, 0.56076815, 0.38771598], "xyz": [4.9206727220585496, 7.7951875840165, 16.93789445200908], "label": "S", "properties": {}}, {"species": [{"element": "S", "occu": 1}], "abc": [0.47224665, 0.11814249, 0.33712984], "xyz": [4.92386804182158, 1.6422881206659, 14.72797083716464], "label": "S", "properties": {}}, {"species": [{"element": "S", "occu": 1}], "abc": [0.75058888, 0.56076818, 0.38771598], "xyz": [9.5543082489949, 7.795188001043799, 16.93789445200908], "label": "S", "properties": {}}, {"species": [{"element": "S", "occu": 1}], "abc": [0.97224662, 0.11814243, 0.33712986], "xyz": [9.55750398578517, 1.6422872866113, 14.72797171089156], "label": "S", "properties": {}}, {"species": [{"element": "S", "occu": 1}], "abc": [0.36142177, 0.83926618, 0.36179101], "xyz": [7.23824903522987, 11.666563634223799, 15.805327242549462], "label": "S", "properties": {}}, {"species": [{"element": "S", "occu": 1}], "abc": [0.5831486, 0.395671, 0.31230958000000003], "xyz": [7.2375930611948, 5.50018696061, 13.643664370994681], "label": "S", "properties": {}}, {"species": [{"element": "S", "occu": 1}], "abc": [0.86142175, 0.83926616, 0.36179101], "xyz": [11.87188525721167, 11.6665633562056, 15.805327242549462], "label": "S", "properties": {}}, {"species": [{"element": "S", "occu": 1}], "abc": [0.0831487, 0.39567098, 0.31230954], "xyz": [2.60395739524936, 5.5001866825918, 13.64366262354084], "label": "S", "properties": {}}, {"species": [{"element": "S", "occu": 1}], "abc": [0.80794768, 0.44773986, 0.49018021], "xyz": [9.56213570194746, 6.2239914972726, 21.414182256412662], "label": "S", "properties": {}}, {"species": [{"element": "S", "occu": 1}], "abc": [0.02922385, 0.00494953, 0.43650015000000003], "xyz": [0.29375972140166, 0.06880297107229999, 19.0690965819519], "label": "S", "properties": {}}, {"species": [{"element": "S", "occu": 1}], "abc": [0.3079477, 0.44773988, 0.4901802], "xyz": [4.92849947996566, 6.223991775290799, 21.4141818195492], "label": "S", "properties": {}}, {"species": [{"element": "S", "occu": 1}], "abc": [0.52922388, 0.00494952, 0.43650016], "xyz": [4.92739645308348, 0.0688028320632, 19.069097018815363], "label": "S", "properties": {}}, {"species": [{"element": "S", "occu": 1}], "abc": [0.91773651, 0.72710667, 0.46167959000000003], "xyz": [11.874063149296019, 10.1074443800697, 20.16909430987814], "label": "S", "properties": {}}, {"species": [{"element": "S", "occu": 1}], "abc": [0.13915162, 0.28458289, 0.41278672], "xyz": [2.60820985960319, 3.9559611414298996, 18.03314347412512], "label": "S", "properties": {}}, {"species": [{"element": "S", "occu": 1}], "abc": [0.41773654, 0.72710667, 0.46167959000000003], "xyz": [7.240426927314209, 10.1074443800697, 20.16909430987814], "label": "S", "properties": {}}, {"species": [{"element": "S", "occu": 1}], "abc": [0.63915163, 0.2845829, 0.4127867], "xyz": [7.241846498612289, 3.9559612804390003, 18.0331426003982], "label": "S", "properties": {}}, {"species": [{"element": "S", "occu": 1}], "abc": [0.58181842, 0.89947018, 0.5371474199999999], "xyz": [9.55968844101332, 12.5034540198638, 23.466008043127317], "label": "S", "properties": {}}, {"species": [{"element": "S", "occu": 1}], "abc": [0.08181838, 0.89947021, 0.53714741], "xyz": [4.92605170933151, 12.5034544368911, 23.466007606263858], "label": "S", "properties": {}}, {"species": [{"element": "S", "occu": 1}], "abc": [0.46789032, 0.62742341, 0.5615956599999999], "xyz": [7.24331965673953, 8.7217563543031, 24.534062314858357], "label": "S", "properties": {}}, {"species": [{"element": "S", "occu": 1}], "abc": [0.69617559, 0.17058909, 0.51206793], "xyz": [7.242097167686399, 2.3713435870719, 22.370376765483776], "label": "S", "properties": {}}, {"species": [{"element": "S", "occu": 1}], "abc": [0.96789029, 0.62742342, 0.56159565], "xyz": [11.87695592505771, 8.7217564933122, 24.5340618779949], "label": "S", "properties": {}}, {"species": [{"element": "S", "occu": 1}], "abc": [0.19617561, 0.17058909, 0.51206794], "xyz": [2.60846085303186, 2.3713435870719, 22.37037720234724], "label": "S", "properties": {}}]}, "formula": "(Na2S)46.0", "bandgap": 2.1567, "slab_thickness": 25.07298232147588}