{"miller": "100_0.12", "final_energy": -631.2067133, "sigma": 0.000735954899209406, "incar_parameters": {"SYSTEM": "unknown system", "LCOMPAT": false, "PREC": "normal", "ENMAX": 520.0, "ENAUG": 628.945, "EDIFF": 1e-05, "IALGO": 38, "IWAVPR": 11, "NBANDS": 331, "NBANDSLOW": -1, "NBANDSHIGH": -1, "NELECT": 528.0, "TURBO": 0, "IRESTART": 0, "NREBOOT": 0, "NMIN": 0, "EREF": 0.0, "ISMEAR": 0, "SIGMA": 0.05, "KSPACING": 0.5, "KGAMMA": true, "KBLOWUP": true, "LREAL": true, "ROPT": [-0.0005, -0.0005], "LMAXPAW": -100, "LMAXMIX": 2, "NLSPLINE": false, "ISTART": 0, "ICHARG": 2, "INIWAV": 1, "ISPIN": 1, "LNONCOLLINEAR": false, "MAGMOM": [0.6, 0.6, 0.6, 0.6, 0.6, 0.6, 0.6, 0.6, 0.6, 0.6, 0.6, 0.6, 0.6, 0.6, 0.6, 0.6, 0.6, 0.6, 0.6, 0.6, 0.6, 0.6, 0.6, 0.6, 0.6, 0.6, 0.6, 0.6, 0.6, 0.6, 0.6, 0.6, 0.6, 0.6, 0.6, 0.6, 0.6, 0.6, 0.6, 0.6, 0.6, 0.6, 0.6, 0.6, 0.6, 0.6, 0.6, 0.6, 0.6, 0.6, 0.6, 0.6, 0.6, 0.6, 0.6, 0.6, 0.6, 0.6, 0.6, 0.6, 0.6, 0.6, 0.6, 0.6, 0.6, 0.6, 0.6, 0.6, 0.6, 0.6, 0.6, 0.6, 0.6, 0.6, 0.6, 0.6, 0.6, 0.6, 0.6, 0.6, 0.6, 0.6, 0.6, 0.6, 0.6, 0.6, 0.6, 0.6, 0.6, 0.6, 0.6, 0.6, 0.6, 0.6, 0.6, 0.6, 0.6, 0.6, 0.6, 0.6, 0.6, 0.6, 0.6, 0.6, 0.6, 0.6, 0.6, 0.6, 0.6, 0.6, 0.6, 0.6, 0.6, 0.6, 0.6, 0.6, 0.6, 0.6, 0.6, 0.6, 0.6, 0.6, 0.6, 0.6, 0.6, 0.6, 0.6, 0.6, 0.6, 0.6, 0.6, 0.6], "NUPDOWN": -1.0, "LSORBIT": false, "SAXIS": [0.0, 0.0, 1.0], "LSPIRAL": false, "QSPIRAL": [0.0, 0.0, 0.0], "LZEROZ": false, "LASPH": false, "LMETAGGA": false, "NELM": 100, "NELMDL": 0, "NELMIN": 6, "ENINI": 520.0, "LDIAG": true, "LSUBROT": false, "WEIMIN": 0.001, "EBREAK": 1e-08, "DEPER": 0.3, "NRMM": 4, "TIME": 0.4, "AMIX": 0.4, "BMIX": 1.0, "AMIN": 0.1, "AMIX_MAG": 1.6, "BMIX_MAG": 1.0, "IMIX": 4, "MIXFIRST": false, "MAXMIX": -45, "WC": 100.0, "INIMIX": 1, "MIXPRE": 1, "MREMOVE": 5, "LDIPOL": false, "LMONO": false, "IDIPOL": 0, "EPSILON": 1.0, "DIPOL": [-100.0, -100.0, -100.0], "EFIELD": 0.0, "NGX": 28, "NGY": 28, "NGZ": 280, "NGXF": 56, "NGYF": 56, "NGZF": 560, "ADDGRID": false, "NSW": 150, "IBRION": 2, "MDALGO": 0, "ISIF": 3, "PSTRESS": 0.0, "EDIFFG": -0.01, "NFREE": 1, "POTIM": 0.5, "SMASS": -3.0, "SCALEE": 1.0, "TEBEG": 0.0001, "TEEND": 0.0001, "NBLOCK": 1, "KBLOCK": 150, "NPACO": 256, "APACO": 10.0, "ISYM": 0, "SYMPREC": 1e-05, "LORBIT": 11, "RWIGS": [-1.0, -1.0], "NEDOS": 301, "EMIN": 10.0, "EMAX": -10.0, "EFERMI": 0.0, "NWRITE": 2, "LWAVE": false, "LDOWNSAMPLE": false, "LCHARG": false, "LPARD": false, "LVTOT": false, "LVHAR": false, "LELF": false, "LOPTICS": false, "STM": [0.0, 0.0, 0.0, 0.0, 0.0, 0.0, 0.0], "NPAR": 1, "NSIM": 4, "NBLK": -1, "LPLANE": true, "LSCALAPACK": true, "LSCAAWARE": false, "LSCALU": false, "LASYNC": false, "LORBITALREAL": false, "IDIOT": 3, "PHON_NSTRUCT": -1, "LMUSIC": false, "POMASS": [7.01, 16.0], "DARWINR": [0.0, 0.0], "DARWINV": [1.0, 1.0], "LCORR": true, "GGA_COMPAT": true, "LBERRY": false, "ICORELEVEL": 0, "LDAU": false, "I_CONSTRAINED_M": 0, "GGA": "--", "VOSKOWN": 0, "LHFCALC": false, "PRECFOCK": "", "LSYMGRAD": false, "LHFONE": false, "LRHFCALC": false, "LTHOMAS": false, "LMODELHF": false, "LFOCKACE": false, "ENCUT4O": -1.0, "EXXOEP": 0, "FOURORBIT": 0, "AEXX": 0.0, "HFALPHA": 0.0, "MCALPHA": 0.0, "ALDAX": 1.0, "AGGAX": 1.0, "ALDAC": 1.0, "AGGAC": 1.0, "NKREDX": 1, "NKREDY": 1, "NKREDZ": 1, "SHIFTRED": false, "ODDONLY": false, "EVENONLY": false, "LMAXFOCK": 0, "NMAXFOCKAE": 0, "LFOCKAEDFT": false, "HFSCREEN": 0.0, "HFSCREENC": 0.0, "NBANDSGWLOW": 0, "LUSE_VDW": false, "Zab_VDW": -0.8491, "PARAM1": 0.1234, "PARAM2": 1.0, "PARAM3": 0.0, "MODEL_GW": 0, "MODEL_EPS0": 4.72522841, "MODEL_ALPHA": 1.0, "LEPSILON": false, "LRPA": false, "LNABLA": false, "LVEL": false, "CSHIFT": 0.1, "OMEGAMAX": -1.0, "DEG_THRESHOLD": 0.002, "RTIME": -0.1, "WPLASMAI": 0.0, "DFIELD": [0.0, 0.0, 0.0], "WPLASMA": [0.0, 0.0, 0.0, 0.0, 0.0, 0.0, 0.0, 0.0, 0.0], "NUCIND": false, "MAGPOS": [0.0, 0.0, 0.0], "LNICSALL": true, "ORBITALMAG": false, "LMAGBLOCH": false, "LCHIMAG": false, "LGAUGE": true, "MAGATOM": 0, "MAGDIPOL": [0.0, 0.0, 0.0], "AVECCONST": [0.0, 0.0, 0.0], "LFINITE_TEMPERATURE": false, "LADDER": false, "LRPAFORCE": false, "LFXC": false, "LHARTREE": true, "IBSE": 0, "KPOINT": [-1, 0, 0, 0], "LTCTC": false, "LTCTE": false, "LTETE": false, "LTRIPLET": false, "LFXCEPS": false, "LFXHEG": false, "NATURALO": 2, "LHOLEGF": false, "L2ORDER": false, "LDMP1": false, "LMP2LT": false, "LSMP2LT": false, "LGWLF": false, "ENCUTGW": -2.0, "ENCUTGWSOFT": -2.0, "ENCUTLF": -1.0, "LESF_SPLINES": false, "LMAXMP2": -1, "SCISSOR": 0.0, "NOMEGA": 0, "NOMEGAR": 0, "NBANDSGW": -1, "NBANDSO": -1, "NBANDSV": -1, "NELMGW": 1, "NELMHF": 1, "DIM": 3, "IESPILON": 4, "ANTIRES": 0, "OMEGAMIN": -30.0, "OMEGATL": -200.0, "OMEGAGRID": 0, "LSELFENERGY": false, "LSPECTRAL": false, "LSPECTRALGW": false, "LSINGLES": false, "LFERMIGW": false, "ODDONLYGW": false, "EVENONLYGW": false, "NKREDLFX": 1, "NKREDLFY": 1, "NKREDLFZ": 1, "MAXMEM": 2800, "TELESCOPE": 0, "NTAUPAR": -1, "NOMEGAPAR": -1, "DAMP_NEWTON": 0.80000001, "LAMBDA": 1.0, "OFIELD_KAPPA": 0.0, "OFIELD_K": [0.0, 0.0, 0.0], "OFIELD_Q6_NEAR": 0.0, "OFIELD_Q6_FAR": 0.0, "OFIELD_A": 0.0, "KPOINTS_OPT_MODE": 1, "LKPOINTS_OPT": false, "@module": "pymatgen.io.vasp.inputs", "@class": "Incar"}, "relaxed_structures": {"@module": "pymatgen.core.structure", "@class": "Structure", "charge": 0, "lattice": {"matrix": [[4.62116, 0.0, 0.0], [0.0, 4.62116, 0.0], [0.0, 0.0, 50.78121384]], "a": 4.62116, "b": 4.62116, "c": 50.78121384, "alpha": 90.0, "beta": 90.0, "gamma": 90.0, "volume": 1084.4389023801198}, "sites": [{"species": [{"element": "Li", "occu": 1}], "abc": [0.75000009, 0.75000002, 0.04552069], "xyz": [3.4658704159044, 3.4658700924231995, 2.3115958930343496], "label": "Li", "properties": {}}, {"species": [{"element": "Li", "occu": 1}], "abc": [0.2500001, 0.25000001, 0.04552069], "xyz": [1.1552904621159998, 1.1552900462115998, 2.3115958930343496], "label": "Li", "properties": {}}, {"species": [{"element": "Li", "occu": 1}], "abc": [0.75000009, 0.25000001, 0.04552153], "xyz": [3.4658704159044, 1.1552900462115998, 2.311638549253975], "label": "Li", "properties": {}}, {"species": [{"element": "Li", "occu": 1}], "abc": [0.25000009, 0.75, 3.5e-07], "xyz": [1.1552904159044, 3.46587, 1.7773424844e-05], "label": "Li", "properties": {}}, {"species": [{"element": "Li", "occu": 1}], "abc": [0.75000009, 0.25000001, 3.5e-07], "xyz": [3.4658704159044, 1.1552900462115998, 1.7773424844e-05], "label": "Li", "properties": {}}, {"species": [{"element": "Li", "occu": 1}], "abc": [0.25000012, 0.75, 0.04552153], "xyz": [1.1552905545391998, 3.46587, 2.311638549253975], "label": "Li", "properties": {}}, {"species": [{"element": "Li", "occu": 1}], "abc": [0.25000008, 0.25000003, 0.09103557], "xyz": [1.1552903696928, 1.1552901386347998, 4.622896747216289], "label": "Li", "properties": {}}, {"species": [{"element": "Li", "occu": 1}], "abc": [0.75000004, 0.75000001, 0.13645201], "xyz": [3.4658701848463997, 3.4658700462116, 6.929198698707819], "label": "Li", "properties": {}}, {"species": [{"element": "Li", "occu": 1}], "abc": [0.25000006, 0.25000002, 0.136452], "xyz": [1.1552902772696, 1.1552900924232, 6.929198190895679], "label": "Li", "properties": {}}, {"species": [{"element": "Li", "occu": 1}], "abc": [0.75000009, 0.75000003, 0.09103557], "xyz": [3.4658704159044, 3.4658701386348, 4.622896747216289], "label": "Li", "properties": {}}, {"species": [{"element": "Li", "occu": 1}], "abc": [0.75000005, 0.25000001, 0.13655625], "xyz": [3.465870231058, 1.1552900462115998, 6.9344921324385], "label": "Li", "properties": {}}, {"species": [{"element": "Li", "occu": 1}], "abc": [0.25000007, 0.75000001, 0.09104918], "xyz": [1.1552903234812, 3.4658700462116, 4.623587879536651], "label": "Li", "properties": {}}, {"species": [{"element": "Li", "occu": 1}], "abc": [0.75000006, 0.25000001, 0.09104918], "xyz": [3.4658702772695995, 1.1552900462115998, 4.623587879536651], "label": "Li", "properties": {}}, {"species": [{"element": "Li", "occu": 1}], "abc": [0.25000007, 0.75000001, 0.13655625], "xyz": [1.1552903234812, 3.4658700462116, 6.9344921324385], "label": "Li", "properties": {}}, {"species": [{"element": "Li", "occu": 1}], "abc": [0.25000007, 0.25, 0.1818399], "xyz": [1.1552903234812, 1.15529, 9.234050846544216], "label": "Li", "properties": {}}, {"species": [{"element": "Li", "occu": 1}], "abc": [0.75000004, 0.75000002, 0.22718626], "xyz": [3.4658701848463997, 3.4658700924231995, 11.536794050569839], "label": "Li", "properties": {}}, {"species": [{"element": "Li", "occu": 1}], "abc": [0.25000011, 0.25000001, 0.22718626], "xyz": [1.1552905083276, 1.1552900462115998, 11.536794050569839], "label": "Li", "properties": {}}, {"species": [{"element": "Li", "occu": 1}], "abc": [0.75000008, 0.75000002, 0.1818399], "xyz": [3.4658703696927997, 3.4658700924231995, 9.234050846544216], "label": "Li", "properties": {}}, {"species": [{"element": "Li", "occu": 1}], "abc": [0.75000003, 0.25000004, 0.22718732], "xyz": [3.4658701386348, 1.1552901848464, 11.53684787865651], "label": "Li", "properties": {}}, {"species": [{"element": "Li", "occu": 1}], "abc": [0.25000007, 0.75000004, 0.18185254], "xyz": [1.1552903234812, 3.4658701848463997, 9.234692721087153], "label": "Li", "properties": {}}, {"species": [{"element": "Li", "occu": 1}], "abc": [0.75000004, 0.25000005, 0.18185253], "xyz": [3.4658701848463997, 1.1552902310579998, 9.234692213275016], "label": "Li", "properties": {}}, {"species": [{"element": "Li", "occu": 1}], "abc": [0.25000006, 0.75000002, 0.22718733], "xyz": [1.1552902772696, 3.4658700924231995, 11.536848386468646], "label": "Li", "properties": {}}, {"species": [{"element": "Li", "occu": 1}], "abc": [0.25000008, 0.24999999, 0.27281354], "xyz": [1.1552903696928, 1.1552899537884, 13.853802713187395], "label": "Li", "properties": {}}, {"species": [{"element": "Li", "occu": 1}], "abc": [0.75000005, 0.7499999, 0.3181601], "xyz": [3.465870231058, 3.465869537884, 16.156556073455786], "label": "Li", "properties": {}}, {"species": [{"element": "Li", "occu": 1}], "abc": [0.25000009, 0.24999995, 0.31816009], "xyz": [1.1552904159044, 1.1552897689419999, 16.156555565643647], "label": "Li", "properties": {}}, {"species": [{"element": "Li", "occu": 1}], "abc": [0.75000002, 0.74999998, 0.27281355], "xyz": [3.4658700924231995, 3.4658699075768, 13.853803220999533], "label": "Li", "properties": {}}, {"species": [{"element": "Li", "occu": 1}], "abc": [0.75000005, 0.24999996, 0.31814758], "xyz": [3.465870231058, 1.1552898151536, 16.155920292658507], "label": "Li", "properties": {}}, {"species": [{"element": "Li", "occu": 1}], "abc": [0.25000011, 0.74999995, 0.27281249], "xyz": [1.1552905083276, 3.4658697689419995, 13.853749392912862], "label": "Li", "properties": {}}, {"species": [{"element": "Li", "occu": 1}], "abc": [0.75000005, 0.24999994, 0.27281249], "xyz": [3.465870231058, 1.1552897227304, 13.853749392912862], "label": "Li", "properties": {}}, {"species": [{"element": "Li", "occu": 1}], "abc": [0.25000005, 0.74999996, 0.31814757], "xyz": [1.1552902310579998, 3.4658698151536, 16.15591978484637], "label": "Li", "properties": {}}, {"species": [{"element": "Li", "occu": 1}], "abc": [0.25000001, 0.24999996, 0.36354771], "xyz": [1.1552900462115998, 1.1552898151536, 18.461394002552307], "label": "Li", "properties": {}}, {"species": [{"element": "Li", "occu": 1}], "abc": [0.75000004, 0.75, 0.40896481], "xyz": [3.4658701848463997, 3.46587, 20.76772946964497], "label": "Li", "properties": {}}, {"species": [{"element": "Li", "occu": 1}], "abc": [0.25, 0.25000001, 0.40896481], "xyz": [1.15529, 1.1552900462115998, 20.76772946964497], "label": "Li", "properties": {}}, {"species": [{"element": "Li", "occu": 1}], "abc": [0.75000003, 0.74999995, 0.36354771], "xyz": [3.4658701386348, 3.4658697689419995, 18.461394002552307], "label": "Li", "properties": {}}, {"species": [{"element": "Li", "occu": 1}], "abc": [0.75000004, 0.25, 0.40895139], "xyz": [3.4658701848463997, 1.15529, 20.767047985755237], "label": "Li", "properties": {}}, {"species": [{"element": "Li", "occu": 1}], "abc": [0.25, 0.74999999, 0.36344391], "xyz": [1.15529, 3.4658699537883995, 18.456122912555713], "label": "Li", "properties": {}}, {"species": [{"element": "Li", "occu": 1}], "abc": [0.75000007, 0.24999999, 0.3634439], "xyz": [3.4658703234812, 1.1552899537884, 18.456122404743574], "label": "Li", "properties": {}}, {"species": [{"element": "Li", "occu": 1}], "abc": [0.25000001, 0.74999999, 0.40895139], "xyz": [1.1552900462115998, 3.4658699537883995, 20.767047985755237], "label": "Li", "properties": {}}, {"species": [{"element": "Li", "occu": 1}], "abc": [0.25, 0.25000003, 0.45447989], "xyz": [1.15529, 1.1552901386347998, 23.079040480069676], "label": "Li", "properties": {}}, {"species": [{"element": "Li", "occu": 1}], "abc": [0.75000003, 0.75000002, 0.45447989], "xyz": [3.4658701386348, 3.4658700924231995, 23.079040480069676], "label": "Li", "properties": {}}, {"species": [{"element": "Li", "occu": 1}], "abc": [0.75000001, 0.25000004, 0.49999992], "xyz": [3.4658700462116, 1.1552901848464, 25.39060285750289], "label": "Li", "properties": {}}, {"species": [{"element": "Li", "occu": 1}], "abc": [0.24999997, 0.75000006, 0.45447899], "xyz": [1.1552898613651998, 3.4658702772695995, 23.078994776977222], "label": "Li", "properties": {}}, {"species": [{"element": "Li", "occu": 1}], "abc": [0.75000002, 0.25000005, 0.45447899], "xyz": [3.4658700924231995, 1.1552902310579998, 23.078994776977222], "label": "Li", "properties": {}}, {"species": [{"element": "Li", "occu": 1}], "abc": [0.24999998, 0.75000002, 0.49999992], "xyz": [1.1552899075768, 3.4658700924231995, 25.39060285750289], "label": "Li", "properties": {}}, {"species": [{"element": "Li", "occu": 1}], "abc": [0.74999999, 0.25000008, 0.54551972], "xyz": [3.4658699537883995, 1.1552903696928, 27.702153555256928], "label": "Li", "properties": {}}, {"species": [{"element": "Li", "occu": 1}], "abc": [0.24999995, 0.75000009, 0.54551973], "xyz": [1.1552897689419999, 3.4658704159044, 27.702154063069063], "label": "Li", "properties": {}}, {"species": [{"element": "Li", "occu": 1}], "abc": [0.75000002, 0.75000001, 0.54552065], "xyz": [3.4658700924231995, 3.4658700462116, 27.7022007817858], "label": "Li", "properties": {}}, {"species": [{"element": "Li", "occu": 1}], "abc": [0.24999994, 0.25000008, 0.49999968], "xyz": [1.1552897227304, 1.1552903696928, 25.39059067001157], "label": "Li", "properties": {}}, {"species": [{"element": "Li", "occu": 1}], "abc": [0.74999998, 0.75000005, 0.49999968], "xyz": [3.4658699075768, 3.465870231058, 25.39059067001157], "label": "Li", "properties": {}}, {"species": [{"element": "Li", "occu": 1}], "abc": [0.24999999, 0.24999999, 0.54552065], "xyz": [1.1552899537884, 1.1552899537884, 27.7022007817858], "label": "Li", "properties": {}}, {"species": [{"element": "Li", "occu": 1}], "abc": [0.24999999, 0.75000004, 0.59103488], "xyz": [1.1552899537884, 3.4658701848463997, 30.013468628178742], "label": "Li", "properties": {}}, {"species": [{"element": "Li", "occu": 1}], "abc": [0.74999996, 0.24999999, 0.63645208], "xyz": [3.4658698151536, 1.1552899537884, 32.319809173392784], "label": "Li", "properties": {}}, {"species": [{"element": "Li", "occu": 1}], "abc": [0.24999998, 0.75, 0.63645208], "xyz": [1.1552899075768, 3.46587, 32.319809173392784], "label": "Li", "properties": {}}, {"species": [{"element": "Li", "occu": 1}], "abc": [0.74999998, 0.25000001, 0.59103487], "xyz": [3.4658699075768, 1.1552900462115998, 30.0134681203666], "label": "Li", "properties": {}}, {"species": [{"element": "Li", "occu": 1}], "abc": [0.74999999, 0.75, 0.63655576], "xyz": [3.4658699537883995, 3.46587, 32.32507416964372], "label": "Li", "properties": {}}, {"species": [{"element": "Li", "occu": 1}], "abc": [0.24999996, 0.25000001, 0.59104823], "xyz": [1.1552898151536, 1.1552900462115998, 30.0141465573835], "label": "Li", "properties": {}}, {"species": [{"element": "Li", "occu": 1}], "abc": [0.74999998, 0.75000004, 0.59104824], "xyz": [3.4658699075768, 3.4658701848463997, 30.01414706519564], "label": "Li", "properties": {}}, {"species": [{"element": "Li", "occu": 1}], "abc": [0.24999996, 0.24999999, 0.63655576], "xyz": [1.1552898151536, 1.1552899537884, 32.32507416964372], "label": "Li", "properties": {}}, {"species": [{"element": "Li", "occu": 1}], "abc": [0.24999998, 0.75000002, 0.6818398], "xyz": [1.1552899075768, 3.4658700924231995, 34.624652688422835], "label": "Li", "properties": {}}, {"species": [{"element": "Li", "occu": 1}], "abc": [0.74999993, 0.24999993, 0.72718655], "xyz": [3.4658696765187997, 1.1552896765187999, 36.92741569712185], "label": "Li", "properties": {}}, {"species": [{"element": "Li", "occu": 1}], "abc": [0.24999986, 0.74999994, 0.72718656], "xyz": [1.1552893530375998, 3.4658697227304, 36.92741620493399], "label": "Li", "properties": {}}, {"species": [{"element": "Li", "occu": 1}], "abc": [0.74999996, 0.25000002, 0.6818398], "xyz": [3.4658698151536, 1.1552900924232, 34.624652688422835], "label": "Li", "properties": {}}, {"species": [{"element": "Li", "occu": 1}], "abc": [0.74999995, 0.75000004, 0.72718761], "xyz": [3.4658697689419995, 3.4658701848463997, 36.92746952520852], "label": "Li", "properties": {}}, {"species": [{"element": "Li", "occu": 1}], "abc": [0.24999998, 0.24999995, 0.68185227], "xyz": [1.1552899075768, 1.1552897689419999, 34.62528593015942], "label": "Li", "properties": {}}, {"species": [{"element": "Li", "occu": 1}], "abc": [0.74999997, 0.74999995, 0.68185227], "xyz": [3.4658698613651997, 3.4658697689419995, 34.62528593015942], "label": "Li", "properties": {}}, {"species": [{"element": "Li", "occu": 1}], "abc": [0.24999986, 0.25000003, 0.72718762], "xyz": [1.1552893530375998, 1.1552901386347998, 36.92747003302066], "label": "Li", "properties": {}}, {"species": [{"element": "Li", "occu": 1}], "abc": [0.24999974, 0.75000006, 0.77281345], "xyz": [1.1552887984984, 3.4658702772695995, 39.24440506287815], "label": "Li", "properties": {}}, {"species": [{"element": "Li", "occu": 1}], "abc": [0.74999983, 0.24999995, 0.81815997], "xyz": [3.4658692144028, 1.1552897689419999, 41.547156391897985], "label": "Li", "properties": {}}, {"species": [{"element": "Li", "occu": 1}], "abc": [0.24999977, 0.74999992, 0.81815997], "xyz": [1.1552889371332, 3.4658696303072, 41.547156391897985], "label": "Li", "properties": {}}, {"species": [{"element": "Li", "occu": 1}], "abc": [0.74999981, 0.25000002, 0.77281345], "xyz": [3.4658691219796, 1.1552900924232, 39.24440506287815], "label": "Li", "properties": {}}, {"species": [{"element": "Li", "occu": 1}], "abc": [0.7499998, 0.74999996, 0.81814737], "xyz": [3.465869075768, 3.4658698151536, 41.546516548603606], "label": "Li", "properties": {}}, {"species": [{"element": "Li", "occu": 1}], "abc": [0.24999978, 0.24999992, 0.77281239], "xyz": [1.1552889833448, 1.1552896303071998, 39.24435123479148], "label": "Li", "properties": {}}, {"species": [{"element": "Li", "occu": 1}], "abc": [0.74999986, 0.74999996, 0.7728124], "xyz": [3.4658693530375997, 3.4658698151536, 39.24435174260361], "label": "Li", "properties": {}}, {"species": [{"element": "Li", "occu": 1}], "abc": [0.24999976, 0.25000001, 0.81814737], "xyz": [1.1552888909216, 1.1552900462115998, 41.546516548603606], "label": "Li", "properties": {}}, {"species": [{"element": "Li", "occu": 1}], "abc": [0.24999992, 0.74999996, 0.86354808], "xyz": [1.1552896303071998, 3.4658698151536, 43.85201971160143], "label": "Li", "properties": {}}, {"species": [{"element": "Li", "occu": 1}], "abc": [0.75000002, 0.24999997, 0.90896505], "xyz": [3.4658700924231995, 1.1552898613651998, 46.158348577136294], "label": "Li", "properties": {}}, {"species": [{"element": "Li", "occu": 1}], "abc": [0.25000001, 0.74999998, 0.90896505], "xyz": [1.1552900462115998, 3.4658699075768, 46.158348577136294], "label": "Li", "properties": {}}, {"species": [{"element": "Li", "occu": 1}], "abc": [0.7499999, 0.24999997, 0.86354807], "xyz": [3.465869537884, 1.1552898613651998, 43.85201920378929], "label": "Li", "properties": {}}, {"species": [{"element": "Li", "occu": 1}], "abc": [0.75000003, 0.75, 0.90895154], "xyz": [3.4658701386348, 3.46587, 46.157662522937315], "label": "Li", "properties": {}}, {"species": [{"element": "Li", "occu": 1}], "abc": [0.24999993, 0.24999998, 0.86344382], "xyz": [1.1552896765187999, 1.1552899075768, 43.846725262246466], "label": "Li", "properties": {}}, {"species": [{"element": "Li", "occu": 1}], "abc": [0.74999989, 0.74999999, 0.86344382], "xyz": [3.4658694916723998, 3.4658699537883995, 43.846725262246466], "label": "Li", "properties": {}}, {"species": [{"element": "Li", "occu": 1}], "abc": [0.25000003, 0.25, 0.90895154], "xyz": [1.1552901386347998, 1.15529, 46.157662522937315], "label": "Li", "properties": {}}, {"species": [{"element": "Li", "occu": 1}], "abc": [0.25000008, 0.74999999, 0.95448034], "xyz": [1.1552903696928, 3.4658699537883995, 48.46967025161591], "label": "Li", "properties": {}}, {"species": [{"element": "Li", "occu": 1}], "abc": [0.75000009, 0.24999999, 0.95448034], "xyz": [3.4658704159044, 1.1552899537884, 48.46967025161591], "label": "Li", "properties": {}}, {"species": [{"element": "Li", "occu": 1}], "abc": [0.75000009, 0.74999998, 6.4e-07], "xyz": [3.4658704159044, 3.4658699075768, 3.24999768576e-05], "label": "Li", "properties": {}}, {"species": [{"element": "Li", "occu": 1}], "abc": [0.25000006, 0.25, 0.95447942], "xyz": [1.1552902772696, 1.15529, 48.46962353289917], "label": "Li", "properties": {}}, {"species": [{"element": "Li", "occu": 1}], "abc": [0.75000006, 0.74999999, 0.95447941], "xyz": [3.4658702772695995, 3.4658699537883995, 48.46962302508704], "label": "Li", "properties": {}}, {"species": [{"element": "Li", "occu": 1}], "abc": [0.2500001, 0.25, 6.4e-07], "xyz": [1.1552904621159998, 1.15529, 3.24999768576e-05], "label": "Li", "properties": {}}, {"species": [{"element": "O", "occu": 1}], "abc": [2.5e-07, 0.50000006, 0.06826144], "xyz": [1.15529e-06, 2.3105802772695996, 3.4663987816663298], "label": "O", "properties": {}}, {"species": [{"element": "O", "occu": 1}], "abc": [3.1e-07, 2e-08, 0.02275778], "xyz": [1.4325595999999998e-06, 9.242319999999999e-08, 1.155667692703675], "label": "O", "properties": {}}, {"species": [{"element": "O", "occu": 1}], "abc": [0.50000027, 0.0, 0.06826144], "xyz": [2.3105812477132, 0.0, 3.4663987816663298], "label": "O", "properties": {}}, {"species": [{"element": "O", "occu": 1}], "abc": [0.50000033, 0.49999999, 0.02275778], "xyz": [2.3105815249828, 2.3105799537884, 1.155667692703675], "label": "O", "properties": {}}, {"species": [{"element": "O", "occu": 1}], "abc": [1.6e-07, 0.50000008, 0.15917922], "xyz": [7.393855999999999e-07, 2.3105803696928, 8.083314009704406], "label": "O", "properties": {}}, {"species": [{"element": "O", "occu": 1}], "abc": [1.4e-07, 6e-08, 0.1137857], "xyz": [6.469624e-07, 2.7726959999999997e-07, 5.778175963634088], "label": "O", "properties": {}}, {"species": [{"element": "O", "occu": 1}], "abc": [0.50000019, 9e-08, 0.15917922], "xyz": [2.3105808780204, 4.159044e-07, 8.083314009704406], "label": "O", "properties": {}}, {"species": [{"element": "O", "occu": 1}], "abc": [0.5000002, 0.50000008, 0.1137857], "xyz": [2.3105809242319997, 2.3105803696928, 5.778175963634088], "label": "O", "properties": {}}, {"species": [{"element": "O", "occu": 1}], "abc": [1.7e-07, 0.49999998, 0.24999984], "xyz": [7.855971999999998e-07, 2.3105799075768, 12.695295335005785], "label": "O", "properties": {}}, {"species": [{"element": "O", "occu": 1}], "abc": [1.6e-07, 3e-08, 0.20454567], "xyz": [7.393855999999999e-07, 1.3863479999999999e-07, 10.387077408316074], "label": "O", "properties": {}}, {"species": [{"element": "O", "occu": 1}], "abc": [0.50000017, -2e-08, 0.24999983], "xyz": [2.3105807855971996, -9.242319999999999e-08, 12.695294827193647], "label": "O", "properties": {}}, {"species": [{"element": "O", "occu": 1}], "abc": [0.50000017, 0.50000011, 0.20454567], "xyz": [2.3105807855971996, 2.3105805083276, 10.387077408316074], "label": "O", "properties": {}}, {"species": [{"element": "O", "occu": 1}], "abc": [2e-07, 0.49999981, 0.34081671], "xyz": [9.242319999999999e-07, 2.3105791219796, 17.307086230755267], "label": "O", "properties": {}}, {"species": [{"element": "O", "occu": 1}], "abc": [1.4e-07, 0.99999987, 0.29545134], "xyz": [6.469624e-07, 4.6211593992491995, 15.003377675854546], "label": "O", "properties": {}}, {"species": [{"element": "O", "occu": 1}], "abc": [0.50000016, 0.99999983, 0.34081672], "xyz": [2.3105807393856, 4.6211592144028, 17.307086738567406], "label": "O", "properties": {}}, {"species": [{"element": "O", "occu": 1}], "abc": [0.5000002, 0.49999984, 0.29545134], "xyz": [2.3105809242319997, 2.3105792606143996, 15.003377675854546], "label": "O", "properties": {}}, {"species": [{"element": "O", "occu": 1}], "abc": [3e-08, 0.50000006, 0.43173968], "xyz": [1.3863479999999999e-07, 2.3105802772695996, 21.924265013293173], "label": "O", "properties": {}}, {"species": [{"element": "O", "occu": 1}], "abc": [1e-07, 0.99999991, 0.3862143], "xyz": [4.6211599999999995e-07, 4.6211595840956, 19.612430956365912], "label": "O", "properties": {}}, {"species": [{"element": "O", "occu": 1}], "abc": [0.50000004, 7e-08, 0.43173968], "xyz": [2.3105801848464, 3.234812e-07, 21.924265013293173], "label": "O", "properties": {}}, {"species": [{"element": "O", "occu": 1}], "abc": [0.50000004, 0.49999993, 0.38621431], "xyz": [2.3105801848464, 2.3105796765188, 19.61243146417805], "label": "O", "properties": {}}, {"species": [{"element": "O", "occu": 1}], "abc": [-4e-08, 1.9e-07, 0.47724265], "xyz": [-1.8484639999999998e-07, 8.780204e-07, 24.234961063218275], "label": "O", "properties": {}}, {"species": [{"element": "O", "occu": 1}], "abc": [0.49999996, 0.50000015, 0.47724265], "xyz": [2.3105798151536, 2.310580693174, 24.234961063218275], "label": "O", "properties": {}}, {"species": [{"element": "O", "occu": 1}], "abc": [0.49999996, 0.50000009, 0.56825978], "xyz": [2.3105798151536, 2.3105804159044, 28.856921404851356], "label": "O", "properties": {}}, {"species": [{"element": "O", "occu": 1}], "abc": [0.49999994, 1.5e-07, 0.52275674], "xyz": [2.3105797227303997, 6.931739999999999e-07, 26.546221800241284], "label": "O", "properties": {}}, {"species": [{"element": "O", "occu": 1}], "abc": [-6e-08, 9e-08, 0.56825978], "xyz": [-2.7726959999999997e-07, 4.159044e-07, 28.856921404851356], "label": "O", "properties": {}}, {"species": [{"element": "O", "occu": 1}], "abc": [-5e-08, 0.50000012, 0.52275674], "xyz": [-2.3105799999999998e-07, 2.3105805545392, 26.546221800241284], "label": "O", "properties": {}}, {"species": [{"element": "O", "occu": 1}], "abc": [0.49999983, 0.49999994, 0.6591831], "xyz": [2.3105792144027997, 2.3105797227303997, 33.474117960814105], "label": "O", "properties": {}}, {"species": [{"element": "O", "occu": 1}], "abc": [0.49999995, 5e-08, 0.61378534], "xyz": [2.310579768942, 2.3105799999999998e-07, 31.168764602397104], "label": "O", "properties": {}}, {"species": [{"element": "O", "occu": 1}], "abc": [0.99999985, -2e-08, 0.6591831], "xyz": [4.621159306826, -9.242319999999999e-08, 33.474117960814105], "label": "O", "properties": {}}, {"species": [{"element": "O", "occu": 1}], "abc": [-1.1e-07, 0.50000005, 0.61378534], "xyz": [-5.083276e-07, 2.310580231058, 31.168764602397104], "label": "O", "properties": {}}, {"species": [{"element": "O", "occu": 1}], "abc": [0.49999959, 0.5, 0.75000066], "xyz": [2.3105781053244, 2.31058, 38.08594389560113], "label": "O", "properties": {}}, {"species": [{"element": "O", "occu": 1}], "abc": [0.49999986, 0.99999987, 0.70454887], "xyz": [2.3105793530375998, 4.6211593992491995, 35.77784682820036], "label": "O", "properties": {}}, {"species": [{"element": "O", "occu": 1}], "abc": [0.99999958, 0.99999998, 0.75000066], "xyz": [4.621158059112799, 4.6211599075768, 38.08594389560113], "label": "O", "properties": {}}, {"species": [{"element": "O", "occu": 1}], "abc": [-1.5e-07, 0.49999989, 0.70454887], "xyz": [-6.931739999999999e-07, 2.3105794916724, 35.77784682820036], "label": "O", "properties": {}}, {"species": [{"element": "O", "occu": 1}], "abc": [0.4999995, 0.49999991, 0.84081782], "xyz": [2.3105776894199996, 2.3105795840955996, 42.69774951790263], "label": "O", "properties": {}}, {"species": [{"element": "O", "occu": 1}], "abc": [0.49999928, -3e-08, 0.79545316], "xyz": [2.3105766727647996, -1.3863479999999999e-07, 40.39407701766373], "label": "O", "properties": {}}, {"species": [{"element": "O", "occu": 1}], "abc": [0.99999952, -5e-08, 0.84081782], "xyz": [4.6211577818432, -2.3105799999999998e-07, 42.69774951790263], "label": "O", "properties": {}}, {"species": [{"element": "O", "occu": 1}], "abc": [0.9999993, 0.49999996, 0.79545316], "xyz": [4.621156765188, 2.3105798151536, 40.39407701766373], "label": "O", "properties": {}}, {"species": [{"element": "O", "occu": 1}], "abc": [0.50000016, 0.49999998, 0.93174058], "xyz": [2.3105807393856, 2.3105799075768, 47.31491763638563], "label": "O", "properties": {}}, {"species": [{"element": "O", "occu": 1}], "abc": [0.49999993, -9e-08, 0.88621423], "xyz": [2.3105796765188, -4.159044e-07, 45.00303432168094], "label": "O", "properties": {}}, {"species": [{"element": "O", "occu": 1}], "abc": [1.7e-07, 0.99999998, 0.93174058], "xyz": [7.855971999999998e-07, 4.6211599075768, 47.31491763638563], "label": "O", "properties": {}}, {"species": [{"element": "O", "occu": 1}], "abc": [0.99999993, 0.49999997, 0.88621423], "xyz": [4.6211596765188, 2.3105798613651998, 45.00303432168094], "label": "O", "properties": {}}, {"species": [{"element": "O", "occu": 1}], "abc": [0.50000031, 4e-08, 0.97724417], "xyz": [2.3105814325595997, 1.8484639999999998e-07, 49.62564517066331], "label": "O", "properties": {}}, {"species": [{"element": "O", "occu": 1}], "abc": [3e-07, 0.50000001, 0.97724417], "xyz": [1.3863479999999998e-06, 2.3105800462116, 49.62564517066331], "label": "O", "properties": {}}]}, "formula": "(Li2O)44.0", "bandgap": 4.9675}