{"miller": "111_0.00", "final_energy": -381.564425, "gamma": 0.020580342927362175, "work_function": 4.4209031853181, "ionization_potentail": -4.6465031853181, "electron_affinity": -1.1550031853180998, "is_stochiometric": true, "incar_parameters": {"SYSTEM": "unknown system", "LCOMPAT": false, "PREC": "normal", "ENMAX": 520.0, "ENAUG": 628.945, "EDIFF": 1e-05, "IALGO": 38, "IWAVPR": 11, "NBANDS": 241, "NBANDSLOW": -1, "NBANDSHIGH": -1, "NELECT": 384.0, "TURBO": 0, "IRESTART": 0, "NREBOOT": 0, "NMIN": 0, "EREF": 0.0, "ISMEAR": 0, "SIGMA": 0.05, "KSPACING": 0.5, "KGAMMA": true, "KBLOWUP": true, "LREAL": true, "ROPT": [-0.0005, -0.0005], "LMAXPAW": -100, "LMAXMIX": 2, "NLSPLINE": false, "ISTART": 0, "ICHARG": 2, "INIWAV": 1, "ISPIN": 1, "LNONCOLLINEAR": false, "MAGMOM": [0.6, 0.6, 0.6, 0.6, 0.6, 0.6, 0.6, 0.6, 0.6, 0.6, 0.6, 0.6, 0.6, 0.6, 0.6, 0.6, 0.6, 0.6, 0.6, 0.6, 0.6, 0.6, 0.6, 0.6, 0.6, 0.6, 0.6, 0.6, 0.6, 0.6, 0.6, 0.6, 0.6, 0.6, 0.6, 0.6, 0.6, 0.6, 0.6, 0.6, 0.6, 0.6, 0.6, 0.6, 0.6, 0.6, 0.6, 0.6, 0.6, 0.6, 0.6, 0.6, 0.6, 0.6, 0.6, 0.6, 0.6, 0.6, 0.6, 0.6, 0.6, 0.6, 0.6, 0.6, 0.6, 0.6, 0.6, 0.6, 0.6, 0.6, 0.6, 0.6, 0.6, 0.6, 0.6, 0.6, 0.6, 0.6, 0.6, 0.6, 0.6, 0.6, 0.6, 0.6, 0.6, 0.6, 0.6, 0.6, 0.6, 0.6, 0.6, 0.6, 0.6, 0.6, 0.6, 0.6], "NUPDOWN": -1.0, "LSORBIT": false, "SAXIS": [0.0, 0.0, 1.0], "LSPIRAL": false, "QSPIRAL": [0.0, 0.0, 0.0], "LZEROZ": false, "LASPH": false, "LMETAGGA": false, "NELM": 100, "NELMDL": -5, "NELMIN": 6, "ENINI": 520.0, "LDIAG": true, "LSUBROT": false, "WEIMIN": 0.001, "EBREAK": 1e-08, "DEPER": 0.3, "NRMM": 4, "TIME": 0.4, "AMIX": 0.4, "BMIX": 1.0, "AMIN": 0.1, "AMIX_MAG": 1.6, "BMIX_MAG": 1.0, "IMIX": 4, "MIXFIRST": false, "MAXMIX": -45, "WC": 100.0, "INIMIX": 1, "MIXPRE": 1, "MREMOVE": 5, "LDIPOL": false, "LMONO": false, "IDIPOL": 0, "EPSILON": 1.0, "DIPOL": [-100.0, -100.0, -100.0], "EFIELD": 0.0, "NGX": 48, "NGY": 48, "NGZ": 240, "NGXF": 96, "NGYF": 96, "NGZF": 480, "ADDGRID": false, "NSW": 150, "IBRION": 2, "MDALGO": 0, "ISIF": 2, "PSTRESS": 0.0, "EDIFFG": -0.01, "NFREE": 1, "POTIM": 0.5, "SMASS": -3.0, "SCALEE": 1.0, "TEBEG": 0.0001, "TEEND": 0.0001, "NBLOCK": 1, "KBLOCK": 150, "NPACO": 256, "APACO": 10.0, "ISYM": 0, "SYMPREC": 1e-05, "LORBIT": 11, "RWIGS": [-1.0, -1.0], "NEDOS": 301, "EMIN": 10.0, "EMAX": -10.0, "EFERMI": 0.0, "NWRITE": 2, "LWAVE": false, "LDOWNSAMPLE": false, "LCHARG": false, "LPARD": false, "LVTOT": false, "LVHAR": false, "LELF": false, "LOPTICS": false, "STM": [0.0, 0.0, 0.0, 0.0, 0.0, 0.0, 0.0], "NPAR": 1, "NSIM": 4, "NBLK": -1, "LPLANE": true, "LSCALAPACK": true, "LSCAAWARE": false, "LSCALU": false, "LASYNC": false, "LORBITALREAL": false, "IDIOT": 3, "PHON_NSTRUCT": -1, "LMUSIC": false, "POMASS": [7.01, 32.066], "DARWINR": [0.0, 0.0], "DARWINV": [1.0, 1.0], "LCORR": true, "GGA_COMPAT": true, "LBERRY": false, "ICORELEVEL": 0, "LDAU": false, "I_CONSTRAINED_M": 0, "GGA": "--", "VOSKOWN": 0, "LHFCALC": false, "PRECFOCK": "", "LSYMGRAD": false, "LHFONE": false, "LRHFCALC": false, "LTHOMAS": false, "LMODELHF": false, "LFOCKACE": false, "ENCUT4O": -1.0, "EXXOEP": 0, "FOURORBIT": 0, "AEXX": 0.0, "HFALPHA": 0.0, "MCALPHA": 0.0, "ALDAX": 1.0, "AGGAX": 1.0, "ALDAC": 1.0, "AGGAC": 1.0, "NKREDX": 1, "NKREDY": 1, "NKREDZ": 1, "SHIFTRED": false, "ODDONLY": false, "EVENONLY": false, "LMAXFOCK": 0, "NMAXFOCKAE": 0, "LFOCKAEDFT": false, "HFSCREEN": 0.0, "HFSCREENC": 0.0, "NBANDSGWLOW": 0, "LUSE_VDW": false, "Zab_VDW": -0.8491, "PARAM1": 0.1234, "PARAM2": 1.0, "PARAM3": 0.0, "MODEL_GW": 0, "MODEL_EPS0": 15.04950603, "MODEL_ALPHA": 1.0, "LEPSILON": false, "LRPA": false, "LNABLA": false, "LVEL": false, "CSHIFT": 0.1, "OMEGAMAX": -1.0, "DEG_THRESHOLD": 0.002, "RTIME": -0.1, "WPLASMAI": 0.0, "DFIELD": [0.0, 0.0, 0.0], "WPLASMA": [0.0, 0.0, 0.0, 0.0, 0.0, 0.0, 0.0, 0.0, 0.0], "NUCIND": false, "MAGPOS": [0.0, 0.0, 0.0], "LNICSALL": true, "ORBITALMAG": false, "LMAGBLOCH": false, "LCHIMAG": false, "LGAUGE": true, "MAGATOM": 0, "MAGDIPOL": [0.0, 0.0, 0.0], "AVECCONST": [0.0, 0.0, 0.0], "LFINITE_TEMPERATURE": false, "LADDER": false, "LRPAFORCE": false, "LFXC": false, "LHARTREE": true, "IBSE": 0, "KPOINT": [-1, 0, 0, 0], "LTCTC": false, "LTCTE": false, "LTETE": false, "LTRIPLET": false, "LFXCEPS": false, "LFXHEG": false, "NATURALO": 2, "LHOLEGF": false, "L2ORDER": false, "LDMP1": false, "LMP2LT": false, "LSMP2LT": false, "LGWLF": false, "ENCUTGW": -2.0, "ENCUTGWSOFT": -2.0, "ENCUTLF": -1.0, "LESF_SPLINES": false, "LMAXMP2": -1, "SCISSOR": 0.0, "NOMEGA": 0, "NOMEGAR": 0, "NBANDSGW": -1, "NBANDSO": -1, "NBANDSV": -1, "NELMGW": 1, "NELMHF": 1, "DIM": 3, "IESPILON": 4, "ANTIRES": 0, "OMEGAMIN": -30.0, "OMEGATL": -200.0, "OMEGAGRID": 0, "LSELFENERGY": false, "LSPECTRAL": false, "LSPECTRALGW": false, "LSINGLES": false, "LFERMIGW": false, "ODDONLYGW": false, "EVENONLYGW": false, "NKREDLFX": 1, "NKREDLFY": 1, "NKREDLFZ": 1, "MAXMEM": 2800, "TELESCOPE": 0, "NTAUPAR": -1, "NOMEGAPAR": -1, "DAMP_NEWTON": 0.80000001, "LAMBDA": 1.0, "OFIELD_KAPPA": 0.0, "OFIELD_K": [0.0, 0.0, 0.0], "OFIELD_Q6_NEAR": 0.0, "OFIELD_Q6_FAR": 0.0, "OFIELD_A": 0.0, "KPOINTS_OPT_MODE": 1, "LKPOINTS_OPT": false, "@module": "pymatgen.io.vasp.inputs", "@class": "Incar"}, "relaxed_structures": {"@module": "pymatgen.core.structure", "@class": "Structure", "charge": 0, "lattice": {"matrix": [[8.061477, 0.0, 0.0], [4.030739, 6.981444, 0.0], [0.0, 0.0, 42.784095]], "a": 8.061477, "b": 8.061477359098454, "c": 42.784095, "alpha": 90.0, "beta": 90.0, "gamma": 59.9999973701033, "volume": 2407.920964630874}, "sites": [{"species": [{"element": "Li", "occu": 1}], "abc": [3e-08, 5e-08, 0.03557362], "xyz": [4.4338125999999996e-07, 3.490722e-07, 1.5219851375739], "label": "Li", "properties": {}}, {"species": [{"element": "Li", "occu": 1}], "abc": [0.6666669, 0.66666685, 0.00010001999999999928], "xyz": [8.06147995331345, 4.6542972799314, 0.004279265181899969], "label": "Li", "properties": {}}, {"species": [{"element": "Li", "occu": 1}], "abc": [0.16666692, 0.16666681, 0.00010001999999999928], "xyz": [2.01537195331343, 1.16357500067364, 0.004279265181899969], "label": "Li", "properties": {}}, {"species": [{"element": "Li", "occu": 1}], "abc": [0.50000003, 0.50000001, 0.03557342], "xyz": [6.0461082821517, 3.4907220698144403, 1.5219765807549002], "label": "Li", "properties": {}}, {"species": [{"element": "Li", "occu": 1}], "abc": [0.50000003, 9e-08, 0.03557354], "xyz": [4.03073910461082, 6.283299599999999e-07, 1.5219817148463], "label": "Li", "properties": {}}, {"species": [{"element": "Li", "occu": 1}], "abc": [0.16666693, 0.6666669, 0.0001000099999999976], "xyz": [4.0307418966947095, 4.654297629003599, 0.004278837340949897], "label": "Li", "properties": {}}, {"species": [{"element": "Li", "occu": 1}], "abc": [0.66666697, 0.16666686, 9.99999999999994e-05], "xyz": [6.04611105792423, 1.1635753497458399, 0.004278409499999974], "label": "Li", "properties": {}}, {"species": [{"element": "Li", "occu": 1}], "abc": [7e-08, 0.50000003, 0.03557325], "xyz": [2.0153701852255597, 3.4907222094433203, 1.5219693074587501], "label": "Li", "properties": {}}, {"species": [{"element": "Li", "occu": 1}], "abc": [0.66666637, 0.66666642, 0.11130941], "xyz": [8.06147394751287, 4.65429427791048, 4.76227237183395], "label": "Li", "properties": {}}, {"species": [{"element": "Li", "occu": 1}], "abc": [0.33333331, 0.33333329, 0.07331013], "xyz": [4.03073830390018, 2.32714769747076, 3.1365075663823503], "label": "Li", "properties": {}}, {"species": [{"element": "Li", "occu": 1}], "abc": [0.8333333, 0.8333333, 0.07331009999999999], "xyz": [10.0768462635928, 5.8178697672852, 3.1365062828594996], "label": "Li", "properties": {}}, {"species": [{"element": "Li", "occu": 1}], "abc": [0.16666643, 0.16666639, 0.1113093], "xyz": [2.01536631027932, 1.16357206846716, 4.7622676655835], "label": "Li", "properties": {}}, {"species": [{"element": "Li", "occu": 1}], "abc": [0.16666649, 0.66666642, 0.11130953000000002], "xyz": [4.03073641489011, 4.65429427791048, 4.762277505925351], "label": "Li", "properties": {}}, {"species": [{"element": "Li", "occu": 1}], "abc": [0.8333333, 0.3333333, 0.07331007], "xyz": [8.0614767635928, 2.3271477672852, 3.1365049993366503], "label": "Li", "properties": {}}, {"species": [{"element": "Li", "occu": 1}], "abc": [0.33333331, 0.8333333, 0.07331011000000001], "xyz": [6.046107844207571, 5.8178697672852, 3.1365067107004507], "label": "Li", "properties": {}}, {"species": [{"element": "Li", "occu": 1}], "abc": [0.66666643, 0.16666649, 0.11130924], "xyz": [6.04610521335322, 1.16357276661156, 4.7622650985378], "label": "Li", "properties": {}}, {"species": [{"element": "Li", "occu": 1}], "abc": [0.33333341, 0.33333342, 0.18774948], "xyz": [4.030739634043949, 2.32714860505848, 8.0326915885206], "label": "Li", "properties": {}}, {"species": [{"element": "Li", "occu": 1}], "abc": [0.99999995, 0.99999998, 0.14994552], "xyz": [12.09221551631137, 6.98144386037112, 6.4152833725044], "label": "Li", "properties": {}}, {"species": [{"element": "Li", "occu": 1}], "abc": [0.49999996, 0.50000001, 0.14994548], "xyz": [6.04610771784831, 3.4907220698144403, 6.415281661140599], "label": "Li", "properties": {}}, {"species": [{"element": "Li", "occu": 1}], "abc": [0.83333341, 0.83333341, 0.18774949000000002], "xyz": [10.076847593736561, 5.81787053524404, 8.032692016361551], "label": "Li", "properties": {}}, {"species": [{"element": "Li", "occu": 1}], "abc": [0.83333344, 0.33333343, 0.18774949000000002], "xyz": [8.06147841619565, 2.32714867487292, 8.032692016361551], "label": "Li", "properties": {}}, {"species": [{"element": "Li", "occu": 1}], "abc": [0.49999999, 0.99999997, 0.14994547], "xyz": [8.06147729846306, 6.981443790556679, 6.41528123329965], "label": "Li", "properties": {}}, {"species": [{"element": "Li", "occu": 1}], "abc": [0.99999996, 0.50000001, 0.14994546], "xyz": [10.07684621784831, 3.4907220698144403, 6.4152808054587], "label": "Li", "properties": {}}, {"species": [{"element": "Li", "occu": 1}], "abc": [0.33333345, 0.83333342, 0.18774949000000002], "xyz": [6.046109456503029, 5.81787060505848, 8.032692016361551], "label": "Li", "properties": {}}, {"species": [{"element": "Li", "occu": 1}], "abc": [0.99999991, 0.99999994, 0.26484875999999996], "xyz": [12.092215032622729, 6.98144358111336, 11.331314508472198], "label": "Li", "properties": {}}, {"species": [{"element": "Li", "occu": 1}], "abc": [0.66666658, 0.66666662, 0.22687924], "xyz": [8.06147644657084, 4.65429567419928, 9.7068229576878], "label": "Li", "properties": {}}, {"species": [{"element": "Li", "occu": 1}], "abc": [0.16666661, 0.16666661, 0.22687925], "xyz": [2.01536864810776, 1.16357360438484, 9.70682338552875], "label": "Li", "properties": {}}, {"species": [{"element": "Li", "occu": 1}], "abc": [0.49999992, 0.49999994, 0.26484875999999996], "xyz": [6.0461071132375, 3.49072158111336, 11.331314508472198], "label": "Li", "properties": {}}, {"species": [{"element": "Li", "occu": 1}], "abc": [0.49999994, 0.99999994, 0.26484873999999997], "xyz": [8.061476774467039, 6.98144358111336, 11.3313136527903], "label": "Li", "properties": {}}, {"species": [{"element": "Li", "occu": 1}], "abc": [0.16666666, 0.66666663, 0.22687924], "xyz": [4.03073863179639, 4.65429574401372, 9.7068229576878], "label": "Li", "properties": {}}, {"species": [{"element": "Li", "occu": 1}], "abc": [0.66666661, 0.16666666, 0.22687924], "xyz": [6.04610734964471, 1.16357395345704, 9.7068229576878], "label": "Li", "properties": {}}, {"species": [{"element": "Li", "occu": 1}], "abc": [0.99999993, 0.49999996, 0.26484873999999997], "xyz": [10.07684577446705, 3.49072172074224, 11.3313136527903], "label": "Li", "properties": {}}, {"species": [{"element": "Li", "occu": 1}], "abc": [0.66666664, 0.66666653, 0.34132437], "xyz": [8.06147656749295, 4.654295045869319, 14.60325427189515], "label": "Li", "properties": {}}, {"species": [{"element": "Li", "occu": 1}], "abc": [0.33333353, 0.33333344, 0.30348152], "xyz": [4.03074068203597, 2.32714874468736, 12.9841821824244], "label": "Li", "properties": {}}, {"species": [{"element": "Li", "occu": 1}], "abc": [0.8333335, 0.83333349, 0.30348152], "xyz": [10.07684864172861, 5.8178710937595595, 12.9841821824244], "label": "Li", "properties": {}}, {"species": [{"element": "Li", "occu": 1}], "abc": [0.16666656, 0.1666666, 0.34132436], "xyz": [2.01536820472652, 1.1635735345704, 14.6032538440542], "label": "Li", "properties": {}}, {"species": [{"element": "Li", "occu": 1}], "abc": [0.16666657, 0.66666658, 0.34132436], "xyz": [4.03073770472651, 4.65429539494152, 14.6032538440542], "label": "Li", "properties": {}}, {"species": [{"element": "Li", "occu": 1}], "abc": [0.8333335, 0.33333345, 0.30348152], "xyz": [8.06147898049905, 2.3271488145017996, 12.9841821824244], "label": "Li", "properties": {}}, {"species": [{"element": "Li", "occu": 1}], "abc": [0.33333346, 0.83333342, 0.30348155], "xyz": [6.0461095371177995, 5.81787060505848, 12.98418346594725], "label": "Li", "properties": {}}, {"species": [{"element": "Li", "occu": 1}], "abc": [0.6666666, 0.16666656, 0.34132434], "xyz": [6.04610686595604, 1.1635732553126399, 14.6032529883723], "label": "Li", "properties": {}}, {"species": [{"element": "Li", "occu": 1}], "abc": [0.33333331, 0.3333334, 0.41769773], "xyz": [4.03073874728147, 2.3271484654296, 17.87081936160435], "label": "Li", "properties": {}}, {"species": [{"element": "Li", "occu": 1}], "abc": [0.99999991, 0.99999993, 0.37929543], "xyz": [12.09221499231534, 6.981443511298919, 16.22781171018585], "label": "Li", "properties": {}}, {"species": [{"element": "Li", "occu": 1}], "abc": [0.49999992, 0.4999999, 0.37929546], "xyz": [6.04610695200794, 3.4907213018556, 16.2278129937087], "label": "Li", "properties": {}}, {"species": [{"element": "Li", "occu": 1}], "abc": [0.8333334, 0.83333331, 0.41769772], "xyz": [10.07684711004789, 5.817869837099639, 17.8708189337634], "label": "Li", "properties": {}}, {"species": [{"element": "Li", "occu": 1}], "abc": [0.83333335, 0.33333333, 0.41769773], "xyz": [8.06147728758882, 2.32714797672852, 17.87081936160435], "label": "Li", "properties": {}}, {"species": [{"element": "Li", "occu": 1}], "abc": [0.49999989, 0.99999991, 0.37929546], "xyz": [8.06147625047102, 6.98144337167004, 16.2278129937087], "label": "Li", "properties": {}}, {"species": [{"element": "Li", "occu": 1}], "abc": [0.99999989, 0.49999987, 0.37929544], "xyz": [10.07684508924146, 3.49072109241228, 16.2278121380268], "label": "Li", "properties": {}}, {"species": [{"element": "Li", "occu": 1}], "abc": [0.33333331, 0.83333332, 0.41769772], "xyz": [6.0461079248223495, 5.81786990691408, 17.8708189337634], "label": "Li", "properties": {}}, {"species": [{"element": "Li", "occu": 1}], "abc": [1.1e-07, 1.8e-07, 0.49449547], "xyz": [1.61229549e-06, 1.2566599199999998e-06, 21.15654116554965], "label": "Li", "properties": {}}, {"species": [{"element": "Li", "occu": 1}], "abc": [0.66666665, 0.66666663, 0.45635715], "xyz": [8.061477051181619, 4.65429574401372, 19.52482765952925], "label": "Li", "properties": {}}, {"species": [{"element": "Li", "occu": 1}], "abc": [0.16666662, 0.16666665, 0.45635708999999997], "xyz": [2.01536888995209, 1.1635738836426, 19.52482509248355], "label": "Li", "properties": {}}, {"species": [{"element": "Li", "occu": 1}], "abc": [0.5000002, 0.50000014, 0.49449543999999995], "xyz": [6.0461101765988605, 3.49072297740216, 21.1565398820268], "label": "Li", "properties": {}}, {"species": [{"element": "Li", "occu": 1}], "abc": [0.50000018, 1.4e-07, 0.49449561000000003], "xyz": [4.03074051536932, 9.7740216e-07, 21.15654715532295], "label": "Li", "properties": {}}, {"species": [{"element": "Li", "occu": 1}], "abc": [0.16666665, 0.66666665, 0.45635713], "xyz": [4.0307386317964, 4.6542958836426, 19.52482680384735], "label": "Li", "properties": {}}, {"species": [{"element": "Li", "occu": 1}], "abc": [0.66666667, 0.16666665, 0.45635707], "xyz": [6.04610779302594, 1.1635738836426, 19.52482423680165], "label": "Li", "properties": {}}, {"species": [{"element": "Li", "occu": 1}], "abc": [1.3e-07, 0.50000016, 0.49449550000000003], "xyz": [2.01537119291025, 3.49072311703104, 21.1565424490725], "label": "Li", "properties": {}}, {"species": [{"element": "Li", "occu": 1}], "abc": [0.66666656, 0.66666656, 0.56678319], "xyz": [8.06147604349696, 4.65429525531264, 24.24930584536305], "label": "Li", "properties": {}}, {"species": [{"element": "Li", "occu": 1}], "abc": [0.33333345, 0.33333345, 0.5320769900000001], "xyz": [4.030740077425199, 2.3271488145017996, 22.764432487474053], "label": "Li", "properties": {}}, {"species": [{"element": "Li", "occu": 1}], "abc": [0.83333345, 0.83333346, 0.53207697], "xyz": [10.07684811773259, 5.81787088431624, 22.76443163179215], "label": "Li", "properties": {}}, {"species": [{"element": "Li", "occu": 1}], "abc": [0.16666657, 0.16666657, 0.5667832], "xyz": [2.01536816441912, 1.1635733251270801, 24.249306273204002], "label": "Li", "properties": {}}, {"species": [{"element": "Li", "occu": 1}], "abc": [0.16666658, 0.66666658, 0.56678319], "xyz": [4.03073778534128, 4.65429539494152, 24.24930584536305], "label": "Li", "properties": {}}, {"species": [{"element": "Li", "occu": 1}], "abc": [0.83333345, 0.33333347, 0.53207697], "xyz": [8.06147865803998, 2.32714895413068, 22.76443163179215], "label": "Li", "properties": {}}, {"species": [{"element": "Li", "occu": 1}], "abc": [0.33333346, 0.83333346, 0.53207696], "xyz": [6.04610969834736, 5.81787088431624, 22.7644312039512], "label": "Li", "properties": {}}, {"species": [{"element": "Li", "occu": 1}], "abc": [0.66666657, 0.16666658, 0.56678319], "xyz": [6.046106704726509, 1.1635733949415201, 24.24930584536305], "label": "Li", "properties": {}}, {"species": [{"element": "S", "occu": 1}], "abc": [0.83333315, 0.33333312, 0.015274089999999997], "xyz": [8.061474828838229, 2.3271465106252798, 0.6534881175985499], "label": "S", "properties": {}}, {"species": [{"element": "S", "occu": 1}], "abc": [0.83333315, 0.83333319, 0.015274089999999997], "xyz": [10.076844610989959, 5.817868999326359, 0.6534881175985499], "label": "S", "properties": {}}, {"species": [{"element": "S", "occu": 1}], "abc": [0.33333309, 0.83333318, 0.015274099999999999], "xyz": [6.046105586993949, 5.81786892951192, 0.6534885454395], "label": "S", "properties": {}}, {"species": [{"element": "S", "occu": 1}], "abc": [0.33333314, 0.33333317, 0.015274079999999995], "xyz": [4.03073644976041, 2.32714685969748, 0.6534876897575999], "label": "S", "properties": {}}, {"species": [{"element": "S", "occu": 1}], "abc": [0.50000005, 6e-08, 0.09255517999999999], "xyz": [4.03073914491819, 4.1888663999999995e-07, 3.9598896138620994], "label": "S", "properties": {}}, {"species": [{"element": "S", "occu": 1}], "abc": [0.50000004, 0.50000006, 0.09255519000000001], "xyz": [6.046108564303419, 3.4907224188866395, 3.9598900417030505], "label": "S", "properties": {}}, {"species": [{"element": "S", "occu": 1}], "abc": [6e-08, 0.50000005, 0.09255517999999999], "xyz": [2.01537018522557, 3.4907223490722, 3.9598896138620994], "label": "S", "properties": {}}, {"species": [{"element": "S", "occu": 1}], "abc": [5e-08, 5e-08, 0.09255519000000001], "xyz": [6.046107999999999e-07, 3.490722e-07, 3.9598900417030505], "label": "S", "properties": {}}, {"species": [{"element": "S", "occu": 1}], "abc": [0.16666663, 0.66666665, 0.16902296], "xyz": [4.03073847056686, 4.6542958836426, 7.2314943778212], "label": "S", "properties": {}}, {"species": [{"element": "S", "occu": 1}], "abc": [0.16666664, 0.16666665, 0.16902297], "xyz": [2.0153690511816302, 1.1635738836426, 7.23149480566215], "label": "S", "properties": {}}, {"species": [{"element": "S", "occu": 1}], "abc": [0.66666665, 0.16666664, 0.16902296], "xyz": [6.04610759148901, 1.16357381382816, 7.2314943778212], "label": "S", "properties": {}}, {"species": [{"element": "S", "occu": 1}], "abc": [0.66666665, 0.66666664, 0.16902296], "xyz": [8.06147709148901, 4.65429581382816, 7.2314943778212], "label": "S", "properties": {}}, {"species": [{"element": "S", "occu": 1}], "abc": [0.83333333, 0.33333336, 0.2457423], "xyz": [8.06147724728145, 2.32714818617184, 10.5138619087185], "label": "S", "properties": {}}, {"species": [{"element": "S", "occu": 1}], "abc": [0.83333335, 0.83333337, 0.24574231], "xyz": [10.07684694881838, 5.817870255986279, 10.51386233655945], "label": "S", "properties": {}}, {"species": [{"element": "S", "occu": 1}], "abc": [0.33333336, 0.83333334, 0.24574231], "xyz": [6.04610840851098, 5.81787004654296, 10.51386233655945], "label": "S", "properties": {}}, {"species": [{"element": "S", "occu": 1}], "abc": [0.33333337, 0.33333337, 0.24574231], "xyz": [4.03073911004792, 2.32714825598628, 10.51386233655945], "label": "S", "properties": {}}, {"species": [{"element": "S", "occu": 1}], "abc": [0.49999995, 0.99999999, 0.32224819], "xyz": [8.06147705661876, 6.981443930185559, 13.787097174538049], "label": "S", "properties": {}}, {"species": [{"element": "S", "occu": 1}], "abc": [0.49999991, 0.49999994, 0.32224818], "xyz": [6.04610703262273, 3.49072158111336, 13.7870967466971], "label": "S", "properties": {}}, {"species": [{"element": "S", "occu": 1}], "abc": [0.99999994, 0.49999997, 0.32224817], "xyz": [10.07684589538921, 3.49072179055668, 13.78709631885615], "label": "S", "properties": {}}, {"species": [{"element": "S", "occu": 1}], "abc": [0.9999999, 0.99999996, 0.32224819], "xyz": [12.09221503262274, 6.98144372074224, 13.787097174538049], "label": "S", "properties": {}}, {"species": [{"element": "S", "occu": 1}], "abc": [0.16666662, 0.66666663, 0.39867930999999995], "xyz": [4.03073830933731, 4.65429574401372, 17.05713347357445], "label": "S", "properties": {}}, {"species": [{"element": "S", "occu": 1}], "abc": [0.16666662, 0.16666664, 0.39867930999999995], "xyz": [2.0153688496447, 1.16357381382816, 17.05713347357445], "label": "S", "properties": {}}, {"species": [{"element": "S", "occu": 1}], "abc": [0.66666663, 0.16666662, 0.39867932], "xyz": [6.04610734964469, 1.16357367419928, 17.0571339014154], "label": "S", "properties": {}}, {"species": [{"element": "S", "occu": 1}], "abc": [0.66666665, 0.66666663, 0.39867930999999995], "xyz": [8.061477051181619, 4.65429574401372, 17.05713347357445], "label": "S", "properties": {}}, {"species": [{"element": "S", "occu": 1}], "abc": [0.83333331, 0.33333331, 0.47512503], "xyz": [8.06147688451496, 2.32714783709964, 20.32779442039785], "label": "S", "properties": {}}, {"species": [{"element": "S", "occu": 1}], "abc": [0.83333331, 0.83333329, 0.47512501999999995], "xyz": [10.07684630390018, 5.81786969747076, 20.3277939925569], "label": "S", "properties": {}}, {"species": [{"element": "S", "occu": 1}], "abc": [0.33333329, 0.83333331, 0.47512501999999995], "xyz": [6.04610772328542, 5.817869837099639, 20.3277939925569], "label": "S", "properties": {}}, {"species": [{"element": "S", "occu": 1}], "abc": [0.33333328, 0.3333333, 0.47512501999999995], "xyz": [4.0307381023632605, 2.3271477672852, 20.3277939925569], "label": "S", "properties": {}}, {"species": [{"element": "S", "occu": 1}], "abc": [0.50000019, 1.7e-07, 0.55234149], "xyz": [4.0307407169062595, 1.1868454799999998e-06, 23.63143078060155], "label": "S", "properties": {}}, {"species": [{"element": "S", "occu": 1}], "abc": [0.50000017, 0.50000016, 0.5523414600000001], "xyz": [6.0461100153693295, 3.49072311703104, 23.631429497078702], "label": "S", "properties": {}}, {"species": [{"element": "S", "occu": 1}], "abc": [1.8e-07, 0.50000018, 0.55234149], "xyz": [2.0153716765988796, 3.49072325665992, 23.63143078060155], "label": "S", "properties": {}}, {"species": [{"element": "S", "occu": 1}], "abc": [1.6e-07, 1.7e-07, 0.55234148], "xyz": [1.9750619499999998e-06, 1.1868454799999998e-06, 23.631430352760603], "label": "S", "properties": {}}]}, "formula": "(Li2S)32.0", "bandgap": 3.4915, "slab_thickness": 24.245027863704003}