{"miller": "001_0.83", "final_energy": -215.27084659, "gamma": 0.013380493907396557, "work_function": "Not calculated", "ionization_potentail": "Not calculated", "electron_affinity": "Not calculated", "is_stochiometric": false, "incar_parameters": {"SYSTEM": "unknown system", "LCOMPAT": false, "PREC": "normal", "ENMAX": 520.0, "ENAUG": 628.945, "EDIFF": 1e-05, "IALGO": 38, "IWAVPR": 11, "NBANDS": 184, "NBANDSLOW": -1, "NBANDSHIGH": -1, "NELECT": 308.0, "TURBO": 0, "IRESTART": 0, "NREBOOT": 0, "NMIN": 0, "EREF": 0.0, "ISMEAR": 0, "SIGMA": 0.05, "KSPACING": 0.5, "KGAMMA": true, "KBLOWUP": true, "LREAL": true, "ROPT": [-0.0005, -0.0005, -0.0005], "LMAXPAW": -100, "LMAXMIX": 4, "NLSPLINE": false, "ISTART": 0, "ICHARG": 2, "INIWAV": 1, "ISPIN": 1, "LNONCOLLINEAR": false, "MAGMOM": [0.6, 0.6, 0.6, 0.6, 0.6, 0.6, 0.6, 0.6, 0.6, 0.6, 0.6, 0.6, 0.6, 0.6, 0.6, 0.6, 0.6, 0.6, 0.6, 0.6, 0.6, 0.6, 0.6, 0.6, 0.6, 0.6, 0.6, 0.6, 0.6, 0.6, 0.6, 0.6, 0.6, 0.6, 0.6, 0.6, 0.6, 0.6, 0.6, 0.6, 0.6, 0.6, 0.6, 0.6, 0.6, 0.6, 0.6, 0.6, 0.6, 0.6, 0.6, 0.6], "NUPDOWN": -1.0, "LSORBIT": false, "SAXIS": [0.0, 0.0, 1.0], "LSPIRAL": false, "QSPIRAL": [0.0, 0.0, 0.0], "LZEROZ": false, "LASPH": false, "LMETAGGA": false, "NELM": 100, "NELMDL": -5, "NELMIN": 6, "ENINI": 520.0, "LDIAG": true, "LSUBROT": false, "WEIMIN": 0.001, "EBREAK": 1e-08, "DEPER": 0.3, "NRMM": 4, "TIME": 0.4, "AMIX": 0.4, "BMIX": 1.0, "AMIN": 0.1, "AMIX_MAG": 1.6, "BMIX_MAG": 1.0, "IMIX": 4, "MIXFIRST": false, "MAXMIX": -45, "WC": 100.0, "INIMIX": 1, "MIXPRE": 1, "MREMOVE": 5, "LDIPOL": false, "LMONO": false, "IDIPOL": 0, "EPSILON": 1.0, "DIPOL": [-100.0, -100.0, -100.0], "EFIELD": 0.0, "NGX": 36, "NGY": 64, "NGZ": 270, "NGXF": 72, "NGYF": 128, "NGZF": 540, "ADDGRID": false, "NSW": 150, "IBRION": 2, "MDALGO": 0, "ISIF": 2, "PSTRESS": 0.0, "EDIFFG": -0.01, "NFREE": 1, "POTIM": 0.5, "SMASS": -3.0, "SCALEE": 1.0, "TEBEG": 0.0001, "TEEND": 0.0001, "NBLOCK": 1, "KBLOCK": 150, "NPACO": 256, "APACO": 10.0, "ISYM": 0, "SYMPREC": 1e-05, "LORBIT": 11, "RWIGS": [-1.0, -1.0, -1.0], "NEDOS": 301, "EMIN": 10.0, "EMAX": -10.0, "EFERMI": 0.0, "NWRITE": 2, "LWAVE": false, "LDOWNSAMPLE": false, "LCHARG": false, "LPARD": false, "LVTOT": false, "LVHAR": false, "LELF": false, "LOPTICS": false, "STM": [0.0, 0.0, 0.0, 0.0, 0.0, 0.0, 0.0], "NPAR": 1, "NSIM": 4, "NBLK": -1, "LPLANE": true, "LSCALAPACK": true, "LSCAAWARE": false, "LSCALU": false, "LASYNC": false, "LORBITALREAL": false, "IDIOT": 3, "PHON_NSTRUCT": -1, "LMUSIC": false, "POMASS": [7.01, 88.906, 35.453], "DARWINR": [0.0, 0.0, 0.0], "DARWINV": [1.0, 1.0, 1.0], "LCORR": true, "GGA_COMPAT": true, "LBERRY": false, "ICORELEVEL": 0, "LDAU": false, "I_CONSTRAINED_M": 0, "GGA": "--", "VOSKOWN": 0, "LHFCALC": false, "PRECFOCK": "", "LSYMGRAD": false, "LHFONE": false, "LRHFCALC": false, "LTHOMAS": false, "LMODELHF": false, "LFOCKACE": false, "ENCUT4O": -1.0, "EXXOEP": 0, "FOURORBIT": 0, "AEXX": 0.0, "HFALPHA": 0.0, "MCALPHA": 0.0, "ALDAX": 1.0, "AGGAX": 1.0, "ALDAC": 1.0, "AGGAC": 1.0, "NKREDX": 1, "NKREDY": 1, "NKREDZ": 1, "SHIFTRED": false, "ODDONLY": false, "EVENONLY": false, "LMAXFOCK": 0, "NMAXFOCKAE": 0, "LFOCKAEDFT": false, "HFSCREEN": 0.0, "HFSCREENC": 0.0, "NBANDSGWLOW": 0, "LUSE_VDW": false, "Zab_VDW": -0.8491, "PARAM1": 0.1234, "PARAM2": 1.0, "PARAM3": 0.0, "MODEL_GW": 0, "MODEL_EPS0": 38.06082062, "MODEL_ALPHA": 1.0, "LEPSILON": false, "LRPA": false, "LNABLA": false, "LVEL": false, "CSHIFT": 0.1, "OMEGAMAX": -1.0, "DEG_THRESHOLD": 0.002, "RTIME": -0.1, "WPLASMAI": 0.0, "DFIELD": [0.0, 0.0, 0.0], "WPLASMA": [0.0, 0.0, 0.0, 0.0, 0.0, 0.0, 0.0, 0.0, 0.0], "NUCIND": false, "MAGPOS": [0.0, 0.0, 0.0], "LNICSALL": true, "ORBITALMAG": false, "LMAGBLOCH": false, "LCHIMAG": false, "LGAUGE": true, "MAGATOM": 0, "MAGDIPOL": [0.0, 0.0, 0.0], "AVECCONST": [0.0, 0.0, 0.0], "LFINITE_TEMPERATURE": false, "LADDER": false, "LRPAFORCE": false, "LFXC": false, "LHARTREE": true, "IBSE": 0, "KPOINT": [-1, 0, 0, 0], "LTCTC": false, "LTCTE": false, "LTETE": false, "LTRIPLET": false, "LFXCEPS": false, "LFXHEG": false, "NATURALO": 2, "LHOLEGF": false, "L2ORDER": false, "LDMP1": false, "LMP2LT": false, "LSMP2LT": false, "LGWLF": false, "ENCUTGW": -2.0, "ENCUTGWSOFT": -2.0, "ENCUTLF": -1.0, "LESF_SPLINES": false, "LMAXMP2": -1, "SCISSOR": 0.0, "NOMEGA": 0, "NOMEGAR": 0, "NBANDSGW": -1, "NBANDSO": -1, "NBANDSV": -1, "NELMGW": 1, "NELMHF": 1, "DIM": 3, "IESPILON": 4, "ANTIRES": 0, "OMEGAMIN": -30.0, "OMEGATL": -200.0, "OMEGAGRID": 0, "LSELFENERGY": false, "LSPECTRAL": false, "LSPECTRALGW": false, "LSINGLES": false, "LFERMIGW": false, "ODDONLYGW": false, "EVENONLYGW": false, "NKREDLFX": 1, "NKREDLFY": 1, "NKREDLFZ": 1, "MAXMEM": 2800, "TELESCOPE": 0, "NTAUPAR": -1, "NOMEGAPAR": -1, "DAMP_NEWTON": 0.80000001, "LAMBDA": 1.0, "OFIELD_KAPPA": 0.0, "OFIELD_K": [0.0, 0.0, 0.0], "OFIELD_Q6_NEAR": 0.0, "OFIELD_Q6_FAR": 0.0, "OFIELD_A": 0.0, "KPOINTS_OPT_MODE": 1, "LKPOINTS_OPT": false, "@module": "pymatgen.io.vasp.inputs", "@class": "Incar"}, "relaxed_structures": {"@module": "pymatgen.core.structure", "@class": "Structure", "charge": 0, "lattice": {"matrix": [[6.097585, 0.0, 0.0], [0.000256, 11.177296, 0.0], [0.0, 0.0, 48.398915]], "a": 6.097585, "b": 11.177296002931657, "c": 48.398915, "alpha": 90.0, "beta": 90.0, "gamma": 89.99868772200783, "volume": 3298.6044539737572}, "sites": [{"species": [{"element": "Li", "occu": 1}], "abc": [0.97162289, 0.21405206, 0.071728], "xyz": [5.92460795704801, 2.3925232340297597, 3.47155737512], "label": "Li", "properties": {}}, {"species": [{"element": "Li", "occu": 1}], "abc": [0.99967266, 0.43094898, 0.15578641], "xyz": [6.09569933946498, 4.81684431035808, 7.53989321574515], "label": "Li", "properties": {}}, {"species": [{"element": "Li", "occu": 1}], "abc": [0.94550248, 0.92921304, 0.08925476], "xyz": [5.76551961804904, 10.38608919513984, 4.319833542585401], "label": "Li", "properties": {}}, {"species": [{"element": "Li", "occu": 1}], "abc": [0.58165249, 0.64059328, 0.02709263], "xyz": [3.5468394901163296, 7.160100706170881, 1.31125389649645], "label": "Li", "properties": {}}, {"species": [{"element": "Li", "occu": 1}], "abc": [0.47571558, 0.38313666, 0.03438807], "xyz": [2.90081426785926, 4.28243185727136, 1.66434527694405], "label": "Li", "properties": {}}, {"species": [{"element": "Li", "occu": 1}], "abc": [0.48216593, 0.97554975, 0.09697303], "xyz": [2.94029748301505, 10.904008318476, 4.69338943626245], "label": "Li", "properties": {}}, {"species": [{"element": "Li", "occu": 1}], "abc": [0.50105268, 0.43041837, 0.15325766], "xyz": [3.0553214928805197, 4.81091352532752, 7.4175044594388995], "label": "Li", "properties": {}}, {"species": [{"element": "Li", "occu": 1}], "abc": [0.52896387, 0.75902551, 0.16042299999999998], "xyz": [3.22559646978451, 8.48385279682096, 7.764299141045], "label": "Li", "properties": {}}, {"species": [{"element": "Li", "occu": 1}], "abc": [0.97998747, 0.41672173, 0.024072289999999996], "xyz": [5.975663578022829, 4.65782212584208, 1.16507271756535], "label": "Li", "properties": {}}, {"species": [{"element": "Li", "occu": 1}], "abc": [0.02844244, 0.71405862, 0.30776458], "xyz": [0.17361299451412, 7.98124455709152, 14.895471747430701], "label": "Li", "properties": {}}, {"species": [{"element": "Li", "occu": 1}], "abc": [0.02007322, 0.91674028, 0.35544069], "xyz": [0.12263285068537999, 10.246677464682879, 17.20294374285135], "label": "Li", "properties": {}}, {"species": [{"element": "Li", "occu": 1}], "abc": [0.05445719, 0.42918882, 0.29025433], "xyz": [0.33216721722407, 4.7971704810307205, 14.04799464605195], "label": "Li", "properties": {}}, {"species": [{"element": "Li", "occu": 1}], "abc": [0.46949186, 0.25922047, 0.2192159], "xyz": [2.86283288359842, 2.89738392244912, 10.6098117107485], "label": "Li", "properties": {}}, {"species": [{"element": "Li", "occu": 1}], "abc": [0.49875564, 0.93050055, 0.22624646999999998], "xyz": [3.0414431172702, 10.4004800755128, 10.95008367058005], "label": "Li", "properties": {}}, {"species": [{"element": "Li", "occu": 1}], "abc": [0.51781448, 0.47551626, 0.28254236], "xyz": [3.1575395381933595, 5.314985990832961, 13.6747436655394], "label": "Li", "properties": {}}, {"species": [{"element": "Li", "occu": 1}], "abc": [0.52408082, 0.88289635, 0.34509942], "xyz": [3.1958533682852996, 9.8683938412696, 16.7024374951293], "label": "Li", "properties": {}}, {"species": [{"element": "Li", "occu": 1}], "abc": [0.41829367, 0.14056598, 0.3524238], "xyz": [2.55061719267783, 1.57114756599008, 17.056929540177002], "label": "Li", "properties": {}}, {"species": [{"element": "Li", "occu": 1}], "abc": [0.00020061, 0.9310134, 0.22372282], "xyz": [0.0014615759572499999, 10.4062123517664, 10.8279417487403], "label": "Li", "properties": {}}, {"species": [{"element": "Y", "occu": 1}], "abc": [0.00244914, 0.59549051, 0.08907703], "xyz": [0.015086284897459997, 6.655973695460959, 4.31123160342245], "label": "Y", "properties": {}}, {"species": [{"element": "Y", "occu": 1}], "abc": [0.98372328, 0.09893583, 0.15723126999999998], "xyz": [5.99836164385128, 1.10583505691568, 7.6098228720720495], "label": "Y", "properties": {}}, {"species": [{"element": "Y", "occu": 1}], "abc": [0.99755764, 0.09544527, 0.29045235999999997], "xyz": [6.08271693628852, 1.06682003458992, 14.057579083189399], "label": "Y", "properties": {}}, {"species": [{"element": "Y", "occu": 1}], "abc": [0.01583535, 0.59897279, 0.2222662], "xyz": [0.09671072966399001, 6.6948961697758405, 10.757442921173], "label": "Y", "properties": {}}, {"species": [{"element": "Cl", "occu": 1}], "abc": [0.19224649, 0.25160672, 0.03296424], "xyz": [1.17230372504697, 2.81228278502912, 1.5954334497996001], "label": "Cl", "properties": {}}, {"species": [{"element": "Cl", "occu": 1}], "abc": [0.24386439, 0.43662623, 0.11380064000000001], "xyz": [1.4870956228130296, 4.88030061407408, 5.5078275023056005], "label": "Cl", "properties": {}}, {"species": [{"element": "Cl", "occu": 1}], "abc": [0.18603676, 0.10024349, 0.10809961], "xyz": [1.1344006195580398, 1.12045115980304, 5.23190383592315], "label": "Cl", "properties": {}}, {"species": [{"element": "Cl", "occu": 1}], "abc": [0.24059617, 0.93522396, 0.17959587999999999], "xyz": [1.46729501458321, 10.45327502721216, 8.6922457304702], "label": "Cl", "properties": {}}, {"species": [{"element": "Cl", "occu": 1}], "abc": [0.25678855, 0.59446719, 0.17663894], "xyz": [1.56594219425239, 6.64453574491824, 8.5491330427501], "label": "Cl", "properties": {}}, {"species": [{"element": "Cl", "occu": 1}], "abc": [0.23330307, 0.78760121, 0.10214943], "xyz": [1.4227869259957098, 8.803251854128161, 4.943921579868451], "label": "Cl", "properties": {}}, {"species": [{"element": "Cl", "occu": 1}], "abc": [0.22778247, 0.57308848, 0.041151379999999994], "xyz": [1.3890696829858298, 6.40557957515008, 1.9916821427526998], "label": "Cl", "properties": {}}, {"species": [{"element": "Cl", "occu": 1}], "abc": [0.24727914, 0.27012584, 0.17693351], "xyz": [1.50787472709194, 3.01927647092864, 8.56338991114165], "label": "Cl", "properties": {}}, {"species": [{"element": "Cl", "occu": 1}], "abc": [0.75118729, 0.59741763, 0.13430919], "xyz": [4.58058129060793, 6.6775136861284805, 6.50041907052885], "label": "Cl", "properties": {}}, {"species": [{"element": "Cl", "occu": 1}], "abc": [0.73029719, 0.92719902, 0.13420643], "xyz": [4.4532865542352695, 10.36357789744992, 6.49544559802345], "label": "Cl", "properties": {}}, {"species": [{"element": "Cl", "occu": 1}], "abc": [0.68016841, 0.48383127, 9.99999999999994e-05], "xyz": [4.147508555094969, 5.40792531884592, 0.004839891499999971], "label": "Cl", "properties": {}}, {"species": [{"element": "Cl", "occu": 1}], "abc": [0.74915108, 0.74701375, 0.06251131], "xyz": [4.568203623661799, 8.349593799820001, 3.02547957922865], "label": "Cl", "properties": {}}, {"species": [{"element": "Cl", "occu": 1}], "abc": [0.76817471, 0.41077202, 0.069034], "xyz": [4.68411574671247, 4.59132045605792, 3.34117069811], "label": "Cl", "properties": {}}, {"species": [{"element": "Cl", "occu": 1}], "abc": [0.71701191, 0.0612714, 0.06591609000000001], "xyz": [4.372056752715749, 0.6848485741343999, 3.1902672370423506], "label": "Cl", "properties": {}}, {"species": [{"element": "Cl", "occu": 1}], "abc": [0.75291758, 0.27403839, 0.1368722], "xyz": [4.5910490958721395, 3.0630082003934405, 6.624465973663001], "label": "Cl", "properties": {}}, {"species": [{"element": "Cl", "occu": 1}], "abc": [0.2469136, 0.77397536, 0.24263203], "xyz": [1.50577480134816, 8.65095169542656, 11.743126996247451], "label": "Cl", "properties": {}}, {"species": [{"element": "Cl", "occu": 1}], "abc": [0.23200386, 0.91067128, 0.31045473], "xyz": [1.41489638852578, 10.178842455258879, 15.02567208861795], "label": "Cl", "properties": {}}, {"species": [{"element": "Cl", "occu": 1}], "abc": [0.28286591, 0.56119845, 0.31358701], "xyz": [1.7249425966305498, 6.2726811903912, 15.177271042094151], "label": "Cl", "properties": {}}, {"species": [{"element": "Cl", "occu": 1}], "abc": [0.32058045, 0.98368701, 0.37940911], "xyz": [1.9550183670878098, 10.99496088212496, 18.36298926511565], "label": "Cl", "properties": {}}, {"species": [{"element": "Cl", "occu": 1}], "abc": [0.25093272, 0.24707128, 0.31698711], "xyz": [1.53014683972888, 2.76158882965888, 15.34183219298565], "label": "Cl", "properties": {}}, {"species": [{"element": "Cl", "occu": 1}], "abc": [0.24871668, 0.09743005, 0.24521469], "xyz": [1.5165960393106, 1.0890045081448, 11.868124938061351], "label": "Cl", "properties": {}}, {"species": [{"element": "Cl", "occu": 1}], "abc": [0.26959241, 0.42731791, 0.24530955], "xyz": [1.64397202871481, 4.7762587661713605, 11.87271605913825], "label": "Cl", "properties": {}}, {"species": [{"element": "Cl", "occu": 1}], "abc": [0.75232327, 0.77020751, 0.20259877999999998], "xyz": [4.587552259425509, 8.60883732069296, 9.8055611323237], "label": "Cl", "properties": {}}, {"species": [{"element": "Cl", "occu": 1}], "abc": [0.77238892, 0.0730239, 0.3383774], "xyz": [4.7097257868766, 0.8162097453744, 16.377099020521], "label": "Cl", "properties": {}}, {"species": [{"element": "Cl", "occu": 1}], "abc": [0.74293236, 0.09442004, 0.20287304], "xyz": [4.530117385880839, 1.05536073541184, 9.818835018751601], "label": "Cl", "properties": {}}, {"species": [{"element": "Cl", "occu": 1}], "abc": [0.76678634, 0.28763365, 0.27740186], "xyz": [4.675618519203299, 3.2149664456104, 13.4259490429819], "label": "Cl", "properties": {}}, {"species": [{"element": "Cl", "occu": 1}], "abc": [0.75913378, 0.43522009, 0.19991736], "xyz": [4.628994166264339, 4.86458377107664, 9.6757833136644], "label": "Cl", "properties": {}}, {"species": [{"element": "Cl", "occu": 1}], "abc": [0.75592799, 0.9366794, 0.26572116], "xyz": [4.60957496283055, 10.469542910902401, 12.8606158365414], "label": "Cl", "properties": {}}, {"species": [{"element": "Cl", "occu": 1}], "abc": [0.81371927, 0.60019984, 0.27139008], "xyz": [4.961876066121989, 6.70861127083264, 13.1349854137632], "label": "Cl", "properties": {}}, {"species": [{"element": "Cl", "occu": 1}], "abc": [0.80796287, 0.75150315, 0.3465173], "xyz": [4.92681466147535, 8.3997731524824, 16.7710613487295], "label": "Cl", "properties": {}}]}, "formula": "(Li3YCl6)4.0(LiCl)6.0", "bandgap": 4.6723, "slab_thickness": 18.35814937361565}