{"miller": "001_0.07", "final_energy": -301.84352884, "gamma": 0.004278540744197241, "work_function": 7.409001285325499, "ionization_potentail": -7.730301285325499, "electron_affinity": -2.7746012853254993, "is_stochiometric": true, "incar_parameters": {"SYSTEM": "unknown system", "LCOMPAT": false, "PREC": "normal", "ENMAX": 520.0, "ENAUG": 628.945, "EDIFF": 1e-05, "IALGO": 38, "IWAVPR": 11, "NBANDS": 260, "NBANDSLOW": -1, "NBANDSHIGH": -1, "NELECT": 434.0, "TURBO": 0, "IRESTART": 0, "NREBOOT": 0, "NMIN": 0, "EREF": 0.0, "ISMEAR": 0, "SIGMA": 0.05, "KSPACING": 0.5, "KGAMMA": true, "KBLOWUP": true, "LREAL": true, "ROPT": [-0.0005, -0.0005, -0.0005], "LMAXPAW": -100, "LMAXMIX": 4, "NLSPLINE": false, "ISTART": 0, "ICHARG": 2, "INIWAV": 1, "ISPIN": 1, "LNONCOLLINEAR": false, "MAGMOM": [0.6, 0.6, 0.6, 0.6, 0.6, 0.6, 0.6, 0.6, 0.6, 0.6, 0.6, 0.6, 0.6, 0.6, 0.6, 0.6, 0.6, 0.6, 0.6, 0.6, 0.6, 0.6, 0.6, 0.6, 0.6, 0.6, 0.6, 0.6, 0.6, 0.6, 0.6, 0.6, 0.6, 0.6, 0.6, 0.6, 0.6, 0.6, 0.6, 0.6, 0.6, 0.6, 0.6, 0.6, 0.6, 0.6, 0.6, 0.6, 0.6, 0.6, 0.6, 0.6, 0.6, 0.6, 0.6, 0.6, 0.6, 0.6, 0.6, 0.6, 0.6, 0.6, 0.6, 0.6, 0.6, 0.6, 0.6, 0.6, 0.6, 0.6], "NUPDOWN": -1.0, "LSORBIT": false, "SAXIS": [0.0, 0.0, 1.0], "LSPIRAL": false, "QSPIRAL": [0.0, 0.0, 0.0], "LZEROZ": false, "LASPH": false, "LMETAGGA": false, "NELM": 100, "NELMDL": -5, "NELMIN": 6, "ENINI": 520.0, "LDIAG": true, "LSUBROT": false, "WEIMIN": 0.001, "EBREAK": 1e-08, "DEPER": 0.3, "NRMM": 4, "TIME": 0.4, "AMIX": 0.4, "BMIX": 1.0, "AMIN": 0.1, "AMIX_MAG": 1.6, "BMIX_MAG": 1.0, "IMIX": 4, "MIXFIRST": false, "MAXMIX": -45, "WC": 100.0, "INIMIX": 1, "MIXPRE": 1, "MREMOVE": 5, "LDIPOL": false, "LMONO": false, "IDIPOL": 0, "EPSILON": 1.0, "DIPOL": [-100.0, -100.0, -100.0], "EFIELD": 0.0, "NGX": 36, "NGY": 64, "NGZ": 270, "NGXF": 72, "NGYF": 128, "NGZF": 540, "ADDGRID": false, "NSW": 150, "IBRION": 2, "MDALGO": 0, "ISIF": 2, "PSTRESS": 0.0, "EDIFFG": -0.01, "NFREE": 1, "POTIM": 0.5, "SMASS": -3.0, "SCALEE": 1.0, "TEBEG": 0.0001, "TEEND": 0.0001, "NBLOCK": 1, "KBLOCK": 150, "NPACO": 256, "APACO": 10.0, "ISYM": 0, "SYMPREC": 1e-05, "LORBIT": 11, "RWIGS": [-1.0, -1.0, -1.0], "NEDOS": 301, "EMIN": 10.0, "EMAX": -10.0, "EFERMI": 0.0, "NWRITE": 2, "LWAVE": false, "LDOWNSAMPLE": false, "LCHARG": false, "LPARD": false, "LVTOT": false, "LVHAR": false, "LELF": false, "LOPTICS": false, "STM": [0.0, 0.0, 0.0, 0.0, 0.0, 0.0, 0.0], "NPAR": 1, "NSIM": 4, "NBLK": -1, "LPLANE": true, "LSCALAPACK": true, "LSCAAWARE": false, "LSCALU": false, "LASYNC": false, "LORBITALREAL": false, "IDIOT": 3, "PHON_NSTRUCT": -1, "LMUSIC": false, "POMASS": [7.01, 88.906, 35.453], "DARWINR": [0.0, 0.0, 0.0], "DARWINV": [1.0, 1.0, 1.0], "LCORR": true, "GGA_COMPAT": true, "LBERRY": false, "ICORELEVEL": 0, "LDAU": false, "I_CONSTRAINED_M": 0, "GGA": "--", "VOSKOWN": 0, "LHFCALC": false, "PRECFOCK": "", "LSYMGRAD": false, "LHFONE": false, "LRHFCALC": false, "LTHOMAS": false, "LMODELHF": false, "LFOCKACE": false, "ENCUT4O": -1.0, "EXXOEP": 0, "FOURORBIT": 0, "AEXX": 0.0, "HFALPHA": 0.0, "MCALPHA": 0.0, "ALDAX": 1.0, "AGGAX": 1.0, "ALDAC": 1.0, "AGGAC": 1.0, "NKREDX": 1, "NKREDY": 1, "NKREDZ": 1, "SHIFTRED": false, "ODDONLY": false, "EVENONLY": false, "LMAXFOCK": 0, "NMAXFOCKAE": 0, "LFOCKAEDFT": false, "HFSCREEN": 0.0, "HFSCREENC": 0.0, "NBANDSGWLOW": 0, "LUSE_VDW": false, "Zab_VDW": -0.8491, "PARAM1": 0.1234, "PARAM2": 1.0, "PARAM3": 0.0, "MODEL_GW": 0, "MODEL_EPS0": 28.27375246, "MODEL_ALPHA": 1.0, "LEPSILON": false, "LRPA": false, "LNABLA": false, "LVEL": false, "CSHIFT": 0.1, "OMEGAMAX": -1.0, "DEG_THRESHOLD": 0.002, "RTIME": -0.1, "WPLASMAI": 0.0, "DFIELD": [0.0, 0.0, 0.0], "WPLASMA": [0.0, 0.0, 0.0, 0.0, 0.0, 0.0, 0.0, 0.0, 0.0], "NUCIND": false, "MAGPOS": [0.0, 0.0, 0.0], "LNICSALL": true, "ORBITALMAG": false, "LMAGBLOCH": false, "LCHIMAG": false, "LGAUGE": true, "MAGATOM": 0, "MAGDIPOL": [0.0, 0.0, 0.0], "AVECCONST": [0.0, 0.0, 0.0], "LFINITE_TEMPERATURE": false, "LADDER": false, "LRPAFORCE": false, "LFXC": false, "LHARTREE": true, "IBSE": 0, "KPOINT": [-1, 0, 0, 0], "LTCTC": false, "LTCTE": false, "LTETE": false, "LTRIPLET": false, "LFXCEPS": false, "LFXHEG": false, "NATURALO": 2, "LHOLEGF": false, "L2ORDER": false, "LDMP1": false, "LMP2LT": false, "LSMP2LT": false, "LGWLF": false, "ENCUTGW": -2.0, "ENCUTGWSOFT": -2.0, "ENCUTLF": -1.0, "LESF_SPLINES": false, "LMAXMP2": -1, "SCISSOR": 0.0, "NOMEGA": 0, "NOMEGAR": 0, "NBANDSGW": -1, "NBANDSO": -1, "NBANDSV": -1, "NELMGW": 1, "NELMHF": 1, "DIM": 3, "IESPILON": 4, "ANTIRES": 0, "OMEGAMIN": -30.0, "OMEGATL": -200.0, "OMEGAGRID": 0, "LSELFENERGY": false, "LSPECTRAL": false, "LSPECTRALGW": false, "LSINGLES": false, "LFERMIGW": false, "ODDONLYGW": false, "EVENONLYGW": false, "NKREDLFX": 1, "NKREDLFY": 1, "NKREDLFZ": 1, "MAXMEM": 2800, "TELESCOPE": 0, "NTAUPAR": -1, "NOMEGAPAR": -1, "DAMP_NEWTON": 0.80000001, "LAMBDA": 1.0, "OFIELD_KAPPA": 0.0, "OFIELD_K": [0.0, 0.0, 0.0], "OFIELD_Q6_NEAR": 0.0, "OFIELD_Q6_FAR": 0.0, "OFIELD_A": 0.0, "KPOINTS_OPT_MODE": 1, "LKPOINTS_OPT": false, "@module": "pymatgen.io.vasp.inputs", "@class": "Incar"}, "relaxed_structures": {"@module": "pymatgen.core.structure", "@class": "Structure", "charge": 0, "lattice": {"matrix": [[6.097585, 0.0, 0.0], [0.000256, 11.177296, 0.0], [0.0, 0.0, 48.398915]], "a": 6.097585, "b": 11.177296002931657, "c": 48.398915, "alpha": 90.0, "beta": 90.0, "gamma": 89.99868772200783, "volume": 3298.6044539737572}, "sites": [{"species": [{"element": "Li", "occu": 1}], "abc": [0.00108111, 0.15033913, 0.049961069999999996], "xyz": [0.006630646936629999, 1.68038495639248, 2.41806158023905], "label": "Li", "properties": {}}, {"species": [{"element": "Li", "occu": 1}], "abc": [0.00714957, 0.31192566, 0.10965764], "xyz": [0.04367496375741, 3.48648543181536, 5.3073107974606], "label": "Li", "properties": {}}, {"species": [{"element": "Li", "occu": 1}], "abc": [0.98830802, 0.77736829, 0.05570668], "xyz": [6.026491164413939, 8.68887547834384, 2.6961428702522], "label": "Li", "properties": {}}, {"species": [{"element": "Li", "occu": 1}], "abc": [0.48598345, 0.13870772, 0.17674118], "xyz": [2.9633609041445697, 1.55037724392512, 8.5540813478197], "label": "Li", "properties": {}}, {"species": [{"element": "Li", "occu": 1}], "abc": [0.49939945, 0.80364283, 0.17952965], "xyz": [3.04533632789273, 8.98255378918768, 8.689040270329752], "label": "Li", "properties": {}}, {"species": [{"element": "Li", "occu": 1}], "abc": [0.46116928, 0.62990383, 0.023023129999999996], "xyz": [2.8121801395692803, 7.0406215594436805, 1.1142945119039498], "label": "Li", "properties": {}}, {"species": [{"element": "Li", "occu": 1}], "abc": [0.50987795, 0.30738296, 0.10835029], "xyz": [3.10910282978851, 3.43571032927616, 5.24403647593535], "label": "Li", "properties": {}}, {"species": [{"element": "Li", "occu": 1}], "abc": [0.52871989, 0.63629084, 0.11017607], "xyz": [3.2240773609206896, 7.112011060768641, 5.33240224696405], "label": "Li", "properties": {}}, {"species": [{"element": "Li", "occu": 1}], "abc": [0.99990239, 0.80895733, 0.17740746000000002], "xyz": [6.09719690780463, 9.041955528779681, 8.5863285769059], "label": "Li", "properties": {}}, {"species": [{"element": "Li", "occu": 1}], "abc": [0.99902012, 0.64107583, 0.24398767], "xyz": [6.09177421382268, 7.1654943103556805, 11.80873850137805], "label": "Li", "properties": {}}, {"species": [{"element": "Li", "occu": 1}], "abc": [0.99827518, 0.80900491, 0.31047452000000003], "xyz": [6.08727486869726, 9.04248734452336, 15.026629903145801], "label": "Li", "properties": {}}, {"species": [{"element": "Li", "occu": 1}], "abc": [0.99809232, 0.31110885, 0.24404533], "xyz": [6.0860324029128, 3.4773557046695998, 11.811529182816951], "label": "Li", "properties": {}}, {"species": [{"element": "Li", "occu": 1}], "abc": [0.46770785, 0.63486909, 0.37801048], "xyz": [2.8520508970292897, 7.09611974018064, 18.2952970906292], "label": "Li", "properties": {}}, {"species": [{"element": "Li", "occu": 1}], "abc": [0.49450503, 0.30550665, 0.3792124], "xyz": [3.01536466305495, 3.4147382570183997, 18.353468714546], "label": "Li", "properties": {}}, {"species": [{"element": "Li", "occu": 1}], "abc": [0.49906399, 0.31985177, 0.24342963], "xyz": [3.04316698151727, 3.57507790941392, 11.781729970851451], "label": "Li", "properties": {}}, {"species": [{"element": "Li", "occu": 1}], "abc": [0.49766448, 0.80327442, 0.30863163], "xyz": [3.03475710653232, 8.978435961568321, 14.93743602668145], "label": "Li", "properties": {}}, {"species": [{"element": "Li", "occu": 1}], "abc": [0.50558291, 0.14049523, 0.31066668000000003], "xyz": [3.08287073505123, 1.57035677229808, 15.035930238652202], "label": "Li", "properties": {}}, {"species": [{"element": "Li", "occu": 1}], "abc": [0.99413886, 0.31160774, 0.37811348], "xyz": [6.0619259722345396, 3.4829319458710404, 18.300282178874202], "label": "Li", "properties": {}}, {"species": [{"element": "Li", "occu": 1}], "abc": [0.0011249, 0.1514526, 0.43782608], "xyz": [0.0068979452321, 1.6928305401696, 21.1903072307032], "label": "Li", "properties": {}}, {"species": [{"element": "Li", "occu": 1}], "abc": [0.01326731, 0.77834765, 0.43241067], "xyz": [0.08109780744474998, 8.6998220749544, 20.92820726242305], "label": "Li", "properties": {}}, {"species": [{"element": "Li", "occu": 1}], "abc": [0.54185303, 0.62951485, 0.46542291], "xyz": [3.3041560637341494, 7.036273814845599, 22.525963860142653], "label": "Li", "properties": {}}, {"species": [{"element": "Y", "occu": 1}], "abc": [0.01690537, 0.45887579, 0.03919076], "xyz": [0.10319940273368998, 5.12899053206384, 1.8967902620254], "label": "Y", "properties": {}}, {"species": [{"element": "Y", "occu": 1}], "abc": [0.99687549, 0.971063, 0.11228717], "xyz": [6.07878162681965, 10.853858585648, 5.434577196420551], "label": "Y", "properties": {}}, {"species": [{"element": "Y", "occu": 1}], "abc": [0.00472795, 0.47146698, 0.17553956], "xyz": [0.02894977254763, 5.26972598968608, 8.4959242435774], "label": "Y", "properties": {}}, {"species": [{"element": "Y", "occu": 1}], "abc": [0.99829048, 0.98321259, 0.24400443], "xyz": [6.08741275891384, 10.989658149356641, 11.80954966719345], "label": "Y", "properties": {}}, {"species": [{"element": "Y", "occu": 1}], "abc": [0.9930775, 0.47153747, 0.31225191], "xyz": [6.055495181429819, 5.27051387728112, 15.112653650677652], "label": "Y", "properties": {}}, {"species": [{"element": "Y", "occu": 1}], "abc": [0.00283513, 0.9711515, 0.37559942], "xyz": [0.01753606094505, 10.854847776344, 18.1786044026293], "label": "Y", "properties": {}}, {"species": [{"element": "Y", "occu": 1}], "abc": [0.98618583, 0.45944335, 0.44862336], "xyz": [6.01346954171815, 5.1353343181816, 21.7128838676544], "label": "Y", "properties": {}}, {"species": [{"element": "Cl", "occu": 1}], "abc": [0.25273581, 0.30018911, 0.06739901000000001], "xyz": [1.5411549324310099, 3.35530253844656, 3.2620389560741505], "label": "Cl", "properties": {}}, {"species": [{"element": "Cl", "occu": 1}], "abc": [0.17295911, 0.96355924, 0.061535059999999996], "xyz": [1.05487954591479, 10.76998683901504, 2.9782301384599], "label": "Cl", "properties": {}}, {"species": [{"element": "Cl", "occu": 1}], "abc": [0.24606124, 0.80629186, 0.13520518], "xyz": [1.5005857368215598, 9.01216278161056, 6.543784014379701], "label": "Cl", "properties": {}}, {"species": [{"element": "Cl", "occu": 1}], "abc": [0.25493643, 0.46721734, 0.13060475], "xyz": [1.5546161591605898, 5.22222650551264, 6.32112819384625], "label": "Cl", "properties": {}}, {"species": [{"element": "Cl", "occu": 1}], "abc": [0.26931309, 0.63441315, 0.06457734000000001], "xyz": [1.6423218676540496, 7.0910235638424, 3.1254731895861005], "label": "Cl", "properties": {}}, {"species": [{"element": "Cl", "occu": 1}], "abc": [0.30035043, 0.47847544, 9.99999999999994e-05], "xyz": [1.8315347664241899, 5.34806162161024, 0.004839891499999971], "label": "Cl", "properties": {}}, {"species": [{"element": "Cl", "occu": 1}], "abc": [0.25675087, 0.14465487, 0.13137504], "xyz": [1.5655972852956699, 1.61685029983152, 6.3584093940816], "label": "Cl", "properties": {}}, {"species": [{"element": "Cl", "occu": 1}], "abc": [0.74612256, 0.6447131, 0.15621216000000002], "xyz": [4.5497107765711995, 7.2061491537776, 7.560499053806401], "label": "Cl", "properties": {}}, {"species": [{"element": "Cl", "occu": 1}], "abc": [0.76032335, 0.466992, 0.08559040000000001], "xyz": [4.63625580406175, 5.2197078136320005, 4.142482494416001], "label": "Cl", "properties": {}}, {"species": [{"element": "Cl", "occu": 1}], "abc": [0.73414437, 0.80783448, 0.09045798000000001], "xyz": [4.47671450397333, 9.02940510196608, 4.378068085091701], "label": "Cl", "properties": {}}, {"species": [{"element": "Cl", "occu": 1}], "abc": [0.74957007, 0.96859937, 0.1572808], "xyz": [4.570815176719669, 10.82632186390352, 7.612220070332], "label": "Cl", "properties": {}}, {"species": [{"element": "Cl", "occu": 1}], "abc": [0.82748865, 0.66055361, 0.019519139999999997], "xyz": [5.04585148163441, 7.38320322283856, 0.9447051977330999], "label": "Cl", "properties": {}}, {"species": [{"element": "Cl", "occu": 1}], "abc": [0.75584024, 0.30833087, 0.15165406], "xyz": [4.60887904252312, 3.4463053999275197, 7.339891959344901], "label": "Cl", "properties": {}}, {"species": [{"element": "Cl", "occu": 1}], "abc": [0.82757162, 0.27676263, 0.01828788], "xyz": [5.0462591477709795, 3.0934578372484802, 0.8851135496502001], "label": "Cl", "properties": {}}, {"species": [{"element": "Cl", "occu": 1}], "abc": [0.76267892, 0.14654229, 0.08974658], "xyz": [4.65053705723444, 1.63794655184784, 4.3436370969607], "label": "Cl", "properties": {}}, {"species": [{"element": "Cl", "occu": 1}], "abc": [0.23200522, 0.64623475, 0.19885872000000002], "xyz": [1.4148369854896998, 7.223157086236, 9.624546286288801], "label": "Cl", "properties": {}}, {"species": [{"element": "Cl", "occu": 1}], "abc": [0.22822561, 0.80855139, 0.26723666], "xyz": [1.39183204530769, 9.03741821724144, 12.933964392223901], "label": "Cl", "properties": {}}, {"species": [{"element": "Cl", "occu": 1}], "abc": [0.22670365, 0.47099164, 0.26587388], "xyz": [1.38246534954509, 5.26441297380544, 12.8680073188402], "label": "Cl", "properties": {}}, {"species": [{"element": "Cl", "occu": 1}], "abc": [0.24335416, 0.30828876, 0.33600707], "xyz": [1.4839515976261601, 3.44583472399296, 16.26237762032905], "label": "Cl", "properties": {}}, {"species": [{"element": "Cl", "occu": 1}], "abc": [0.2490386, 0.96871029, 0.33047629], "xyz": [1.51878202161524, 10.82756164957584, 15.994693869225351], "label": "Cl", "properties": {}}, {"species": [{"element": "Cl", "occu": 1}], "abc": [0.24676381, 0.15379522, 0.26536901], "xyz": [1.50470267797517, 1.7190146973251201, 12.843572158624152], "label": "Cl", "properties": {}}, {"species": [{"element": "Cl", "occu": 1}], "abc": [0.25508834, 0.96945669, 0.19923245], "xyz": [1.55567101657154, 10.83590438331024, 9.64263441279175], "label": "Cl", "properties": {}}, {"species": [{"element": "Cl", "occu": 1}], "abc": [0.25706748, 0.30925334, 0.20053767], "xyz": [1.56756997889084, 3.45661612016864, 9.70580564462805], "label": "Cl", "properties": {}}, {"species": [{"element": "Cl", "occu": 1}], "abc": [0.25242266, 0.64448466, 0.33166662], "xyz": [1.53933361334906, 7.20359581227936, 16.052304549717302], "label": "Cl", "properties": {}}, {"species": [{"element": "Cl", "occu": 1}], "abc": [0.74332923, 0.14486956, 0.35642936000000003], "xyz": [4.53255024951691, 1.6192499535097602, 17.250794298144402], "label": "Cl", "properties": {}}, {"species": [{"element": "Cl", "occu": 1}], "abc": [0.74217229, 0.96970963, 0.28864961], "xyz": [4.52570686858493, 10.83873156856048, 13.970327939173151], "label": "Cl", "properties": {}}, {"species": [{"element": "Cl", "occu": 1}], "abc": [0.74013956, 0.30978061, 0.28724103], "xyz": [4.5131431827987605, 3.46250957303056, 13.902154195482451], "label": "Cl", "properties": {}}, {"species": [{"element": "Cl", "occu": 1}], "abc": [0.74490407, 0.46737164, 0.3573428], "xyz": [4.54223553081079, 5.22395116228544, 17.295003803062002], "label": "Cl", "properties": {}}, {"species": [{"element": "Cl", "occu": 1}], "abc": [0.7507819, 0.15365366, 0.2224822], "xyz": [4.57799578704846, 1.71743243930336, 10.767897086813], "label": "Cl", "properties": {}}, {"species": [{"element": "Cl", "occu": 1}], "abc": [0.7536116, 0.80642952, 0.35273412], "xyz": [4.595417233943119, 9.01370144817792, 17.0719486914798], "label": "Cl", "properties": {}}, {"species": [{"element": "Cl", "occu": 1}], "abc": [0.76942077, 0.80835587, 0.22065116], "xyz": [4.69181548494317, 9.03523283232752, 10.679276737491401], "label": "Cl", "properties": {}}, {"species": [{"element": "Cl", "occu": 1}], "abc": [0.77058963, 0.47088317, 0.22189743], "xyz": [4.69885631513507, 5.26320057250832, 10.73959485328845], "label": "Cl", "properties": {}}, {"species": [{"element": "Cl", "occu": 1}], "abc": [0.76570223, 0.64651998, 0.28903112000000003], "xyz": [4.66909994122943, 7.22634518637408, 13.988792609234801], "label": "Cl", "properties": {}}, {"species": [{"element": "Cl", "occu": 1}], "abc": [0.23862532, 0.14670113, 0.39795122], "xyz": [1.4550757273414798, 1.6397219535444802, 19.2604072709263], "label": "Cl", "properties": {}}, {"species": [{"element": "Cl", "occu": 1}], "abc": [0.17822509, 0.27743305, 0.46923461], "xyz": [1.08681365826845, 3.1009513200328, 22.71044600444815], "label": "Cl", "properties": {}}, {"species": [{"element": "Cl", "occu": 1}], "abc": [0.17564721, 0.66088889, 0.46842777], "xyz": [1.07119298054369, 7.38695074664144, 22.671395823869553], "label": "Cl", "properties": {}}, {"species": [{"element": "Cl", "occu": 1}], "abc": [0.24156959, 0.46723546, 0.40215831], "xyz": [1.47311072071791, 5.22242903811616, 19.46402586223365], "label": "Cl", "properties": {}}, {"species": [{"element": "Cl", "occu": 1}], "abc": [0.26627159, 0.80817204, 0.39744215], "xyz": [1.62382054515239, 9.03317811000384, 19.23576883526725], "label": "Cl", "properties": {}}, {"species": [{"element": "Cl", "occu": 1}], "abc": [0.7050832, 0.47783892, 0.48800205], "xyz": [4.29942707083552, 5.34094704916032, 23.618769737775754], "label": "Cl", "properties": {}}, {"species": [{"element": "Cl", "occu": 1}], "abc": [0.7322273, 0.63496766, 0.42364684], "xyz": [4.46498075279146, 7.097221486247361, 20.504047399178603], "label": "Cl", "properties": {}}, {"species": [{"element": "Cl", "occu": 1}], "abc": [0.74950533, 0.30064564, 0.42050519000000003], "xyz": [4.57024942291189, 3.36040530938944, 20.351994947868853], "label": "Cl", "properties": {}}, {"species": [{"element": "Cl", "occu": 1}], "abc": [0.82908396, 0.96452055, 0.42646053], "xyz": [5.0556568354974, 10.7807316854328, 20.64022694232495], "label": "Cl", "properties": {}}]}, "formula": "(Li3YCl6)7.0", "bandgap": 4.9557, "slab_thickness": 23.613929846275752}