{"miller": "100_0.08", "final_energy": -228.55018446, "gamma": 0.016073906989258372, "work_function": 5.4809415617696935, "ionization_potentail": -5.717741561769693, "electron_affinity": -3.341141561769693, "is_stochiometric": true, "incar_parameters": {"SYSTEM": "unknown system", "LCOMPAT": false, "PREC": "accura", "ENMAX": 520.0, "ENAUG": 368.056, "EDIFF": 1e-05, "IALGO": 38, "IWAVPR": 11, "NBANDS": 210, "NBANDSLOW": -1, "NBANDSHIGH": -1, "NELECT": 350.0, "TURBO": 0, "IRESTART": 0, "NREBOOT": 0, "NMIN": 0, "EREF": 0.0, "ISMEAR": 0, "SIGMA": 0.05, "KSPACING": 0.5, "KGAMMA": true, "KBLOWUP": true, "LREAL": true, "ROPT": [-0.00025, -0.00025, -0.00025], "LMAXPAW": -100, "LMAXMIX": 2, "NLSPLINE": false, "ISTART": 0, "ICHARG": 2, "INIWAV": 1, "ISPIN": 1, "LNONCOLLINEAR": false, "MAGMOM": [0.6, 0.6, 0.6, 0.6, 0.6, 0.6, 0.6, 0.6, 0.6, 0.6, 0.6, 0.6, 0.6, 0.6, 0.6, 0.6, 0.6, 0.6, 0.6, 0.6, 0.6, 0.6, 0.6, 0.6, 0.6, 0.6, 0.6, 0.6, 0.6, 0.6, 0.6, 0.6, 0.6, 0.6, 0.6, 0.6, 0.6, 0.6, 0.6, 0.6, 0.6, 0.6, 0.6, 0.6, 0.6, 0.6, 0.6, 0.6, 0.6, 0.6, 0.6, 0.6, 0.6, 0.6, 0.6, 0.6], "NUPDOWN": -1.0, "LSORBIT": false, "SAXIS": [0.0, 0.0, 1.0], "LSPIRAL": false, "QSPIRAL": [0.0, 0.0, 0.0], "LZEROZ": false, "LASPH": false, "LMETAGGA": false, "NELM": 100, "NELMDL": -5, "NELMIN": 6, "ENINI": 520.0, "LDIAG": true, "LSUBROT": false, "WEIMIN": 0.001, "EBREAK": 1e-08, "DEPER": 0.3, "NRMM": 4, "TIME": 0.4, "AMIX": 0.4, "BMIX": 1.0, "AMIN": 0.1, "AMIX_MAG": 1.6, "BMIX_MAG": 1.0, "IMIX": 4, "MIXFIRST": false, "MAXMIX": -45, "WC": 100.0, "INIMIX": 1, "MIXPRE": 1, "MREMOVE": 5, "LDIPOL": false, "LMONO": false, "IDIPOL": 0, "EPSILON": 1.0, "DIPOL": [-100.0, -100.0, -100.0], "EFIELD": 0.0, "NGX": 54, "NGY": 54, "NGZ": 378, "NGXF": 108, "NGYF": 108, "NGZF": 756, "ADDGRID": false, "NSW": 150, "IBRION": 2, "MDALGO": 0, "ISIF": 2, "PSTRESS": 0.0, "EDIFFG": -0.01, "NFREE": 1, "POTIM": 0.5, "SMASS": -3.0, "SCALEE": 1.0, "TEBEG": 0.0001, "TEEND": 0.0001, "NBLOCK": 1, "KBLOCK": 150, "NPACO": 256, "APACO": 10.0, "ISYM": 0, "SYMPREC": 1e-05, "LORBIT": 11, "RWIGS": [-1.0, -1.0, -1.0], "NEDOS": 301, "EMIN": 10.0, "EMAX": -10.0, "EFERMI": 0.0, "NWRITE": 2, "LWAVE": false, "LDOWNSAMPLE": false, "LCHARG": false, "LPARD": false, "LVTOT": false, "LVHAR": false, "LELF": false, "LOPTICS": false, "STM": [0.0, 0.0, 0.0, 0.0, 0.0, 0.0, 0.0], "NPAR": 1, "NSIM": 4, "NBLK": -1, "LPLANE": true, "LSCALAPACK": true, "LSCAAWARE": false, "LSCALU": false, "LASYNC": false, "LORBITALREAL": false, "IDIOT": 3, "PHON_NSTRUCT": -1, "LMUSIC": false, "POMASS": [22.99, 30.974, 32.066], "DARWINR": [0.0, 0.0, 0.0], "DARWINV": [1.0, 1.0, 1.0], "LCORR": true, "GGA_COMPAT": true, "LBERRY": false, "ICORELEVEL": 0, "LDAU": false, "I_CONSTRAINED_M": 0, "GGA": "--", "VOSKOWN": 0, "LHFCALC": false, "PRECFOCK": "", "LSYMGRAD": false, "LHFONE": false, "LRHFCALC": false, "LTHOMAS": false, "LMODELHF": false, "LFOCKACE": false, "ENCUT4O": -1.0, "EXXOEP": 0, "FOURORBIT": 0, "AEXX": 0.0, "HFALPHA": 0.0, "MCALPHA": 0.0, "ALDAX": 1.0, "AGGAX": 1.0, "ALDAC": 1.0, "AGGAC": 1.0, "NKREDX": 1, "NKREDY": 1, "NKREDZ": 1, "SHIFTRED": false, "ODDONLY": false, "EVENONLY": false, "LMAXFOCK": 0, "NMAXFOCKAE": 0, "LFOCKAEDFT": false, "HFSCREEN": 0.0, "HFSCREENC": 0.0, "NBANDSGWLOW": 0, "LUSE_VDW": false, "Zab_VDW": -0.8491, "PARAM1": 0.1234, "PARAM2": 1.0, "PARAM3": 0.0, "MODEL_GW": 0, "MODEL_EPS0": 26.27374637, "MODEL_ALPHA": 1.0, "LEPSILON": false, "LRPA": false, "LNABLA": false, "LVEL": false, "CSHIFT": 0.1, "OMEGAMAX": -1.0, "DEG_THRESHOLD": 0.002, "RTIME": -0.1, "WPLASMAI": 0.0, "DFIELD": [0.0, 0.0, 0.0], "WPLASMA": [0.0, 0.0, 0.0, 0.0, 0.0, 0.0, 0.0, 0.0, 0.0], "NUCIND": false, "MAGPOS": [0.0, 0.0, 0.0], "LNICSALL": true, "ORBITALMAG": false, "LMAGBLOCH": false, "LCHIMAG": false, "LGAUGE": true, "MAGATOM": 0, "MAGDIPOL": [0.0, 0.0, 0.0], "AVECCONST": [0.0, 0.0, 0.0], "LFINITE_TEMPERATURE": false, "LADDER": false, "LRPAFORCE": false, "LFXC": false, "LHARTREE": true, "IBSE": 0, "KPOINT": [-1, 0, 0, 0], "LTCTC": false, "LTCTE": false, "LTETE": false, "LTRIPLET": false, "LFXCEPS": false, "LFXHEG": false, "NATURALO": 2, "LHOLEGF": false, "L2ORDER": false, "LDMP1": false, "LMP2LT": false, "LSMP2LT": false, "LGWLF": false, "ENCUTGW": -2.0, "ENCUTGWSOFT": -2.0, "ENCUTLF": -1.0, "LESF_SPLINES": false, "LMAXMP2": -1, "SCISSOR": 0.0, "NOMEGA": 0, "NOMEGAR": 0, "NBANDSGW": -1, "NBANDSO": -1, "NBANDSV": -1, "NELMGW": 1, "NELMHF": 1, "DIM": 3, "IESPILON": 4, "ANTIRES": 0, "OMEGAMIN": -30.0, "OMEGATL": -200.0, "OMEGAGRID": 0, "LSELFENERGY": false, "LSPECTRAL": false, "LSPECTRALGW": false, "LSINGLES": false, "LFERMIGW": false, "ODDONLYGW": false, "EVENONLYGW": false, "NKREDLFX": 1, "NKREDLFY": 1, "NKREDLFZ": 1, "MAXMEM": 2800, "TELESCOPE": 0, "NTAUPAR": -1, "NOMEGAPAR": -1, "DAMP_NEWTON": 0.80000001, "LAMBDA": 1.0, "OFIELD_KAPPA": 0.0, "OFIELD_K": [0.0, 0.0, 0.0], "OFIELD_Q6_NEAR": 0.0, "OFIELD_Q6_FAR": 0.0, "OFIELD_A": 0.0, "KPOINTS_OPT_MODE": 1, "LKPOINTS_OPT": false, "@module": "pymatgen.io.vasp.inputs", "@class": "Incar"}, "relaxed_structures": {"@module": "pymatgen.core.structure", "@class": "Structure", "charge": 0, "lattice": {"matrix": [[7.049423, 0.0, 0.0], [0.0, 7.049423, 0.0], [0.0, 0.0, 49.345964]], "a": 7.049423, "b": 7.049423, "c": 49.345964, "alpha": 90.0, "beta": 90.0, "gamma": 90.0, "volume": 2452.216328179388}, "sites": [{"species": [{"element": "Na", "occu": 1}], "abc": [0.99999247, 0.50012566, 0.09768625], "xyz": [7.04936991784481, 3.5255973304941803, 4.8204221757950005], "label": "Na", "properties": {}}, {"species": [{"element": "Na", "occu": 1}], "abc": [0.99926449, 0.00162782, 0.03094002], "xyz": [7.044238078889269, 0.01147519174786, 1.52676511307928], "label": "Na", "properties": {}}, {"species": [{"element": "Na", "occu": 1}], "abc": [0.49994412, 0.99969043, 0.09778076999999999], "xyz": [3.52431757824276, 7.04724071012189, 4.82508635631228], "label": "Na", "properties": {}}, {"species": [{"element": "Na", "occu": 1}], "abc": [0.49979565, 0.99914882, 0.023330740000000003], "xyz": [3.52327095040995, 7.04342267213086, 1.15127785613336], "label": "Na", "properties": {}}, {"species": [{"element": "Na", "occu": 1}], "abc": [0.49999595, 0.4995683, 0.09612529], "xyz": [3.5246829498368504, 3.5216682640909003, 4.74339509982956], "label": "Na", "properties": {}}, {"species": [{"element": "Na", "occu": 1}], "abc": [0.00073181, 0.50061796, 0.0232688], "xyz": [0.00515883824563, 3.52906776143708, 1.1482213671232], "label": "Na", "properties": {}}, {"species": [{"element": "Na", "occu": 1}], "abc": [0.00087074, 0.49981279, 0.24081292], "xyz": [0.00613821458302, 3.52339177752017, 11.88314568105488], "label": "Na", "properties": {}}, {"species": [{"element": "Na", "occu": 1}], "abc": [0.99981061, 0.00022606, 0.16975419], "xyz": [7.0480879097780305, 0.00159359256338, 8.37668414858916], "label": "Na", "properties": {}}, {"species": [{"element": "Na", "occu": 1}], "abc": [0.49981829, 0.00037271, 0.24095353], "xyz": [3.5234305493466698, 0.00262739044633, 11.890084217052921], "label": "Na", "properties": {}}, {"species": [{"element": "Na", "occu": 1}], "abc": [0.49972243, 0.00016935, 0.16906142], "xyz": [3.52275479165789, 0.0011938197850499999, 8.34249874510888], "label": "Na", "properties": {}}, {"species": [{"element": "Na", "occu": 1}], "abc": [0.50083756, 0.5004526, 0.24080649], "xyz": [3.53061581472788, 3.5279020688498, 11.882828386506361], "label": "Na", "properties": {}}, {"species": [{"element": "Na", "occu": 1}], "abc": [1.359e-05, 0.5002198, 0.16892713], "xyz": [9.580165857e-05, 3.5262609631754, 8.335872075603321], "label": "Na", "properties": {}}, {"species": [{"element": "Na", "occu": 1}], "abc": [0.99948786, 0.50038651, 0.38409118], "xyz": [7.04581270850478, 3.52743617248373, 18.953349540997518], "label": "Na", "properties": {}}, {"species": [{"element": "Na", "occu": 1}], "abc": [0.99926178, 0.99905142, 0.31202331000000005], "xyz": [7.04421897495294, 7.04273605833066, 15.397091022420843], "label": "Na", "properties": {}}, {"species": [{"element": "Na", "occu": 1}], "abc": [0.4999735, 0.00100766, 0.38441033999999996], "xyz": [3.5245246902905003, 0.007103421580180001, 18.96909879886776], "label": "Na", "properties": {}}, {"species": [{"element": "Na", "occu": 1}], "abc": [0.49927553, 0.99999135, 0.31292792], "xyz": [3.5196044045191903, 7.049362022491049, 15.441729874914882], "label": "Na", "properties": {}}, {"species": [{"element": "Na", "occu": 1}], "abc": [0.4995021, 0.50093504, 0.38561813], "xyz": [3.5212015922883, 3.53130299248192, 19.028698360727322], "label": "Na", "properties": {}}, {"species": [{"element": "Na", "occu": 1}], "abc": [0.99998326, 0.49914673, 0.31268816], "xyz": [7.04930499265898, 3.51869643883679, 15.42989868658624], "label": "Na", "properties": {}}, {"species": [{"element": "Na", "occu": 1}], "abc": [0.0011514, 2.61e-05, 0.45081212000000004], "xyz": [0.0081167056422, 0.00018398994030000002, 22.245758644283683], "label": "Na", "properties": {}}, {"species": [{"element": "Na", "occu": 1}], "abc": [0.50048217, 0.9998697, 0.45876153], "xyz": [3.5281105202879095, 7.0485044601831, 22.63802994396492], "label": "Na", "properties": {}}, {"species": [{"element": "Na", "occu": 1}], "abc": [0.99958974, 0.49994985, 0.45851900999999995], "xyz": [7.04653090372002, 3.5243579714365496, 22.626062560775637], "label": "Na", "properties": {}}, {"species": [{"element": "P", "occu": 1}], "abc": [0.99999045, 3.097e-05, 0.09888994000000001], "xyz": [7.0493556780103495, 0.00021832063031000003, 4.8798194192021604], "label": "P", "properties": {}}, {"species": [{"element": "P", "occu": 1}], "abc": [0.50067053, 0.49924179, 0.02320304], "xyz": [3.5294383496041895, 3.51936655698717, 1.14497637653056], "label": "P", "properties": {}}, {"species": [{"element": "P", "occu": 1}], "abc": [0.99986045, 0.99988558, 0.24086598], "xyz": [7.04843925302035, 7.04861640502034, 11.885763977904722], "label": "P", "properties": {}}, {"species": [{"element": "P", "occu": 1}], "abc": [0.50005715, 0.50011953, 0.16900723], "xyz": [3.5251143745244495, 3.5255541175311897, 8.339824687319721], "label": "P", "properties": {}}, {"species": [{"element": "P", "occu": 1}], "abc": [0.99995562, 0.00033337, 0.3829127], "xyz": [7.04911014660726, 0.00235006614551, 18.8951963093428], "label": "P", "properties": {}}, {"species": [{"element": "P", "occu": 1}], "abc": [0.5000023, 0.49996129, 0.31276686], "xyz": [3.5247277136729003, 3.52443861683567, 15.43378221395304], "label": "P", "properties": {}}, {"species": [{"element": "P", "occu": 1}], "abc": [0.49959467, 0.4999129, 0.45870509000000004], "xyz": [3.5218541573754103, 3.5240974952567, 22.635244857756764], "label": "P", "properties": {}}, {"species": [{"element": "S", "occu": 1}], "abc": [0.82943002, 0.1703026, 0.07471298], "xyz": [5.84700305987846, 1.2005350653998, 3.68678402141272], "label": "S", "properties": {}}, {"species": [{"element": "S", "occu": 1}], "abc": [0.17002685, 0.83002746, 0.07457802], "xyz": [1.19859118700755, 5.85121466715558, 3.68012429011128], "label": "S", "properties": {}}, {"species": [{"element": "S", "occu": 1}], "abc": [0.67219919, 0.67117963, 0.047847230000000004], "xyz": [4.73861643056737, 4.73142912085349, 2.36106768907972], "label": "S", "properties": {}}, {"species": [{"element": "S", "occu": 1}], "abc": [0.32850997, 0.32760753, 0.047808729999999994], "xyz": [2.31580573824731, 2.30944405695519, 2.3591678694657197], "label": "S", "properties": {}}, {"species": [{"element": "S", "occu": 1}], "abc": [0.32913269, 0.67099326, 0.00010000000000000286], "xyz": [2.32019555493787, 4.73011531988898, 0.004934596400000142], "label": "S", "properties": {}}, {"species": [{"element": "S", "occu": 1}], "abc": [0.67288498, 0.32714103, 0.0002192400000000025], "xyz": [4.7434508543665395, 2.30615550112569, 0.010818609147360124], "label": "S", "properties": {}}, {"species": [{"element": "S", "occu": 1}], "abc": [0.1706201, 0.17050624, 0.12268974999999999], "xyz": [1.2027732572023, 1.20197060989952, 6.054243986668999], "label": "S", "properties": {}}, {"species": [{"element": "S", "occu": 1}], "abc": [0.829768, 0.82935722, 0.12270618999999999], "xyz": [5.849385623863999, 5.84648986188406, 6.05505523431716], "label": "S", "properties": {}}, {"species": [{"element": "S", "occu": 1}], "abc": [0.83016435, 0.16978733, 0.21668743], "xyz": [5.85217966267005, 1.19690270921059, 10.69265012003252], "label": "S", "properties": {}}, {"species": [{"element": "S", "occu": 1}], "abc": [0.16998673, 0.83052871, 0.21666791999999999], "xyz": [1.19830836415679, 5.8547481904343295, 10.69168738027488], "label": "S", "properties": {}}, {"species": [{"element": "S", "occu": 1}], "abc": [0.66948379, 0.66952259, 0.19331248], "xyz": [4.719474427353171, 4.719747944965571, 9.539190678830721], "label": "S", "properties": {}}, {"species": [{"element": "S", "occu": 1}], "abc": [0.33059812, 0.33093562, 0.19335086], "xyz": [2.3305259908847598, 2.3329051711472597, 9.541084576929041], "label": "S", "properties": {}}, {"species": [{"element": "S", "occu": 1}], "abc": [0.33111708, 0.6691058, 0.14463211], "xyz": [2.33418435944484, 4.7168098159533995, 7.137010893304041], "label": "S", "properties": {}}, {"species": [{"element": "S", "occu": 1}], "abc": [0.66892946, 0.33094726, 0.1446511], "xyz": [4.71556672070158, 2.3329872264309803, 7.137947973160401], "label": "S", "properties": {}}, {"species": [{"element": "S", "occu": 1}], "abc": [0.16938137, 0.16965427, 0.26508842], "xyz": [1.1940409254495101, 1.1959647129862099, 13.08104363013688], "label": "S", "properties": {}}, {"species": [{"element": "S", "occu": 1}], "abc": [0.8300437, 0.82980987, 0.26499819999999996], "xyz": [5.8513291497851005, 5.8496807832050095, 13.076591637264798], "label": "S", "properties": {}}, {"species": [{"element": "S", "occu": 1}], "abc": [0.82923564, 0.17043094, 0.35909464999999996], "xyz": [5.84563279303572, 1.20143978834762, 17.719871671492598], "label": "S", "properties": {}}, {"species": [{"element": "S", "occu": 1}], "abc": [0.17082865, 0.82984239, 0.35916587], "xyz": [1.20424341436895, 5.84991003044097, 17.72338609104868], "label": "S", "properties": {}}, {"species": [{"element": "S", "occu": 1}], "abc": [0.66938079, 0.66894874, 0.33710078], "xyz": [4.71874833678417, 4.7157026335770205, 16.63456295425192], "label": "S", "properties": {}}, {"species": [{"element": "S", "occu": 1}], "abc": [0.33081438, 0.33133747, 0.3371735], "xyz": [2.33205049910274, 2.3357379817798103, 16.638151392754], "label": "S", "properties": {}}, {"species": [{"element": "S", "occu": 1}], "abc": [0.33082306, 0.66923853, 0.28841691999999997], "xyz": [2.33211168809438, 4.71774548586819, 14.23221095131088], "label": "S", "properties": {}}, {"species": [{"element": "S", "occu": 1}], "abc": [0.66889838, 0.33034343, 0.28842787000000003], "xyz": [4.71534762463474, 2.32873057334089, 14.232751289616683], "label": "S", "properties": {}}, {"species": [{"element": "S", "occu": 1}], "abc": [0.16980989, 0.17101107, 0.40714936999999995], "xyz": [1.19706174419347, 1.20552937011261, 20.09117815464268], "label": "S", "properties": {}}, {"species": [{"element": "S", "occu": 1}], "abc": [0.82994727, 0.8300236, 0.40719229999999995], "xyz": [5.85064937392521, 5.8511874563827995, 20.093296576877197], "label": "S", "properties": {}}, {"species": [{"element": "S", "occu": 1}], "abc": [0.67172096, 0.67109913, 0.48180196], "xyz": [4.735245185006081, 4.73086164230199, 23.77498217328944], "label": "S", "properties": {}}, {"species": [{"element": "S", "occu": 1}], "abc": [0.3274903, 0.32801824, 0.4817190499999999], "xyz": [2.3086176530969, 2.31233932547552, 23.770890899414198], "label": "S", "properties": {}}, {"species": [{"element": "S", "occu": 1}], "abc": [0.32806302, 0.6722455, 0.43409918000000003], "xyz": [2.31265499863746, 4.7389428893465, 21.421042508709522], "label": "S", "properties": {}}, {"species": [{"element": "S", "occu": 1}], "abc": [0.67107502, 0.32817242, 0.43402297999999995], "xyz": [4.73069168071346, 2.31342620551366, 21.41728234625272], "label": "S", "properties": {}}]}, "formula": "", "bandgap": 2.3766, "slab_thickness": 23.77004757688944}