{"miller": "110_0.17", "final_energy": -327.17314558, "gamma": 0.011449839780117283, "work_function": 4.094438398655997, "ionization_potentail": -4.349238398655998, "electron_affinity": -1.9780383986559975, "is_stochiometric": true, "incar_parameters": {"SYSTEM": "unknown system", "LCOMPAT": false, "PREC": "accura", "ENMAX": 520.0, "ENAUG": 368.056, "EDIFF": 1e-05, "IALGO": 38, "IWAVPR": 11, "NBANDS": 300, "NBANDSLOW": -1, "NBANDSHIGH": -1, "NELECT": 500.0, "TURBO": 0, "IRESTART": 0, "NREBOOT": 0, "NMIN": 0, "EREF": 0.0, "ISMEAR": 0, "SIGMA": 0.05, "KSPACING": 0.5, "KGAMMA": true, "KBLOWUP": true, "LREAL": true, "ROPT": [-0.00025, -0.00025, -0.00025], "LMAXPAW": -100, "LMAXMIX": 2, "NLSPLINE": false, "ISTART": 0, "ICHARG": 2, "INIWAV": 1, "ISPIN": 1, "LNONCOLLINEAR": false, "MAGMOM": [0.6, 0.6, 0.6, 0.6, 0.6, 0.6, 0.6, 0.6, 0.6, 0.6, 0.6, 0.6, 0.6, 0.6, 0.6, 0.6, 0.6, 0.6, 0.6, 0.6, 0.6, 0.6, 0.6, 0.6, 0.6, 0.6, 0.6, 0.6, 0.6, 0.6, 0.6, 0.6, 0.6, 0.6, 0.6, 0.6, 0.6, 0.6, 0.6, 0.6, 0.6, 0.6, 0.6, 0.6, 0.6, 0.6, 0.6, 0.6, 0.6, 0.6, 0.6, 0.6, 0.6, 0.6, 0.6, 0.6, 0.6, 0.6, 0.6, 0.6, 0.6, 0.6, 0.6, 0.6, 0.6, 0.6, 0.6, 0.6, 0.6, 0.6, 0.6, 0.6, 0.6, 0.6, 0.6, 0.6, 0.6, 0.6, 0.6, 0.6], "NUPDOWN": -1.0, "LSORBIT": false, "SAXIS": [0.0, 0.0, 1.0], "LSPIRAL": false, "QSPIRAL": [0.0, 0.0, 0.0], "LZEROZ": false, "LASPH": false, "LMETAGGA": false, "NELM": 100, "NELMDL": -5, "NELMIN": 6, "ENINI": 520.0, "LDIAG": true, "LSUBROT": false, "WEIMIN": 0.001, "EBREAK": 1e-08, "DEPER": 0.3, "NRMM": 4, "TIME": 0.4, "AMIX": 0.4, "BMIX": 1.0, "AMIN": 0.1, "AMIX_MAG": 1.6, "BMIX_MAG": 1.0, "IMIX": 4, "MIXFIRST": false, "MAXMIX": -45, "WC": 100.0, "INIMIX": 1, "MIXPRE": 1, "MREMOVE": 5, "LDIPOL": false, "LMONO": false, "IDIPOL": 0, "EPSILON": 1.0, "DIPOL": [-100.0, -100.0, -100.0], "EFIELD": 0.0, "NGX": 54, "NGY": 80, "NGZ": 378, "NGXF": 108, "NGYF": 160, "NGZF": 756, "ADDGRID": false, "NSW": 150, "IBRION": 2, "MDALGO": 0, "ISIF": 2, "PSTRESS": 0.0, "EDIFFG": -0.01, "NFREE": 1, "POTIM": 0.5, "SMASS": -3.0, "SCALEE": 1.0, "TEBEG": 0.0001, "TEEND": 0.0001, "NBLOCK": 1, "KBLOCK": 150, "NPACO": 256, "APACO": 10.0, "ISYM": 0, "SYMPREC": 1e-05, "LORBIT": 11, "RWIGS": [-1.0, -1.0, -1.0], "NEDOS": 301, "EMIN": 10.0, "EMAX": -10.0, "EFERMI": 0.0, "NWRITE": 2, "LWAVE": false, "LDOWNSAMPLE": false, "LCHARG": false, "LPARD": false, "LVTOT": false, "LVHAR": false, "LELF": false, "LOPTICS": false, "STM": [0.0, 0.0, 0.0, 0.0, 0.0, 0.0, 0.0], "NPAR": 1, "NSIM": 4, "NBLK": -1, "LPLANE": true, "LSCALAPACK": true, "LSCAAWARE": false, "LSCALU": false, "LASYNC": false, "LORBITALREAL": false, "IDIOT": 3, "PHON_NSTRUCT": -1, "LMUSIC": false, "POMASS": [22.99, 30.974, 32.066], "DARWINR": [0.0, 0.0, 0.0], "DARWINV": [1.0, 1.0, 1.0], "LCORR": true, "GGA_COMPAT": true, "LBERRY": false, "ICORELEVEL": 0, "LDAU": false, "I_CONSTRAINED_M": 0, "GGA": "--", "VOSKOWN": 0, "LHFCALC": false, "PRECFOCK": "", "LSYMGRAD": false, "LHFONE": false, "LRHFCALC": false, "LTHOMAS": false, "LMODELHF": false, "LFOCKACE": false, "ENCUT4O": -1.0, "EXXOEP": 0, "FOURORBIT": 0, "AEXX": 0.0, "HFALPHA": 0.0, "MCALPHA": 0.0, "ALDAX": 1.0, "AGGAX": 1.0, "ALDAC": 1.0, "AGGAC": 1.0, "NKREDX": 1, "NKREDY": 1, "NKREDZ": 1, "SHIFTRED": false, "ODDONLY": false, "EVENONLY": false, "LMAXFOCK": 0, "NMAXFOCKAE": 0, "LFOCKAEDFT": false, "HFSCREEN": 0.0, "HFSCREENC": 0.0, "NBANDSGWLOW": 0, "LUSE_VDW": false, "Zab_VDW": -0.8491, "PARAM1": 0.1234, "PARAM2": 1.0, "PARAM3": 0.0, "MODEL_GW": 0, "MODEL_EPS0": 26.27374734, "MODEL_ALPHA": 1.0, "LEPSILON": false, "LRPA": false, "LNABLA": false, "LVEL": false, "CSHIFT": 0.1, "OMEGAMAX": -1.0, "DEG_THRESHOLD": 0.002, "RTIME": -0.1, "WPLASMAI": 0.0, "DFIELD": [0.0, 0.0, 0.0], "WPLASMA": [0.0, 0.0, 0.0, 0.0, 0.0, 0.0, 0.0, 0.0, 0.0], "NUCIND": false, "MAGPOS": [0.0, 0.0, 0.0], "LNICSALL": true, "ORBITALMAG": false, "LMAGBLOCH": false, "LCHIMAG": false, "LGAUGE": true, "MAGATOM": 0, "MAGDIPOL": [0.0, 0.0, 0.0], "AVECCONST": [0.0, 0.0, 0.0], "LFINITE_TEMPERATURE": false, "LADDER": false, "LRPAFORCE": false, "LFXC": false, "LHARTREE": true, "IBSE": 0, "KPOINT": [-1, 0, 0, 0], "LTCTC": false, "LTCTE": false, "LTETE": false, "LTRIPLET": false, "LFXCEPS": false, "LFXHEG": false, "NATURALO": 2, "LHOLEGF": false, "L2ORDER": false, "LDMP1": false, "LMP2LT": false, "LSMP2LT": false, "LGWLF": false, "ENCUTGW": -2.0, "ENCUTGWSOFT": -2.0, "ENCUTLF": -1.0, "LESF_SPLINES": false, "LMAXMP2": -1, "SCISSOR": 0.0, "NOMEGA": 0, "NOMEGAR": 0, "NBANDSGW": -1, "NBANDSO": -1, "NBANDSV": -1, "NELMGW": 1, "NELMHF": 1, "DIM": 3, "IESPILON": 4, "ANTIRES": 0, "OMEGAMIN": -30.0, "OMEGATL": -200.0, "OMEGAGRID": 0, "LSELFENERGY": false, "LSPECTRAL": false, "LSPECTRALGW": false, "LSINGLES": false, "LFERMIGW": false, "ODDONLYGW": false, "EVENONLYGW": false, "NKREDLFX": 1, "NKREDLFY": 1, "NKREDLFZ": 1, "MAXMEM": 2800, "TELESCOPE": 0, "NTAUPAR": -1, "NOMEGAPAR": -1, "DAMP_NEWTON": 0.80000001, "LAMBDA": 1.0, "OFIELD_KAPPA": 0.0, "OFIELD_K": [0.0, 0.0, 0.0], "OFIELD_Q6_NEAR": 0.0, "OFIELD_Q6_FAR": 0.0, "OFIELD_A": 0.0, "KPOINTS_OPT_MODE": 1, "LKPOINTS_OPT": false, "@module": "pymatgen.io.vasp.inputs", "@class": "Incar"}, "relaxed_structures": {"@module": "pymatgen.core.structure", "@class": "Structure", "charge": 0, "lattice": {"matrix": [[7.049423, 0.0, 0.0], [0.0, 9.96939, 0.0], [0.0, 0.0, 49.846951]], "a": 7.049423, "b": 9.96939, "c": 49.846951, "alpha": 90.0, "beta": 90.0, "gamma": 90.0, "volume": 3503.166312038808}, "sites": [{"species": [{"element": "Na", "occu": 1}], "abc": [0.48092048, 0.42787037, 0.05033809], "xyz": [3.39021189288304, 4.2656065879743, 2.50920030566359], "label": "Na", "properties": {}}, {"species": [{"element": "Na", "occu": 1}], "abc": [0.01163323, 0.86754323, 0.027623660000000008], "xyz": [0.08200755912629, 8.6488768017297, 1.3769552264606604], "label": "Na", "properties": {}}, {"species": [{"element": "Na", "occu": 1}], "abc": [0.50637604, 0.17937646, 0.0019557600000000078], "xyz": [3.56965890302492, 1.7882738865594, 0.09748867288776038], "label": "Na", "properties": {}}, {"species": [{"element": "Na", "occu": 1}], "abc": [0.49702382, 0.63034332, 0.00010000000000000286], "xyz": [3.50373114825586, 6.2841383909748005, 0.004984695100000143], "label": "Na", "properties": {}}, {"species": [{"element": "Na", "occu": 1}], "abc": [0.50012094, 0.94175963, 0.15088197000000003], "xyz": [3.5255640572176197, 9.3887690377257, 7.521006165373471], "label": "Na", "properties": {}}, {"species": [{"element": "Na", "occu": 1}], "abc": [0.0149591, 0.12393679, 0.07848406000000001], "xyz": [0.10545302359929999, 1.2355741948581, 3.91219109310106], "label": "Na", "properties": {}}, {"species": [{"element": "Na", "occu": 1}], "abc": [0.99998326, 0.67015739, 0.08450692], "xyz": [7.04930499265898, 6.6810603822921, 4.21241230040092], "label": "Na", "properties": {}}, {"species": [{"element": "Na", "occu": 1}], "abc": [0.99430924, 0.3765657, 0.12919341], "xyz": [7.00930642556852, 3.7541303239230004, 6.43989757779291], "label": "Na", "properties": {}}, {"species": [{"element": "Na", "occu": 1}], "abc": [0.49673846, 0.69968829, 0.09924788], "xyz": [3.5017195249085797, 6.9754654414431005, 4.947204211213879], "label": "Na", "properties": {}}, {"species": [{"element": "Na", "occu": 1}], "abc": [0.5150457, 0.13406717, 0.09402781], "xyz": [3.6307750036311, 1.3365679039263003, 4.68699963770731], "label": "Na", "properties": {}}, {"species": [{"element": "Na", "occu": 1}], "abc": [0.49926777, 0.44812018, 0.25160330000000003], "xyz": [3.51954970099671, 4.4674848412902, 12.5416573665383], "label": "Na", "properties": {}}, {"species": [{"element": "Na", "occu": 1}], "abc": [0.99974503, 0.62240066, 0.18169075], "xyz": [7.0476256086176905, 6.204954915797401, 9.05672991240325], "label": "Na", "properties": {}}, {"species": [{"element": "Na", "occu": 1}], "abc": [0.00256061, 0.17853618, 0.18736246], "xyz": [0.01805082302803, 1.7798968075302, 9.33944736285946], "label": "Na", "properties": {}}, {"species": [{"element": "Na", "occu": 1}], "abc": [0.99899862, 0.88288172, 0.23126467], "xyz": [7.04236384879626, 8.8017921905508, 11.52783867352117], "label": "Na", "properties": {}}, {"species": [{"element": "Na", "occu": 1}], "abc": [0.50076084, 0.20298909, 0.19982585000000003], "xyz": [3.5300749829953197, 2.0236774039551, 9.96070935348335], "label": "Na", "properties": {}}, {"species": [{"element": "Na", "occu": 1}], "abc": [0.5001958, 0.64701354, 0.19388466999999998], "xyz": [3.5260917770234, 6.4503303155406, 9.664559645141168], "label": "Na", "properties": {}}, {"species": [{"element": "Na", "occu": 1}], "abc": [0.49620936, 0.9534423, 0.35375291000000003], "xyz": [3.49798967519928, 9.505238131197, 17.63350397087741], "label": "Na", "properties": {}}, {"species": [{"element": "Na", "occu": 1}], "abc": [0.00078424, 0.1280176, 0.28314442], "xyz": [0.00552843949352, 1.2762573812640001, 14.11388602966342], "label": "Na", "properties": {}}, {"species": [{"element": "Na", "occu": 1}], "abc": [0.00189461, 0.68408302, 0.28885045000000004], "xyz": [0.01335590731003, 6.8198904187578, 14.39831422747795], "label": "Na", "properties": {}}, {"species": [{"element": "Na", "occu": 1}], "abc": [0.00116134, 0.38974929, 0.33192376], "xyz": [0.00818677690682, 3.8855626742331006, 16.54538740045576], "label": "Na", "properties": {}}, {"species": [{"element": "Na", "occu": 1}], "abc": [0.50115101, 0.70820664, 0.30117763000000003], "xyz": [3.5328254563672297, 7.0603881947496, 15.012786564906131], "label": "Na", "properties": {}}, {"species": [{"element": "Na", "occu": 1}], "abc": [0.50247927, 0.15169892, 0.29559344000000004], "xyz": [3.54218892296121, 1.5123456960588, 14.73443171960144], "label": "Na", "properties": {}}, {"species": [{"element": "Na", "occu": 1}], "abc": [0.51322248, 0.4624669, 0.45526706], "xyz": [3.6179223546290404, 4.610512888191001, 22.693674831734057], "label": "Na", "properties": {}}, {"species": [{"element": "Na", "occu": 1}], "abc": [0.9982455, 0.63099232, 0.38366508], "xyz": [7.0370547873465, 6.290608525084801, 19.12453444317108], "label": "Na", "properties": {}}, {"species": [{"element": "Na", "occu": 1}], "abc": [0.01439485, 0.19668583, 0.38859383000000003], "xyz": [0.10147538667155001, 1.9608377467437001, 19.37021760291233], "label": "Na", "properties": {}}, {"species": [{"element": "Na", "occu": 1}], "abc": [0.98362674, 0.9032832, 0.43248697], "xyz": [6.9340009643710205, 9.005182501248001, 21.55815680172847], "label": "Na", "properties": {}}, {"species": [{"element": "Na", "occu": 1}], "abc": [0.51556089, 0.20651622, 0.40434909], "xyz": [3.6344067958664703, 2.0588407385058, 20.15556927612459], "label": "Na", "properties": {}}, {"species": [{"element": "Na", "occu": 1}], "abc": [0.50148954, 0.65943245, 0.39838601], "xyz": [3.53521189753542, 6.5741392727055, 19.85832791955551], "label": "Na", "properties": {}}, {"species": [{"element": "Na", "occu": 1}], "abc": [0.00858031, 0.15048898, 0.48093168999999997], "xyz": [0.060486234661130005, 1.5002833323222, 23.972978385777186], "label": "Na", "properties": {}}, {"species": [{"element": "Na", "occu": 1}], "abc": [0.99884445, 0.69973031, 0.48269829000000003], "xyz": [7.04127703925235, 6.9758843552109004, 24.06103800941379], "label": "Na", "properties": {}}, {"species": [{"element": "P", "occu": 1}], "abc": [0.98111915, 0.40775997, 0.03323882], "xyz": [6.9163239017504505, 4.065118167318301, 1.65685383183782], "label": "P", "properties": {}}, {"species": [{"element": "P", "occu": 1}], "abc": [0.5067659, 0.89925258, 0.04056955000000001], "xyz": [3.5724071910757, 8.9649996785262, 2.0222683709420504], "label": "P", "properties": {}}, {"species": [{"element": "P", "occu": 1}], "abc": [0.00206558, 0.91232597, 0.1394839], "xyz": [0.01456114716034, 9.095333402058301, 6.952847128588899], "label": "P", "properties": {}}, {"species": [{"element": "P", "occu": 1}], "abc": [0.4989606, 0.40574177, 0.14062037], "xyz": [3.5173843297337997, 4.044997944420301, 7.00949669299187], "label": "P", "properties": {}}, {"species": [{"element": "P", "occu": 1}], "abc": [0.00082705, 0.417895, 0.24075238000000004], "xyz": [0.00583022529215, 4.16615823405, 12.000772088993381], "label": "P", "properties": {}}, {"species": [{"element": "P", "occu": 1}], "abc": [0.50062277, 0.91304701, 0.24212672000000002], "xyz": [3.52910166916171, 9.1025217310239, 12.06927874763072], "label": "P", "properties": {}}, {"species": [{"element": "P", "occu": 1}], "abc": [0.00068771, 0.9241447, 0.34223515000000004], "xyz": [0.0048479586913300005, 9.213158930733002, 17.05937875252765], "label": "P", "properties": {}}, {"species": [{"element": "P", "occu": 1}], "abc": [0.50334077, 0.41814684, 0.3434205], "xyz": [3.54826200087571, 4.168668925227601, 17.1184648358955], "label": "P", "properties": {}}, {"species": [{"element": "P", "occu": 1}], "abc": [0.00812547, 0.43065626, 0.44227619], "xyz": [0.057279875103809996, 4.2933802118814, 22.04611957139669], "label": "P", "properties": {}}, {"species": [{"element": "P", "occu": 1}], "abc": [0.48377831, 0.92230874, 0.44956387000000003], "xyz": [3.41035794541513, 9.194855529468601, 22.40938819926037], "label": "P", "properties": {}}, {"species": [{"element": "S", "occu": 1}], "abc": [0.76572462, 0.40709412, 0.004564530000000004], "xyz": [5.39791674789426, 4.058480048986801, 0.22752790324803018], "label": "S", "properties": {}}, {"species": [{"element": "S", "occu": 1}], "abc": [0.1461236, 0.57944617, 0.030749280000000004], "xyz": [1.0300870666828, 5.7767248527363, 1.5327578534452801], "label": "S", "properties": {}}, {"species": [{"element": "S", "occu": 1}], "abc": [0.15899838, 0.2452168, 0.02954171], "xyz": [1.12084683693474, 2.4446619137520003, 1.4725641708262098], "label": "S", "properties": {}}, {"species": [{"element": "S", "occu": 1}], "abc": [0.38499952, 0.90086379, 0.002737750000000004], "xyz": [2.71402447127696, 8.9810624593881, 0.1364684901002502], "label": "S", "properties": {}}, {"species": [{"element": "S", "occu": 1}], "abc": [0.69030701, 0.05915368, 0.04316966], "xyz": [4.8662661133552305, 0.5897261058552, 2.15187592670666], "label": "S", "properties": {}}, {"species": [{"element": "S", "occu": 1}], "abc": [0.66049275, 0.72536419, 0.046116660000000004], "xyz": [4.65609278318325, 7.2314385021441, 2.29877489130366], "label": "S", "properties": {}}, {"species": [{"element": "S", "occu": 1}], "abc": [0.80946846, 0.90636458, 0.10833308000000001], "xyz": [5.706285579698579, 9.0359019802062, 5.400073730439081], "label": "S", "properties": {}}, {"species": [{"element": "S", "occu": 1}], "abc": [0.15928928, 0.08661374, 0.13651643000000002], "xyz": [1.12289751408544, 0.8634861534186, 6.804927796904931], "label": "S", "properties": {}}, {"species": [{"element": "S", "occu": 1}], "abc": [0.85537972, 0.40070813, 0.07108681], "xyz": [6.029933471901559, 3.9948156241407, 3.5434607348163096], "label": "S", "properties": {}}, {"species": [{"element": "S", "occu": 1}], "abc": [0.18152531, 0.74868244, 0.13743141000000003], "xyz": [1.27964869539613, 7.4639072305116, 6.850536760130911], "label": "S", "properties": {}}, {"species": [{"element": "S", "occu": 1}], "abc": [0.35183428, 0.40752065, 0.10463918000000001], "xyz": [2.48022866562044, 4.0627322929035, 5.21594407814018], "label": "S", "properties": {}}, {"species": [{"element": "S", "occu": 1}], "abc": [0.68006498, 0.56829082, 0.14214738999999998], "xyz": [4.794065711506541, 5.6655128179998, 7.085613984107889], "label": "S", "properties": {}}, {"species": [{"element": "S", "occu": 1}], "abc": [0.29975486, 0.91068118, 0.06998123], "xyz": [2.11309880444578, 9.078935849080201, 3.48835094272973], "label": "S", "properties": {}}, {"species": [{"element": "S", "occu": 1}], "abc": [0.6574824, 0.23213278, 0.14406462000000003], "xyz": [4.6348715526552, 2.3142222156042003, 7.181182053973621], "label": "S", "properties": {}}, {"species": [{"element": "S", "occu": 1}], "abc": [0.80565213, 0.41082023, 0.20971749], "xyz": [5.67938265522099, 4.095627092759701, 10.453777447872989], "label": "S", "properties": {}}, {"species": [{"element": "S", "occu": 1}], "abc": [0.15710464, 0.59255977, 0.23761955], "xyz": [1.1074970626227199, 5.907459445440301, 11.84461006549205], "label": "S", "properties": {}}, {"species": [{"element": "S", "occu": 1}], "abc": [0.85761611, 0.90687552, 0.17565646000000001], "xyz": [6.0456987310045305, 9.040995740332802, 8.75593895445346], "label": "S", "properties": {}}, {"species": [{"element": "S", "occu": 1}], "abc": [0.18143412, 0.2552264, 0.23872824000000004], "xyz": [1.27900585851276, 2.5444515198960005, 11.899874881596242], "label": "S", "properties": {}}, {"species": [{"element": "S", "occu": 1}], "abc": [0.35639284, 0.91833256, 0.20602283], "xyz": [2.5123638833313198, 9.1552154403384, 10.26960991189133], "label": "S", "properties": {}}, {"species": [{"element": "S", "occu": 1}], "abc": [0.68132046, 0.07566165, 0.24420993000000002], "xyz": [4.80291612109458, 0.7543004968935, 12.17312041442343], "label": "S", "properties": {}}, {"species": [{"element": "S", "occu": 1}], "abc": [0.30523836, 0.41422944, 0.17172168999999998], "xyz": [2.1517543154662797, 4.129614836841601, 8.559802667067189], "label": "S", "properties": {}}, {"species": [{"element": "S", "occu": 1}], "abc": [0.65691038, 0.73835742, 0.24513635], "xyz": [4.63083914171074, 7.360973079373801, 12.21929962676885], "label": "S", "properties": {}}, {"species": [{"element": "S", "occu": 1}], "abc": [0.8065608, 0.91571706, 0.311165], "xyz": [5.6857882544184, 9.129140500793401, 15.510626507915001], "label": "S", "properties": {}}, {"species": [{"element": "S", "occu": 1}], "abc": [0.15898288, 0.09786666, 0.33877986000000004], "xyz": [1.1207375708782399, 0.9756709015374, 16.88714308120686], "label": "S", "properties": {}}, {"species": [{"element": "S", "occu": 1}], "abc": [0.85663421, 0.41305285, 0.27686119000000003], "xyz": [6.03877690256083, 4.117884952261501, 13.80068617173169], "label": "S", "properties": {}}, {"species": [{"element": "S", "occu": 1}], "abc": [0.18185555, 0.76167519, 0.34069757], "xyz": [1.28197669684765, 7.5934370224341, 16.982735077609068], "label": "S", "properties": {}}, {"species": [{"element": "S", "occu": 1}], "abc": [0.35893906, 0.42356637, 0.30724778], "xyz": [2.5303132651623796, 4.222698333414301, 15.31536503451878], "label": "S", "properties": {}}, {"species": [{"element": "S", "occu": 1}], "abc": [0.68267846, 0.58181388, 0.34545473000000004], "xyz": [4.81248923752858, 5.8003294771332, 17.219864999028232], "label": "S", "properties": {}}, {"species": [{"element": "S", "occu": 1}], "abc": [0.30560985, 0.91981826, 0.27318285000000003], "xyz": [2.1543731056165503, 9.170026963061401, 13.617332137990351], "label": "S", "properties": {}}, {"species": [{"element": "S", "occu": 1}], "abc": [0.66099753, 0.24395353, 0.34633494000000004], "xyz": [4.6596511909251905, 2.4320678824467, 17.26374078376794], "label": "S", "properties": {}}, {"species": [{"element": "S", "occu": 1}], "abc": [0.80051364, 0.42007853, 0.41293208000000003], "xyz": [5.64315926562972, 4.1879266961967, 20.58340515808808], "label": "S", "properties": {}}, {"species": [{"element": "S", "occu": 1}], "abc": [0.16283105, 0.60419553, 0.43678008], "xyz": [1.14786494898415, 6.023460874826701, 21.77215524553608], "label": "S", "properties": {}}, {"species": [{"element": "S", "occu": 1}], "abc": [0.85390527, 0.92238873, 0.37823957], "xyz": [6.01953945015921, 9.1956529809747, 18.85408931205107], "label": "S", "properties": {}}, {"species": [{"element": "S", "occu": 1}], "abc": [0.19037618, 0.27012278, 0.43950467000000004], "xyz": [1.3420422219441401, 2.6929593417042, 21.90796774976117], "label": "S", "properties": {}}, {"species": [{"element": "S", "occu": 1}], "abc": [0.35782892, 0.92914802, 0.41172721], "xyz": [2.52248741871316, 9.263038979107801, 20.52334606223671], "label": "S", "properties": {}}, {"species": [{"element": "S", "occu": 1}], "abc": [0.66158826, 0.08487389, 0.45323576000000004], "xyz": [4.663815496573981, 0.8461409102271, 22.592420720167762], "label": "S", "properties": {}}, {"species": [{"element": "S", "occu": 1}], "abc": [0.31068092, 0.42396685, 0.37456894], "xyz": [2.19012122310916, 4.2266908747215, 18.67111959830194], "label": "S", "properties": {}}, {"species": [{"element": "S", "occu": 1}], "abc": [0.64881157, 0.75066961, 0.4520168], "xyz": [4.57374720422411, 7.4837181032379005, 22.531659280776797], "label": "S", "properties": {}}, {"species": [{"element": "S", "occu": 1}], "abc": [0.88704914, 0.42893994, 0.480146], "xyz": [6.25318460964622, 4.2762695484366, 23.933814134846], "label": "S", "properties": {}}, {"species": [{"element": "S", "occu": 1}], "abc": [0.26846567, 0.92304373, 0.47825572], "xyz": [1.8925280688084098, 9.2021829314247, 23.83958944030972], "label": "S", "properties": {}}]}, "formula": "", "bandgap": 2.3712, "slab_thickness": 24.05605331431379}