{"miller": "310_0.14", "final_energy": -587.01886269, "gamma": 0.015239312911807235, "work_function": 4.700650628955511, "ionization_potentail": -5.001850628955511, "electron_affinity": -2.794450628955511, "is_stochiometric": true, "incar_parameters": {"SYSTEM": "unknown system", "LCOMPAT": false, "PREC": "accura", "ENMAX": 520.0, "ENAUG": 368.056, "EDIFF": 1e-05, "IALGO": 38, "IWAVPR": 11, "NBANDS": 540, "NBANDSLOW": -1, "NBANDSHIGH": -1, "NELECT": 900.0, "TURBO": 0, "IRESTART": 0, "NREBOOT": 0, "NMIN": 0, "EREF": 0.0, "ISMEAR": 0, "SIGMA": 0.05, "KSPACING": 0.5, "KGAMMA": true, "KBLOWUP": true, "LREAL": true, "ROPT": [-0.00025, -0.00025, -0.00025], "LMAXPAW": -100, "LMAXMIX": 2, "NLSPLINE": false, "ISTART": 0, "ICHARG": 2, "INIWAV": 1, "ISPIN": 1, "LNONCOLLINEAR": false, "MAGMOM": [0.6, 0.6, 0.6, 0.6, 0.6, 0.6, 0.6, 0.6, 0.6, 0.6, 0.6, 0.6, 0.6, 0.6, 0.6, 0.6, 0.6, 0.6, 0.6, 0.6, 0.6, 0.6, 0.6, 0.6, 0.6, 0.6, 0.6, 0.6, 0.6, 0.6, 0.6, 0.6, 0.6, 0.6, 0.6, 0.6, 0.6, 0.6, 0.6, 0.6, 0.6, 0.6, 0.6, 0.6, 0.6, 0.6, 0.6, 0.6, 0.6, 0.6, 0.6, 0.6, 0.6, 0.6, 0.6, 0.6, 0.6, 0.6, 0.6, 0.6, 0.6, 0.6, 0.6, 0.6, 0.6, 0.6, 0.6, 0.6, 0.6, 0.6, 0.6, 0.6, 0.6, 0.6, 0.6, 0.6, 0.6, 0.6, 0.6, 0.6, 0.6, 0.6, 0.6, 0.6, 0.6, 0.6, 0.6, 0.6, 0.6, 0.6, 0.6, 0.6, 0.6, 0.6, 0.6, 0.6, 0.6, 0.6, 0.6, 0.6, 0.6, 0.6, 0.6, 0.6, 0.6, 0.6, 0.6, 0.6, 0.6, 0.6, 0.6, 0.6, 0.6, 0.6, 0.6, 0.6, 0.6, 0.6, 0.6, 0.6, 0.6, 0.6, 0.6, 0.6, 0.6, 0.6, 0.6, 0.6, 0.6, 0.6, 0.6, 0.6, 0.6, 0.6, 0.6, 0.6, 0.6, 0.6, 0.6, 0.6, 0.6, 0.6, 0.6, 0.6], "NUPDOWN": -1.0, "LSORBIT": false, "SAXIS": [0.0, 0.0, 1.0], "LSPIRAL": false, "QSPIRAL": [0.0, 0.0, 0.0], "LZEROZ": false, "LASPH": false, "LMETAGGA": false, "NELM": 100, "NELMDL": -5, "NELMIN": 6, "ENINI": 520.0, "LDIAG": true, "LSUBROT": false, "WEIMIN": 0.001, "EBREAK": 0.0, "DEPER": 0.3, "NRMM": 4, "TIME": 0.4, "AMIX": 0.4, "BMIX": 1.0, "AMIN": 0.1, "AMIX_MAG": 1.6, "BMIX_MAG": 1.0, "IMIX": 4, "MIXFIRST": false, "MAXMIX": -45, "WC": 100.0, "INIMIX": 1, "MIXPRE": 1, "MREMOVE": 5, "LDIPOL": false, "LMONO": false, "IDIPOL": 0, "EPSILON": 1.0, "DIPOL": [-100.0, -100.0, -100.0], "EFIELD": 0.0, "NGX": 54, "NGY": 168, "NGZ": 350, "NGXF": 108, "NGYF": 336, "NGZF": 700, "ADDGRID": false, "NSW": 150, "IBRION": 2, "MDALGO": 0, "ISIF": 2, "PSTRESS": 0.0, "EDIFFG": -0.01, "NFREE": 1, "POTIM": 0.5, "SMASS": -3.0, "SCALEE": 1.0, "TEBEG": 0.0001, "TEEND": 0.0001, "NBLOCK": 1, "KBLOCK": 150, "NPACO": 256, "APACO": 10.0, "ISYM": 0, "SYMPREC": 1e-05, "LORBIT": 11, "RWIGS": [-1.0, -1.0, -1.0], "NEDOS": 301, "EMIN": 10.0, "EMAX": -10.0, "EFERMI": 0.0, "NWRITE": 2, "LWAVE": false, "LDOWNSAMPLE": false, "LCHARG": false, "LPARD": false, "LVTOT": false, "LVHAR": false, "LELF": false, "LOPTICS": false, "STM": [0.0, 0.0, 0.0, 0.0, 0.0, 0.0, 0.0], "NPAR": 1, "NSIM": 4, "NBLK": -1, "LPLANE": true, "LSCALAPACK": true, "LSCAAWARE": false, "LSCALU": false, "LASYNC": false, "LORBITALREAL": false, "IDIOT": 3, "PHON_NSTRUCT": -1, "LMUSIC": false, "POMASS": [22.99, 30.974, 32.066], "DARWINR": [0.0, 0.0, 0.0], "DARWINV": [1.0, 1.0, 1.0], "LCORR": true, "GGA_COMPAT": true, "LBERRY": false, "ICORELEVEL": 0, "LDAU": false, "I_CONSTRAINED_M": 0, "GGA": "--", "VOSKOWN": 0, "LHFCALC": false, "PRECFOCK": "", "LSYMGRAD": false, "LHFONE": false, "LRHFCALC": false, "LTHOMAS": false, "LMODELHF": false, "LFOCKACE": false, "ENCUT4O": -1.0, "EXXOEP": 0, "FOURORBIT": 0, "AEXX": 0.0, "HFALPHA": 0.0, "MCALPHA": 0.0, "ALDAX": 1.0, "AGGAX": 1.0, "ALDAC": 1.0, "AGGAC": 1.0, "NKREDX": 1, "NKREDY": 1, "NKREDZ": 1, "SHIFTRED": false, "ODDONLY": false, "EVENONLY": false, "LMAXFOCK": 0, "NMAXFOCKAE": 0, "LFOCKAEDFT": false, "HFSCREEN": 0.0, "HFSCREENC": 0.0, "NBANDSGWLOW": 0, "LUSE_VDW": false, "Zab_VDW": -0.8491, "PARAM1": 0.1234, "PARAM2": 1.0, "PARAM3": 0.0, "MODEL_GW": 0, "MODEL_EPS0": 30.65270508, "MODEL_ALPHA": 1.0, "LEPSILON": false, "LRPA": false, "LNABLA": false, "LVEL": false, "CSHIFT": 0.1, "OMEGAMAX": -1.0, "DEG_THRESHOLD": 0.002, "RTIME": -0.1, "WPLASMAI": 0.0, "DFIELD": [0.0, 0.0, 0.0], "WPLASMA": [0.0, 0.0, 0.0, 0.0, 0.0, 0.0, 0.0, 0.0, 0.0], "NUCIND": false, "MAGPOS": [0.0, 0.0, 0.0], "LNICSALL": true, "ORBITALMAG": false, "LMAGBLOCH": false, "LCHIMAG": false, "LGAUGE": true, "MAGATOM": 0, "MAGDIPOL": [0.0, 0.0, 0.0], "AVECCONST": [0.0, 0.0, 0.0], "LFINITE_TEMPERATURE": false, "LADDER": false, "LRPAFORCE": false, "LFXC": false, "LHARTREE": true, "IBSE": 0, "KPOINT": [-1, 0, 0, 0], "LTCTC": false, "LTCTE": false, "LTETE": false, "LTRIPLET": false, "LFXCEPS": false, "LFXHEG": false, "NATURALO": 2, "LHOLEGF": false, "L2ORDER": false, "LDMP1": false, "LMP2LT": false, "LSMP2LT": false, "LGWLF": false, "ENCUTGW": -2.0, "ENCUTGWSOFT": -2.0, "ENCUTLF": -1.0, "LESF_SPLINES": false, "LMAXMP2": -1, "SCISSOR": 0.0, "NOMEGA": 0, "NOMEGAR": 0, "NBANDSGW": -1, "NBANDSO": -1, "NBANDSV": -1, "NELMGW": 1, "NELMHF": 1, "DIM": 3, "IESPILON": 4, "ANTIRES": 0, "OMEGAMIN": -30.0, "OMEGATL": -200.0, "OMEGAGRID": 0, "LSELFENERGY": false, "LSPECTRAL": false, "LSPECTRALGW": false, "LSINGLES": false, "LFERMIGW": false, "ODDONLYGW": false, "EVENONLYGW": false, "NKREDLFX": 1, "NKREDLFY": 1, "NKREDLFZ": 1, "MAXMEM": 2800, "TELESCOPE": 0, "NTAUPAR": -1, "NOMEGAPAR": -1, "DAMP_NEWTON": 0.80000001, "LAMBDA": 1.0, "OFIELD_KAPPA": 0.0, "OFIELD_K": [0.0, 0.0, 0.0], "OFIELD_Q6_NEAR": 0.0, "OFIELD_Q6_FAR": 0.0, "OFIELD_A": 0.0, "KPOINTS_OPT_MODE": 1, "LKPOINTS_OPT": false, "@module": "pymatgen.io.vasp.inputs", "@class": "Incar"}, "relaxed_structures": {"@module": "pymatgen.core.structure", "@class": "Structure", "charge": 0, "lattice": {"matrix": [[7.049423, 0.0, 0.0], [0.0, 22.292234, 0.0], [0.0, 0.0, 46.813691]], "a": 7.049423, "b": 22.292234, "c": 46.813691, "alpha": 90.0, "beta": 90.0, "gamma": 90.0, "volume": 7356.649220266484}, "sites": [{"species": [{"element": "Na", "occu": 1}], "abc": [0.51221738, 0.62954058, 0.02375199], "xyz": [3.6108369795717405, 14.033865921855721, 1.11191832049509], "label": "Na", "properties": {}}, {"species": [{"element": "Na", "occu": 1}], "abc": [0.49955109, 0.94256944, 0.08295944999999999], "xyz": [3.52154694352107, 21.01197851772896, 3.8836380578299496], "label": "Na", "properties": {}}, {"species": [{"element": "Na", "occu": 1}], "abc": [0.99096489, 0.27437363, 0.0695788], "xyz": [6.98573068775847, 6.11640116338942, 3.2572404433507995], "label": "Na", "properties": {}}, {"species": [{"element": "Na", "occu": 1}], "abc": [0.82954633, 0.97134035, 0.020826039999999997], "xyz": [5.84782297826759, 21.6533463758419, 0.9749438013136398], "label": "Na", "properties": {}}, {"species": [{"element": "Na", "occu": 1}], "abc": [0.99656098, 0.76117845, 0.06780042], "xyz": [7.02517989331454, 16.968368123157298, 3.17398791155022], "label": "Na", "properties": {}}, {"species": [{"element": "Na", "occu": 1}], "abc": [0.9997386, 0.44256023, 0.08293863000000001], "xyz": [7.0475802808278, 9.86565620625382, 3.8826633967833306], "label": "Na", "properties": {}}, {"species": [{"element": "Na", "occu": 1}], "abc": [0.01188337, 0.12955791, 0.023772469999999997], "xyz": [0.08377090179551, 2.88813524627094, 1.1128770648867699], "label": "Na", "properties": {}}, {"species": [{"element": "Na", "occu": 1}], "abc": [0.32974711, 0.47129124, 0.02080882], "xyz": [2.3245268614175303, 10.50613460423016, 0.9741376695546199], "label": "Na", "properties": {}}, {"species": [{"element": "Na", "occu": 1}], "abc": [0.49103064, 0.77441454, 0.06954532999999999], "xyz": [3.46148268732072, 17.26343013868236, 3.2556735891130293], "label": "Na", "properties": {}}, {"species": [{"element": "Na", "occu": 1}], "abc": [0.49641855, 0.26113487, 0.06787798], "xyz": [3.49946434399665, 5.821279627599581, 3.1776187814241803], "label": "Na", "properties": {}}, {"species": [{"element": "Na", "occu": 1}], "abc": [0.50925479, 0.52139767, 0.16580428], "xyz": [3.5899524294861695, 11.623118866694782, 7.7619103303974795], "label": "Na", "properties": {}}, {"species": [{"element": "Na", "occu": 1}], "abc": [0.50812513, 0.21501602, 0.14582386], "xyz": [3.5819889782999903, 4.79318743158868, 6.82655312246726], "label": "Na", "properties": {}}, {"species": [{"element": "Na", "occu": 1}], "abc": [0.51646237, 0.81370078, 0.22786383000000002], "xyz": [3.6407617097125096, 18.139208193742522, 10.66714692769653], "label": "Na", "properties": {}}, {"species": [{"element": "Na", "occu": 1}], "abc": [0.01477101, 0.58942628, 0.10852282999999999], "xyz": [0.10412709762722999, 13.13962855950952, 5.080354230065529], "label": "Na", "properties": {}}, {"species": [{"element": "Na", "occu": 1}], "abc": [0.0616181, 0.15477208, 0.20554762], "xyz": [0.4343720513563, 3.4502154240267204, 9.622442768465419], "label": "Na", "properties": {}}, {"species": [{"element": "Na", "occu": 1}], "abc": [0.92117306, 0.86658082, 0.15639367999999998], "xyz": [6.49373855614438, 19.31802241935188, 7.321365409872879], "label": "Na", "properties": {}}, {"species": [{"element": "Na", "occu": 1}], "abc": [0.93016131, 0.36334499, 0.15446972], "xyz": [6.55710053242413, 8.09977153980766, 7.23129774093652], "label": "Na", "properties": {}}, {"species": [{"element": "Na", "occu": 1}], "abc": [0.01348479, 0.07417444, 0.09277467], "xyz": [0.09505998877617, 1.6535139732989599, 4.34312473400697], "label": "Na", "properties": {}}, {"species": [{"element": "Na", "occu": 1}], "abc": [0.05116604, 0.65670204, 0.21452245], "xyz": [0.36069105919492, 14.63935554395736, 10.04258768686295], "label": "Na", "properties": {}}, {"species": [{"element": "Na", "occu": 1}], "abc": [0.01646741, 0.31366729, 0.22788456999999998], "xyz": [0.11608573880442999, 6.99234462682586, 10.668117843647869], "label": "Na", "properties": {}}, {"species": [{"element": "Na", "occu": 1}], "abc": [0.00901467, 0.02134307, 0.16586798], "xyz": [0.06354822203541001, 0.47578471071837997, 7.764892362514179], "label": "Na", "properties": {}}, {"species": [{"element": "Na", "occu": 1}], "abc": [0.00810767, 0.71513997, 0.14573656999999998], "xyz": [0.05715439537441001, 15.94206755399298, 6.822466755379869], "label": "Na", "properties": {}}, {"species": [{"element": "Na", "occu": 1}], "abc": [0.42131207, 0.36656676, 0.15639134999999998], "xyz": [2.9700069964356097, 8.17159199054184, 7.321256333972849], "label": "Na", "properties": {}}, {"species": [{"element": "Na", "occu": 1}], "abc": [0.51429701, 0.08944031, 0.10855977], "xyz": [3.62549717112523, 1.99382431955254, 5.082083527811069], "label": "Na", "properties": {}}, {"species": [{"element": "Na", "occu": 1}], "abc": [0.5623331, 0.6548496, 0.20551630999999998], "xyz": [3.9641238888013004, 14.5980605180064, 9.620977031800209], "label": "Na", "properties": {}}, {"species": [{"element": "Na", "occu": 1}], "abc": [0.51380274, 0.57419335, 0.09275312], "xyz": [3.62201285281902, 12.800052519443902, 4.342115898965919], "label": "Na", "properties": {}}, {"species": [{"element": "Na", "occu": 1}], "abc": [0.55037966, 0.15663189, 0.21461844], "xyz": [3.8798590339361803, 3.49167474374226, 10.047081333062039], "label": "Na", "properties": {}}, {"species": [{"element": "Na", "occu": 1}], "abc": [0.43003005, 0.86335188, 0.15448002], "xyz": [3.03146372516115, 19.24604213329992, 7.2317799219538195], "label": "Na", "properties": {}}, {"species": [{"element": "Na", "occu": 1}], "abc": [0.50900625, 0.41341677, 0.30903241000000004], "xyz": [3.58820036589375, 9.21598337636418, 14.46694775072531], "label": "Na", "properties": {}}, {"species": [{"element": "Na", "occu": 1}], "abc": [0.5097525, 0.10743791, 0.28892845], "xyz": [3.5934609978075005, 2.39503103019094, 13.52580717940895], "label": "Na", "properties": {}}, {"species": [{"element": "Na", "occu": 1}], "abc": [0.50242669, 0.68540669, 0.37228862], "xyz": [3.5418182642998697, 15.27924631864546, 17.42820441949642], "label": "Na", "properties": {}}, {"species": [{"element": "Na", "occu": 1}], "abc": [0.05594077, 0.47327159, 0.24957765], "xyz": [0.39435015067571, 10.55028102983206, 11.68365098760615], "label": "Na", "properties": {}}, {"species": [{"element": "Na", "occu": 1}], "abc": [0.01930118, 0.03872821, 0.34638691000000005], "xyz": [0.13606218221914002, 0.86333831972114, 16.21564977118481], "label": "Na", "properties": {}}, {"species": [{"element": "Na", "occu": 1}], "abc": [0.92051573, 0.76215653, 0.29886402], "xyz": [6.48910475892379, 16.990171711388022, 13.99092788329782], "label": "Na", "properties": {}}, {"species": [{"element": "Na", "occu": 1}], "abc": [0.92912871, 0.26427984, 0.30112787], "xyz": [6.549821298234329, 5.89138803476256, 14.09690705766817], "label": "Na", "properties": {}}, {"species": [{"element": "Na", "occu": 1}], "abc": [0.04555869, 0.97187459, 0.23991388], "xyz": [0.32116247713587, 21.66525577893406, 11.23125424493108], "label": "Na", "properties": {}}, {"species": [{"element": "Na", "occu": 1}], "abc": [0.01779289, 0.55361417, 0.3618929], "xyz": [0.12542960800247, 12.341296623355781, 16.9415423956939], "label": "Na", "properties": {}}, {"species": [{"element": "Na", "occu": 1}], "abc": [0.00245899, 0.18549905, 0.37230451000000003], "xyz": [0.017334460662769998, 4.1351882293777, 17.42894828904641], "label": "Na", "properties": {}}, {"species": [{"element": "Na", "occu": 1}], "abc": [0.00894252, 0.91336113, 0.30909410000000004], "xyz": [0.06303960616596001, 20.36086003646442, 14.469835687323101], "label": "Na", "properties": {}}, {"species": [{"element": "Na", "occu": 1}], "abc": [0.00978854, 0.60740879, 0.28887319], "xyz": [0.06900355901242, 13.54049888033686, 13.52322025484429], "label": "Na", "properties": {}}, {"species": [{"element": "Na", "occu": 1}], "abc": [0.42053364, 0.26221159, 0.29887067], "xyz": [2.96451951408972, 5.84528212179206, 13.99123919434297], "label": "Na", "properties": {}}, {"species": [{"element": "Na", "occu": 1}], "abc": [0.55609844, 0.97325461, 0.24960796], "xyz": [3.92017313320012, 21.69601950769874, 11.68506991058036], "label": "Na", "properties": {}}, {"species": [{"element": "Na", "occu": 1}], "abc": [0.51927622, 0.53867403, 0.34636307], "xyz": [3.6605977286210596, 12.008247526483022, 16.21453373279137], "label": "Na", "properties": {}}, {"species": [{"element": "Na", "occu": 1}], "abc": [0.54535638, 0.47191019, 0.23983137000000002], "xyz": [3.8444478083687397, 10.51993238246446, 11.227391647286671], "label": "Na", "properties": {}}, {"species": [{"element": "Na", "occu": 1}], "abc": [0.51778075, 0.05362516, 0.36191738], "xyz": [3.65005552800725, 1.19542461500744, 16.94268839484958], "label": "Na", "properties": {}}, {"species": [{"element": "Na", "occu": 1}], "abc": [0.42915691, 0.76420481, 0.30109057], "xyz": [3.02530859196293, 17.03583244844554, 14.09516090699387], "label": "Na", "properties": {}}, {"species": [{"element": "Na", "occu": 1}], "abc": [0.51691017, 0.99854587, 0.43097381], "xyz": [3.6439184413319095, 22.25981819377358, 20.17547477043271], "label": "Na", "properties": {}}, {"species": [{"element": "Na", "occu": 1}], "abc": [0.98817319, 0.35443314, 0.38576178], "xyz": [6.96605081356937, 7.901106494234759, 18.058932768529978], "label": "Na", "properties": {}}, {"species": [{"element": "Na", "occu": 1}], "abc": [0.83303647, 0.65645327, 0.43425533], "xyz": [5.8724264514568105, 14.63380990490518, 20.32909483372303], "label": "Na", "properties": {}}, {"species": [{"element": "Na", "occu": 1}], "abc": [0.99547859, 0.86661506, 0.38694072], "xyz": [7.0175496683535705, 19.31878570544404, 18.11412330139752], "label": "Na", "properties": {}}, {"species": [{"element": "Na", "occu": 1}], "abc": [0.01685889, 0.49866233, 0.43098558000000003], "xyz": [0.11884544692047001, 11.11629734734522, 20.17602576757578], "label": "Na", "properties": {}}, {"species": [{"element": "Na", "occu": 1}], "abc": [0.33311359, 0.15644446, 0.43425272000000004], "xyz": [2.34825860295857, 3.4874965103236404, 20.32897264998952], "label": "Na", "properties": {}}, {"species": [{"element": "Na", "occu": 1}], "abc": [0.48786037, 0.8542967, 0.38573038000000004], "xyz": [3.43913411306651, 19.0441819418278, 18.05746281863258], "label": "Na", "properties": {}}, {"species": [{"element": "Na", "occu": 1}], "abc": [0.49567062, 0.36665692, 0.38696381], "xyz": [3.49419186905226, 8.17360185835928, 18.11520422952271], "label": "Na", "properties": {}}, {"species": [{"element": "P", "occu": 1}], "abc": [0.00110492, 0.62567537, 0.03361624], "xyz": [0.00778904846116, 13.94770175607658, 1.5737002719418398], "label": "P", "properties": {}}, {"species": [{"element": "P", "occu": 1}], "abc": [0.99724861, 0.91392641, 0.08126072000000001], "xyz": [7.03002728805203, 20.37346139049994, 3.8041142365175205], "label": "P", "properties": {}}, {"species": [{"element": "P", "occu": 1}], "abc": [0.49743123, 0.41393895, 0.08124503999999999], "xyz": [3.50660315368029, 9.2276239351143, 3.8033801978426394], "label": "P", "properties": {}}, {"species": [{"element": "P", "occu": 1}], "abc": [0.5007915, 0.12564723, 0.03364766], "xyz": [3.5302911183044996, 2.80095745261182, 1.57517115811306], "label": "P", "properties": {}}, {"species": [{"element": "P", "occu": 1}], "abc": [0.01085162, 0.51670045, 0.17670592999999998], "xyz": [0.07649765961525999, 11.5184073393053, 8.272256804887629], "label": "P", "properties": {}}, {"species": [{"element": "P", "occu": 1}], "abc": [0.00785483, 0.2122309, 0.1361607], "xyz": [0.05537201926309, 4.7311008848306, 6.3741849361437], "label": "P", "properties": {}}, {"species": [{"element": "P", "occu": 1}], "abc": [0.01936038, 0.814017, 0.22759473], "xyz": [0.13647950806074, 18.146257443978, 10.65454936344843], "label": "P", "properties": {}}, {"species": [{"element": "P", "occu": 1}], "abc": [0.51943189, 0.3140481, 0.22759898999999997], "xyz": [3.66169511229947, 7.0008337324554, 10.65474878977209], "label": "P", "properties": {}}, {"species": [{"element": "P", "occu": 1}], "abc": [0.5106142, 0.01668937, 0.17675617], "xyz": [3.5995354856066, 0.37204334135258, 8.27460872472347], "label": "P", "properties": {}}, {"species": [{"element": "P", "occu": 1}], "abc": [0.50785335, 0.71224908, 0.1361446], "xyz": [3.58007308611705, 15.87762315764472, 6.3734312357186], "label": "P", "properties": {}}, {"species": [{"element": "P", "occu": 1}], "abc": [0.00865098, 0.41553566, 0.31893101], "xyz": [0.06098441738454, 9.263218168064439, 14.93033775245791], "label": "P", "properties": {}}, {"species": [{"element": "P", "occu": 1}], "abc": [0.01121854, 0.1114781, 0.27829346000000005], "xyz": [0.07908423390242, 2.4850958910754, 13.027944043760861], "label": "P", "properties": {}}, {"species": [{"element": "P", "occu": 1}], "abc": [0.99966873, 0.71373509, 0.37384701000000004], "xyz": [7.04708773764279, 15.91074964029106, 17.50115840741391], "label": "P", "properties": {}}, {"species": [{"element": "P", "occu": 1}], "abc": [0.49972577, 0.21376796, 0.37386762], "xyz": [3.52277833673071, 4.765365386022641, 17.50212323758542], "label": "P", "properties": {}}, {"species": [{"element": "P", "occu": 1}], "abc": [0.50863825, 0.91549068, 0.31892665000000003], "xyz": [3.58560617822975, 20.40833246337912, 14.930133644765151], "label": "P", "properties": {}}, {"species": [{"element": "P", "occu": 1}], "abc": [0.51124761, 0.61147261, 0.27824846000000003], "xyz": [3.60400066062903, 13.63109050671074, 13.025837427665861], "label": "P", "properties": {}}, {"species": [{"element": "P", "occu": 1}], "abc": [0.00590033, 0.00195406, 0.42121928000000003], "xyz": [0.04159392200959, 0.04356036277004, 19.71882921716248], "label": "P", "properties": {}}, {"species": [{"element": "P", "occu": 1}], "abc": [0.50579054, 0.50203933, 0.42121973], "xyz": [3.5655314658584203, 11.191578221563221, 19.71885028332343], "label": "P", "properties": {}}, {"species": [{"element": "S", "occu": 1}], "abc": [0.86177835, 0.5906821, 0.00010000000000000286], "xyz": [6.07504012139205, 13.1676235928114, 0.004681369100000134], "label": "S", "properties": {}}, {"species": [{"element": "S", "occu": 1}], "abc": [0.81925366, 0.18838363, 0.10422117], "xyz": [5.77526559363818, 4.19949196172942, 4.87897764803847], "label": "S", "properties": {}}, {"species": [{"element": "S", "occu": 1}], "abc": [0.79960249, 0.87104411, 0.05462421], "xyz": [5.63673618386327, 19.417519124441743, 2.55716088805911], "label": "S", "properties": {}}, {"species": [{"element": "S", "occu": 1}], "abc": [0.1485989, 0.97386514, 0.05706415], "xyz": [1.0475365034347, 21.709629585322762, 2.67138348527765], "label": "S", "properties": {}}, {"species": [{"element": "S", "occu": 1}], "abc": [0.17351993, 0.69742565, 0.023121120000000002], "xyz": [1.22321538550039, 15.5471757874021, 1.08238496725392], "label": "S", "properties": {}}, {"species": [{"element": "S", "occu": 1}], "abc": [0.80467308, 0.65395681, 0.06488909000000001], "xyz": [5.67248091763284, 14.578158234413541, 3.0376978085311905], "label": "S", "properties": {}}, {"species": [{"element": "S", "occu": 1}], "abc": [0.17568894, 0.56088174, 0.05339316], "xyz": [1.23850565448162, 12.503306994407161, 2.49953089375356], "label": "S", "properties": {}}, {"species": [{"element": "S", "occu": 1}], "abc": [0.18033629, 0.85116832, 0.09893695999999999], "xyz": [1.27126679046067, 18.97444336282688, 4.6316042739193595], "label": "S", "properties": {}}, {"species": [{"element": "S", "occu": 1}], "abc": [0.29973786, 0.37104867, 0.054631179999999994], "xyz": [2.11297896425478, 8.27150377702878, 2.5574871794853795], "label": "S", "properties": {}}, {"species": [{"element": "S", "occu": 1}], "abc": [0.36133301, 0.09067803, 0.00013629999999999892], "xyz": [2.5471892313532303, 2.02141586341902, 0.006380706083299949], "label": "S", "properties": {}}, {"species": [{"element": "S", "occu": 1}], "abc": [0.31935373, 0.68839936, 0.10419087999999999], "xyz": [2.25125952939779, 15.345959618570241, 4.877559661338079], "label": "S", "properties": {}}, {"species": [{"element": "S", "occu": 1}], "abc": [0.64873191, 0.47384886, 0.05702929], "xyz": [4.5731856471879295, 10.56314966775324, 2.66975156000939], "label": "S", "properties": {}}, {"species": [{"element": "S", "occu": 1}], "abc": [0.67312345, 0.19740769, 0.023144779999999997], "xyz": [4.745131930269349, 4.40065841887946, 1.08349257918298], "label": "S", "properties": {}}, {"species": [{"element": "S", "occu": 1}], "abc": [0.30440665, 0.15389006, 0.06493218], "xyz": [2.14589123986295, 3.43055322779404, 3.0397150104763804], "label": "S", "properties": {}}, {"species": [{"element": "S", "occu": 1}], "abc": [0.68046463, 0.35118525, 0.09893111999999998], "xyz": [4.79688301340849, 7.8287037703485005, 4.631330881963919], "label": "S", "properties": {}}, {"species": [{"element": "S", "occu": 1}], "abc": [0.67531835, 0.06082807, 0.053417669999999993], "xyz": [4.76060470881205, 1.35599357020838, 2.5006782973199697], "label": "S", "properties": {}}, {"species": [{"element": "S", "occu": 1}], "abc": [0.85600293, 0.48609309, 0.1422018], "xyz": [6.03432674280939, 10.836100908063061, 6.656991124843799], "label": "S", "properties": {}}, {"species": [{"element": "S", "occu": 1}], "abc": [0.82954683, 0.08452751, 0.24571273000000002], "xyz": [5.84782650297909, 1.88430703235734, 11.502719816986431], "label": "S", "properties": {}}, {"species": [{"element": "S", "occu": 1}], "abc": [0.84807775, 0.77072461, 0.19826955999999998], "xyz": [5.978458796638249, 17.18117335567874, 9.28172991654596], "label": "S", "properties": {}}, {"species": [{"element": "S", "occu": 1}], "abc": [0.1785478, 0.28189713, 0.1216246], "xyz": [1.2586589679194, 6.28411678588842, 5.6936964423986], "label": "S", "properties": {}}, {"species": [{"element": "S", "occu": 1}], "abc": [0.18434252, 0.87655358, 0.20653341], "xyz": [1.29950840036596, 19.540337518897722, 9.66859123691631], "label": "S", "properties": {}}, {"species": [{"element": "S", "occu": 1}], "abc": [0.17394346, 0.5891066, 0.16511443], "xyz": [1.22620102762358, 13.132502178144401, 7.72961590566113], "label": "S", "properties": {}}, {"species": [{"element": "S", "occu": 1}], "abc": [0.86104181, 0.24128855, 0.17149782], "xyz": [6.06984793937563, 5.3788608181207, 8.02844595265362], "label": "S", "properties": {}}, {"species": [{"element": "S", "occu": 1}], "abc": [0.85047767, 0.95671671, 0.11345252], "xyz": [5.99537684788441, 21.327352771030142, 5.31113121445132], "label": "S", "properties": {}}, {"species": [{"element": "S", "occu": 1}], "abc": [0.82974309, 0.54401779, 0.20928618], "xyz": [5.84921002273707, 12.12737187484286, 9.797458561090378], "label": "S", "properties": {}}, {"species": [{"element": "S", "occu": 1}], "abc": [0.18338777, 0.44866403, 0.19201193], "xyz": [1.29277796375671, 10.00172354414302, 8.98878715933363], "label": "S", "properties": {}}, {"species": [{"element": "S", "occu": 1}], "abc": [0.17618953, 0.13948082, 0.14585892], "xyz": [1.2420345251411902, 3.1093390779518804, 6.82819441047372], "label": "S", "properties": {}}, {"species": [{"element": "S", "occu": 1}], "abc": [0.18264924, 0.75124723, 0.24877392], "xyz": [1.28757175338852, 16.746979043011823, 11.64602541973872], "label": "S", "properties": {}}, {"species": [{"element": "S", "occu": 1}], "abc": [0.34801194, 0.27075385, 0.19829634], "xyz": [2.45328337411062, 6.035708180600901, 9.28298358719094], "label": "S", "properties": {}}, {"species": [{"element": "S", "occu": 1}], "abc": [0.35573256, 0.98610826, 0.14224893], "xyz": [2.5077092903128797, 21.982556081252838, 6.65919745410063], "label": "S", "properties": {}}, {"species": [{"element": "S", "occu": 1}], "abc": [0.32971123, 0.58454047, 0.2456534], "xyz": [2.32427392812029, 13.03071293970998, 11.4999423606994], "label": "S", "properties": {}}, {"species": [{"element": "S", "occu": 1}], "abc": [0.684504, 0.37653654, 0.20652663999999998], "xyz": [4.825358241192, 8.39384065923036, 9.66827430822824], "label": "S", "properties": {}}, {"species": [{"element": "S", "occu": 1}], "abc": [0.67375532, 0.08909864, 0.16516595], "xyz": [4.749586249180361, 1.9862077319617601, 7.7320277470214505], "label": "S", "properties": {}}, {"species": [{"element": "S", "occu": 1}], "abc": [0.67851924, 0.78192654, 0.12162309999999998], "xyz": [4.78316913639852, 17.430889400490358, 5.693626221862099], "label": "S", "properties": {}}, {"species": [{"element": "S", "occu": 1}], "abc": [0.35072606, 0.45676218, 0.11342674], "xyz": [2.47241635406338, 10.182249398910121, 5.30992435749734], "label": "S", "properties": {}}, {"species": [{"element": "S", "occu": 1}], "abc": [0.32955251, 0.04400117, 0.20934144], "xyz": [2.32315504370173, 0.98088437791378, 9.800045485655039], "label": "S", "properties": {}}, {"species": [{"element": "S", "occu": 1}], "abc": [0.36104412, 0.74126502, 0.17149169], "xyz": [2.5451527235427602, 16.524453281854683, 8.02815898472779], "label": "S", "properties": {}}, {"species": [{"element": "S", "occu": 1}], "abc": [0.68258815, 0.25125736, 0.24879083], "xyz": [4.811852604137449, 5.60108786334224, 11.646817039253529], "label": "S", "properties": {}}, {"species": [{"element": "S", "occu": 1}], "abc": [0.68311952, 0.94863723, 0.19204852], "xyz": [4.81559845603696, 21.14724311227182, 8.99050007228732], "label": "S", "properties": {}}, {"species": [{"element": "S", "occu": 1}], "abc": [0.67625857, 0.63950784, 0.1458329], "xyz": [4.76723271730511, 14.25605841411456, 6.826976318233899], "label": "S", "properties": {}}, {"species": [{"element": "S", "occu": 1}], "abc": [0.86174294, 0.38580833, 0.28373835000000003], "xyz": [6.07479050132362, 8.60052957150922, 13.28283944174985], "label": "S", "properties": {}}, {"species": [{"element": "S", "occu": 1}], "abc": [0.80889114, 0.97435005, 0.38987604000000003], "xyz": [5.7022158068122195, 21.7204393125117, 18.25153646486364], "label": "S", "properties": {}}, {"species": [{"element": "S", "occu": 1}], "abc": [0.85269997, 0.67119813, 0.34159968], "xyz": [6.01104278061731, 14.96250577432242, 15.99154186521888], "label": "S", "properties": {}}, {"species": [{"element": "S", "occu": 1}], "abc": [0.1828526, 0.17997243, 0.26322339], "xyz": [1.2890053240498, 4.01198752310862, 12.32245844343249], "label": "S", "properties": {}}, {"species": [{"element": "S", "occu": 1}], "abc": [0.18275386, 0.77661679, 0.35626095], "xyz": [1.28830926402278, 17.31252321100886, 16.67789002866645], "label": "S", "properties": {}}, {"species": [{"element": "S", "occu": 1}], "abc": [0.17641758, 0.48824896, 0.30898663000000004], "xyz": [1.2436421460563398, 10.88416006657664, 14.464804619951332], "label": "S", "properties": {}}, {"species": [{"element": "S", "occu": 1}], "abc": [0.85715887, 0.14131949, 0.31302674], "xyz": [6.04247545283201, 3.15032713984066, 14.653937081097341], "label": "S", "properties": {}}, {"species": [{"element": "S", "occu": 1}], "abc": [0.84812359, 0.85767005, 0.25677354], "xyz": [5.97878194218857, 19.1193814493917, 12.02051715853614], "label": "S", "properties": {}}, {"species": [{"element": "S", "occu": 1}], "abc": [0.8196942, 0.43984174, 0.35071697], "xyz": [5.7783711464466005, 9.80505499104716, 16.41835586203627], "label": "S", "properties": {}}, {"species": [{"element": "S", "occu": 1}], "abc": [0.17944283, 0.34623687, 0.33381844], "xyz": [1.26496841298709, 7.71839332546758, 15.62727330026204], "label": "S", "properties": {}}, {"species": [{"element": "S", "occu": 1}], "abc": [0.17518728, 0.03895857, 0.28950943], "xyz": [1.23496924093944, 0.86847355874538, 13.55300499760613], "label": "S", "properties": {}}, {"species": [{"element": "S", "occu": 1}], "abc": [0.15115332, 0.65360363, 0.39792602000000005], "xyz": [1.06554369053436, 14.57028506320942, 18.628385741139823], "label": "S", "properties": {}}, {"species": [{"element": "S", "occu": 1}], "abc": [0.35267461, 0.17124732, 0.34162463000000004], "xyz": [2.48615250725003, 3.81748532931288, 15.992709866809331], "label": "S", "properties": {}}, {"species": [{"element": "S", "occu": 1}], "abc": [0.36165938, 0.88578623, 0.28373458], "xyz": [2.5494899515377396, 19.74615391313782, 13.28266295413478], "label": "S", "properties": {}}, {"species": [{"element": "S", "occu": 1}], "abc": [0.30877698, 0.47437228, 0.38987991], "xyz": [2.1766995446825397, 10.57481786887352, 18.25171763384781], "label": "S", "properties": {}}, {"species": [{"element": "S", "occu": 1}], "abc": [0.68280326, 0.27665793, 0.35628816], "xyz": [4.81336900551898, 6.16732331351562, 16.67916382919856], "label": "S", "properties": {}}, {"species": [{"element": "S", "occu": 1}], "abc": [0.67649998, 0.98818116, 0.30898392], "xyz": [4.76893451851154, 22.028765653111442, 14.46467775484872], "label": "S", "properties": {}}, {"species": [{"element": "S", "occu": 1}], "abc": [0.68290265, 0.6799664, 0.26319649], "xyz": [4.814069647670951, 15.1579701009376, 12.32119915514459], "label": "S", "properties": {}}, {"species": [{"element": "S", "occu": 1}], "abc": [0.34825623, 0.35776872, 0.25676540000000003], "xyz": [2.45500547765529, 7.9754640241204795, 12.0201360950914], "label": "S", "properties": {}}, {"species": [{"element": "S", "occu": 1}], "abc": [0.31974986, 0.93981459, 0.35071961], "xyz": [2.25405201733078, 20.950566756894062, 16.41847945018051], "label": "S", "properties": {}}, {"species": [{"element": "S", "occu": 1}], "abc": [0.35709501, 0.6412959, 0.31297184], "xyz": [2.51731377667923, 14.295918266040601, 14.65136700946144], "label": "S", "properties": {}}, {"species": [{"element": "S", "occu": 1}], "abc": [0.65122718, 0.15361763, 0.39793791], "xyz": [4.59077586091714, 3.42448015448542, 18.62894235592581], "label": "S", "properties": {}}, {"species": [{"element": "S", "occu": 1}], "abc": [0.67937172, 0.84616677, 0.33380267], "xyz": [4.78917862851756, 18.862947639864178, 15.62653504835497], "label": "S", "properties": {}}, {"species": [{"element": "S", "occu": 1}], "abc": [0.67517616, 0.53894661, 0.28946653], "xyz": [4.75960235135568, 12.01432394362674, 13.55099669026223], "label": "S", "properties": {}}, {"species": [{"element": "S", "occu": 1}], "abc": [0.180339, 0.06697229, 0.40163000000000004], "xyz": [1.271285894397, 1.4929619601958601, 18.801782716330003], "label": "S", "properties": {}}, {"species": [{"element": "S", "occu": 1}], "abc": [0.86692214, 0.03628752, 0.45492914], "xyz": [6.11130087292522, 0.80892988711968, 21.29691218685574], "label": "S", "properties": {}}, {"species": [{"element": "S", "occu": 1}], "abc": [0.80226921, 0.75659029, 0.40049408000000003], "xyz": [5.6555350211658295, 16.86608778680786, 18.74860610844928], "label": "S", "properties": {}}, {"species": [{"element": "S", "occu": 1}], "abc": [0.1782022, 0.92994976, 0.43147608000000004], "xyz": [1.2562226873306, 20.73065765816384, 20.19898788301128], "label": "S", "properties": {}}, {"species": [{"element": "S", "occu": 1}], "abc": [0.68021603, 0.56704992, 0.40161154000000004], "xyz": [4.79513052685069, 12.64080950632128, 18.800918535594143], "label": "S", "properties": {}}, {"species": [{"element": "S", "occu": 1}], "abc": [0.30232108, 0.25661371, 0.40051657], "xyz": [2.13118917473684, 5.72049287092814, 18.74965894835987], "label": "S", "properties": {}}, {"species": [{"element": "S", "occu": 1}], "abc": [0.36689965, 0.53639782, 0.45492675000000005], "xyz": [2.58643083140195, 11.95750572052988, 21.29680030213425], "label": "S", "properties": {}}, {"species": [{"element": "S", "occu": 1}], "abc": [0.67820373, 0.43005765, 0.43147528], "xyz": [4.78094497294779, 9.5869457672901, 20.19895043205848], "label": "S", "properties": {}}]}, "formula": "", "bandgap": 2.2074, "slab_thickness": 21.292230817755737}