{"miller": "100_0.12", "final_energy": -212.63849842, "gamma": 0.050695241036543305, "work_function": 3.0610108678187755, "ionization_potentail": -3.4287108678187757, "electron_affinity": -0.9326108678187754, "is_stochiometric": true, "incar_parameters": {"SYSTEM": "unknown system", "LCOMPAT": false, "PREC": "normal", "ENMAX": 520.0, "ENAUG": 628.945, "EDIFF": 1e-05, "IALGO": 38, "IWAVPR": 11, "NBANDS": 136, "NBANDSLOW": -1, "NBANDSHIGH": -1, "NELECT": 216.0, "TURBO": 0, "IRESTART": 0, "NREBOOT": 0, "NMIN": 0, "EREF": 0.0, "ISMEAR": 0, "SIGMA": 0.05, "KSPACING": 0.5, "KGAMMA": true, "KBLOWUP": true, "LREAL": true, "ROPT": [-0.0005, -0.0005], "LMAXPAW": -100, "LMAXMIX": 2, "NLSPLINE": false, "ISTART": 0, "ICHARG": 2, "INIWAV": 1, "ISPIN": 1, "LNONCOLLINEAR": false, "MAGMOM": [0.6, 0.6, 0.6, 0.6, 0.6, 0.6, 0.6, 0.6, 0.6, 0.6, 0.6, 0.6, 0.6, 0.6, 0.6, 0.6, 0.6, 0.6, 0.6, 0.6, 0.6, 0.6, 0.6, 0.6, 0.6, 0.6, 0.6, 0.6, 0.6, 0.6, 0.6, 0.6, 0.6, 0.6, 0.6, 0.6, 0.6, 0.6, 0.6, 0.6, 0.6, 0.6, 0.6, 0.6, 0.6, 0.6, 0.6, 0.6, 0.6, 0.6, 0.6, 0.6, 0.6, 0.6], "NUPDOWN": -1.0, "LSORBIT": false, "SAXIS": [0.0, 0.0, 1.0], "LSPIRAL": false, "QSPIRAL": [0.0, 0.0, 0.0], "LZEROZ": false, "LASPH": false, "LMETAGGA": false, "NELM": 100, "NELMDL": -5, "NELMIN": 6, "ENINI": 520.0, "LDIAG": true, "LSUBROT": false, "WEIMIN": 0.001, "EBREAK": 2e-08, "DEPER": 0.3, "NRMM": 4, "TIME": 0.4, "AMIX": 0.4, "BMIX": 1.0, "AMIN": 0.1, "AMIX_MAG": 1.6, "BMIX_MAG": 1.0, "IMIX": 4, "MIXFIRST": false, "MAXMIX": -45, "WC": 100.0, "INIMIX": 1, "MIXPRE": 1, "MREMOVE": 5, "LDIPOL": false, "LMONO": false, "IDIPOL": 0, "EPSILON": 1.0, "DIPOL": [-100.0, -100.0, -100.0], "EFIELD": 0.0, "NGX": 32, "NGY": 32, "NGZ": 256, "NGXF": 64, "NGYF": 64, "NGZF": 512, "ADDGRID": false, "NSW": 150, "IBRION": 2, "MDALGO": 0, "ISIF": 2, "PSTRESS": 0.0, "EDIFFG": -0.01, "NFREE": 1, "POTIM": 0.5, "SMASS": -3.0, "SCALEE": 1.0, "TEBEG": 0.0001, "TEEND": 0.0001, "NBLOCK": 1, "KBLOCK": 150, "NPACO": 256, "APACO": 10.0, "ISYM": 0, "SYMPREC": 1e-05, "LORBIT": 11, "RWIGS": [-1.0, -1.0], "NEDOS": 301, "EMIN": 10.0, "EMAX": -10.0, "EFERMI": 0.0, "NWRITE": 2, "LWAVE": false, "LDOWNSAMPLE": false, "LCHARG": false, "LPARD": false, "LVTOT": false, "LVHAR": false, "LELF": false, "LOPTICS": false, "STM": [0.0, 0.0, 0.0, 0.0, 0.0, 0.0, 0.0], "NPAR": 1, "NSIM": 4, "NBLK": -1, "LPLANE": true, "LSCALAPACK": true, "LSCAAWARE": false, "LSCALU": false, "LASYNC": false, "LORBITALREAL": false, "IDIOT": 3, "PHON_NSTRUCT": -1, "LMUSIC": false, "POMASS": [7.01, 32.066], "DARWINR": [0.0, 0.0], "DARWINV": [1.0, 1.0], "LCORR": true, "GGA_COMPAT": true, "LBERRY": false, "ICORELEVEL": 0, "LDAU": false, "I_CONSTRAINED_M": 0, "GGA": "--", "VOSKOWN": 0, "LHFCALC": false, "PRECFOCK": "", "LSYMGRAD": false, "LHFONE": false, "LRHFCALC": false, "LTHOMAS": false, "LMODELHF": false, "LFOCKACE": false, "ENCUT4O": -1.0, "EXXOEP": 0, "FOURORBIT": 0, "AEXX": 0.0, "HFALPHA": 0.0, "MCALPHA": 0.0, "ALDAX": 1.0, "AGGAX": 1.0, "ALDAC": 1.0, "AGGAC": 1.0, "NKREDX": 1, "NKREDY": 1, "NKREDZ": 1, "SHIFTRED": false, "ODDONLY": false, "EVENONLY": false, "LMAXFOCK": 0, "NMAXFOCKAE": 0, "LFOCKAEDFT": false, "HFSCREEN": 0.0, "HFSCREENC": 0.0, "NBANDSGWLOW": 0, "LUSE_VDW": false, "Zab_VDW": -0.8491, "PARAM1": 0.1234, "PARAM2": 1.0, "PARAM3": 0.0, "MODEL_GW": 0, "MODEL_EPS0": 16.46441632, "MODEL_ALPHA": 1.0, "LEPSILON": false, "LRPA": false, "LNABLA": false, "LVEL": false, "CSHIFT": 0.1, "OMEGAMAX": -1.0, "DEG_THRESHOLD": 0.002, "RTIME": -0.1, "WPLASMAI": 0.0, "DFIELD": [0.0, 0.0, 0.0], "WPLASMA": [0.0, 0.0, 0.0, 0.0, 0.0, 0.0, 0.0, 0.0, 0.0], "NUCIND": false, "MAGPOS": [0.0, 0.0, 0.0], "LNICSALL": true, "ORBITALMAG": false, "LMAGBLOCH": false, "LCHIMAG": false, "LGAUGE": true, "MAGATOM": 0, "MAGDIPOL": [0.0, 0.0, 0.0], "AVECCONST": [0.0, 0.0, 0.0], "LFINITE_TEMPERATURE": false, "LADDER": false, "LRPAFORCE": false, "LFXC": false, "LHARTREE": true, "IBSE": 0, "KPOINT": [-1, 0, 0, 0], "LTCTC": false, "LTCTE": false, "LTETE": false, "LTRIPLET": false, "LFXCEPS": false, "LFXHEG": false, "NATURALO": 2, "LHOLEGF": false, "L2ORDER": false, "LDMP1": false, "LMP2LT": false, "LSMP2LT": false, "LGWLF": false, "ENCUTGW": -2.0, "ENCUTGWSOFT": -2.0, "ENCUTLF": -1.0, "LESF_SPLINES": false, "LMAXMP2": -1, "SCISSOR": 0.0, "NOMEGA": 0, "NOMEGAR": 0, "NBANDSGW": -1, "NBANDSO": -1, "NBANDSV": -1, "NELMGW": 1, "NELMHF": 1, "DIM": 3, "IESPILON": 4, "ANTIRES": 0, "OMEGAMIN": -30.0, "OMEGATL": -200.0, "OMEGAGRID": 0, "LSELFENERGY": false, "LSPECTRAL": false, "LSPECTRALGW": false, "LSINGLES": false, "LFERMIGW": false, "ODDONLYGW": false, "EVENONLYGW": false, "NKREDLFX": 1, "NKREDLFY": 1, "NKREDLFZ": 1, "MAXMEM": 2800, "TELESCOPE": 0, "NTAUPAR": -1, "NOMEGAPAR": -1, "DAMP_NEWTON": 0.80000001, "LAMBDA": 1.0, "OFIELD_KAPPA": 0.0, "OFIELD_K": [0.0, 0.0, 0.0], "OFIELD_Q6_NEAR": 0.0, "OFIELD_Q6_FAR": 0.0, "OFIELD_A": 0.0, "KPOINTS_OPT_MODE": 1, "LKPOINTS_OPT": false, "@module": "pymatgen.io.vasp.inputs", "@class": "Incar"}, "relaxed_structures": {"@module": "pymatgen.core.structure", "@class": "Structure", "charge": 0, "lattice": {"matrix": [[5.700325, 0.0, 0.0], [0.0, 5.700325, 0.0], [0.0, 0.0, 45.602601]], "a": 5.700325, "b": 5.700325, "c": 45.602601, "alpha": 90.0, "beta": 90.0, "gamma": 90.0, "volume": 1481.79746894348}, "sites": [{"species": [{"element": "Li", "occu": 1}], "abc": [0.74516203, 0.75537108, 0.051037120000000005], "xyz": [4.247665748659751, 4.305860651601, 2.32742541954912], "label": "Li", "properties": {}}, {"species": [{"element": "Li", "occu": 1}], "abc": [0.2451485, 0.25532431, 0.05103911], "xyz": [1.3974261232625, 1.45543154740075, 2.32751616872511], "label": "Li", "properties": {}}, {"species": [{"element": "Li", "occu": 1}], "abc": [0.74651367, 0.25542949, 0.05626101], "xyz": [4.255370535942751, 1.45603110758425, 2.56564839088701], "label": "Li", "properties": {}}, {"species": [{"element": "Li", "occu": 1}], "abc": [0.23630669, 0.7437482, 9.99999999999994e-05], "xyz": [1.34702493267425, 4.239606458165, 0.004560260099999973], "label": "Li", "properties": {}}, {"species": [{"element": "Li", "occu": 1}], "abc": [0.73638727, 0.24380974, 0.0001042399999999985], "xyz": [4.197646764862751, 1.3897947561655, 0.004753615128239932], "label": "Li", "properties": {}}, {"species": [{"element": "Li", "occu": 1}], "abc": [0.246484, 0.75544911, 0.056261870000000005], "xyz": [1.4050389073, 4.30630544796075, 2.56568760912387], "label": "Li", "properties": {}}, {"species": [{"element": "Li", "occu": 1}], "abc": [0.24830462, 0.25118466, 0.11545531], "xyz": [1.4154170330015001, 1.4318341970145, 5.26506243526131], "label": "Li", "properties": {}}, {"species": [{"element": "Li", "occu": 1}], "abc": [0.74932391, 0.74782004, 0.17796948], "xyz": [4.27138981727075, 4.262817269513, 8.11587118661748], "label": "Li", "properties": {}}, {"species": [{"element": "Li", "occu": 1}], "abc": [0.24992758, 0.24788158, 0.17798226], "xyz": [1.4246684324635002, 1.4130055675135, 8.11645398785826], "label": "Li", "properties": {}}, {"species": [{"element": "Li", "occu": 1}], "abc": [0.74830022, 0.75104707, 0.11545055000000001], "xyz": [4.2655544515715, 4.2812123892977505, 5.26484536688055], "label": "Li", "properties": {}}, {"species": [{"element": "Li", "occu": 1}], "abc": [0.74954419, 0.24742464, 0.17832173], "xyz": [4.2726454848617506, 1.410400861008, 8.13193470281973], "label": "Li", "properties": {}}, {"species": [{"element": "Li", "occu": 1}], "abc": [0.24977433, 0.75019811, 0.11661068999999999], "xyz": [1.4237948576572501, 4.27637304138575, 5.317750768404689], "label": "Li", "properties": {}}, {"species": [{"element": "Li", "occu": 1}], "abc": [0.74978033, 0.25017645, 0.11661553], "xyz": [4.27399155960725, 1.42608707234625, 5.31797148499353], "label": "Li", "properties": {}}, {"species": [{"element": "Li", "occu": 1}], "abc": [0.24891149, 0.74775269, 0.17820893000000002], "xyz": [1.4188763892342502, 4.26243335262425, 8.126790729426931], "label": "Li", "properties": {}}, {"species": [{"element": "Li", "occu": 1}], "abc": [0.25046729, 0.24587897, 0.24006566999999998], "xyz": [1.4277449548692502, 1.40159003966525, 10.947618962807669], "label": "Li", "properties": {}}, {"species": [{"element": "Li", "occu": 1}], "abc": [0.75059516, 0.74590971, 0.30166118], "xyz": [4.278636355427, 4.25192776765575, 13.756534428729179], "label": "Li", "properties": {}}, {"species": [{"element": "Li", "occu": 1}], "abc": [0.25060188, 0.24590957, 0.3016621], "xyz": [1.4285121616110001, 1.40176446961025, 13.7565763831221], "label": "Li", "properties": {}}, {"species": [{"element": "Li", "occu": 1}], "abc": [0.75048733, 0.74586955, 0.2400687], "xyz": [4.278021689382251, 4.2516988426037505, 10.947757138688699], "label": "Li", "properties": {}}, {"species": [{"element": "Li", "occu": 1}], "abc": [0.75057297, 0.24589562, 0.30173546999999995], "xyz": [4.27850986521525, 1.4016849500765, 13.759922245957467], "label": "Li", "properties": {}}, {"species": [{"element": "Li", "occu": 1}], "abc": [0.25050283, 0.74586808, 0.24011813], "xyz": [1.42794754441975, 4.251690463126001, 10.95001127525613], "label": "Li", "properties": {}}, {"species": [{"element": "Li", "occu": 1}], "abc": [0.75053252, 0.2458869, 0.24012348000000003], "xyz": [4.278279287069, 1.4016352432425, 10.950255249171482], "label": "Li", "properties": {}}, {"species": [{"element": "Li", "occu": 1}], "abc": [0.25069285, 0.7459334, 0.30171740999999996], "xyz": [1.4290307201762502, 4.252062808355, 13.759098662983408], "label": "Li", "properties": {}}, {"species": [{"element": "Li", "occu": 1}], "abc": [0.25083569, 0.24799268, 0.36314801999999996], "xyz": [1.42984495459925, 1.413638873621, 16.560494260000016], "label": "Li", "properties": {}}, {"species": [{"element": "Li", "occu": 1}], "abc": [0.75043412, 0.75019897, 0.42518121], "xyz": [4.277718375089, 4.27637794366525, 19.38936907232721], "label": "Li", "properties": {}}, {"species": [{"element": "Li", "occu": 1}], "abc": [0.25045135, 0.2501976, 0.42518303999999996], "xyz": [1.4276540916887501, 1.4262076342200003, 19.389452525087037], "label": "Li", "properties": {}}, {"species": [{"element": "Li", "occu": 1}], "abc": [0.75096218, 0.7481552, 0.3631423], "xyz": [4.2807284887085, 4.26472779044, 16.560233413122297], "label": "Li", "properties": {}}, {"species": [{"element": "Li", "occu": 1}], "abc": [0.7519774, 0.25104148, 0.42637401999999996], "xyz": [4.286515572655, 1.431018024481, 19.44376431082602], "label": "Li", "properties": {}}, {"species": [{"element": "Li", "occu": 1}], "abc": [0.25100499, 0.74823345, 0.36388297], "xyz": [1.43081001962175, 4.26517384087125, 16.59400989160497], "label": "Li", "properties": {}}, {"species": [{"element": "Li", "occu": 1}], "abc": [0.75101874, 0.24822557, 0.36388113], "xyz": [4.2810508990905, 1.41496642231025, 16.59392598281913], "label": "Li", "properties": {}}, {"species": [{"element": "Li", "occu": 1}], "abc": [0.25183234, 0.75104646, 0.42637374], "xyz": [1.4355261835105, 4.2812089120995, 19.44375154209774], "label": "Li", "properties": {}}, {"species": [{"element": "Li", "occu": 1}], "abc": [0.25449314, 0.25431931, 0.48571771999999996], "xyz": [1.4506936082705002, 1.4497027207757502, 22.149991383789718], "label": "Li", "properties": {}}, {"species": [{"element": "Li", "occu": 1}], "abc": [0.75484709, 0.75488649, 0.54201499], "xyz": [4.302873738304251, 4.30309833110925, 24.71729332498899], "label": "Li", "properties": {}}, {"species": [{"element": "Li", "occu": 1}], "abc": [0.25412644, 0.25574877, 0.54201739], "xyz": [1.4486032990930002, 1.4578511073502503, 24.71740277123139], "label": "Li", "properties": {}}, {"species": [{"element": "Li", "occu": 1}], "abc": [0.75444466, 0.75439964, 0.48570186], "xyz": [4.3005797565145, 4.300323127883001, 22.14926812653786], "label": "Li", "properties": {}}, {"species": [{"element": "Li", "occu": 1}], "abc": [0.25528477, 0.75522098, 0.49081395], "xyz": [1.45520615655025, 4.3050050328185, 22.38239272708395], "label": "Li", "properties": {}}, {"species": [{"element": "Li", "occu": 1}], "abc": [0.75523017, 0.25517867, 0.49081265], "xyz": [4.305057418805251, 1.45460135206775, 22.382333443702652], "label": "Li", "properties": {}}, {"species": [{"element": "S", "occu": 1}], "abc": [0.99808562, 0.50276181, 0.08495881], "xyz": [5.6894124118265, 2.86590571458825, 3.87434271386481], "label": "S", "properties": {}}, {"species": [{"element": "S", "occu": 1}], "abc": [0.9969857, 0.00439442, 0.02213177], "xyz": [5.6831425103525, 0.0250496221865, 1.00926627673377], "label": "S", "properties": {}}, {"species": [{"element": "S", "occu": 1}], "abc": [0.49807098, 0.00269543, 0.08496298000000001], "xyz": [2.8391664590685, 0.015364827014750001, 3.87453287671098], "label": "S", "properties": {}}, {"species": [{"element": "S", "occu": 1}], "abc": [0.49700347, 0.50440338, 0.02213935], "xyz": [2.83308130512775, 2.8752631970985, 1.0096119444493499], "label": "S", "properties": {}}, {"species": [{"element": "S", "occu": 1}], "abc": [0.99998937, 0.4970004, 0.20912277], "xyz": [5.7002644055452505, 2.83306380513, 9.53654224032477], "label": "S", "properties": {}}, {"species": [{"element": "S", "occu": 1}], "abc": [0.9991436, 0.99913951, 0.14713742], "xyz": [5.6954432416700005, 5.69541992734075, 6.7098490564294195], "label": "S", "properties": {}}, {"species": [{"element": "S", "occu": 1}], "abc": [0.49982386, 0.99677713, 0.20915091], "xyz": [2.8491584447545004, 5.6819535935672505, 9.53782549751691], "label": "S", "properties": {}}, {"species": [{"element": "S", "occu": 1}], "abc": [0.49937633, 0.49889798, 0.14714871], "xyz": [2.84660737830725, 2.8438806278435003, 6.71036390979471], "label": "S", "properties": {}}, {"species": [{"element": "S", "occu": 1}], "abc": [0.00080806, 0.49712098, 0.33256696999999996], "xyz": [0.0046062046195, 2.8337511503185002, 15.165918838688969], "label": "S", "properties": {}}, {"species": [{"element": "S", "occu": 1}], "abc": [0.00036991, 0.99624758, 0.27089968], "xyz": [0.00210860722075, 5.6789349864635, 12.35373001806768], "label": "S", "properties": {}}, {"species": [{"element": "S", "occu": 1}], "abc": [0.50082774, 0.99711046, 0.33257148999999997], "xyz": [2.8548808870155, 5.6838536828995005, 15.166124962445489], "label": "S", "properties": {}}, {"species": [{"element": "S", "occu": 1}], "abc": [0.50040533, 0.49621933, 0.27090179999999997], "xyz": [2.85247301273225, 2.8286114522822503, 12.353826695581798], "label": "S", "properties": {}}, {"species": [{"element": "S", "occu": 1}], "abc": [0.00280006, 0.50229698, 0.45689601999999996], "xyz": [0.0159612520195, 2.8632560325185, 20.835646898548017], "label": "S", "properties": {}}, {"species": [{"element": "S", "occu": 1}], "abc": [0.00136995, 0.99934691, 0.39461041999999996], "xyz": [0.00780916023375, 5.69660217474575, 17.99526153370242], "label": "S", "properties": {}}, {"species": [{"element": "S", "occu": 1}], "abc": [0.50276162, 0.0023357, 0.45689141], "xyz": [2.8659046315265004, 0.0133142491025, 20.83543667055741], "label": "S", "properties": {}}, {"species": [{"element": "S", "occu": 1}], "abc": [0.50137498, 0.4993315, 0.39461059], "xyz": [2.8580003328685004, 2.8463518327375, 17.995269286144588], "label": "S", "properties": {}}, {"species": [{"element": "S", "occu": 1}], "abc": [0.00479369, 0.00464633, 0.51982561], "xyz": [0.027325590949250002, 0.02648559105725, 23.705399882411612], "label": "S", "properties": {}}, {"species": [{"element": "S", "occu": 1}], "abc": [0.50474496, 0.50465996, 0.51981075], "xyz": [2.8772103141120002, 2.8767257864870004, 23.70472222776075], "label": "S", "properties": {}}]}, "formula": "(Li2S)18.0", "bandgap": 2.4961, "slab_thickness": 24.71284251113139}