{"miller": "110_0.25", "final_energy": -332.98514315, "gamma": 0.03167052485472541, "work_function": 5.158271554280045, "ionization_potentail": -5.4324715542800455, "electron_affinity": -1.9819715542800451, "is_stochiometric": true, "incar_parameters": {"SYSTEM": "unknown system", "LCOMPAT": false, "PREC": "normal", "ENMAX": 520.0, "ENAUG": 628.945, "EDIFF": 1e-05, "IALGO": 38, "IWAVPR": 11, "NBANDS": 211, "NBANDSLOW": -1, "NBANDSHIGH": -1, "NELECT": 336.0, "TURBO": 0, "IRESTART": 0, "NREBOOT": 0, "NMIN": 0, "EREF": 0.0, "ISMEAR": 0, "SIGMA": 0.05, "KSPACING": 0.5, "KGAMMA": true, "KBLOWUP": true, "LREAL": true, "ROPT": [-0.0005, -0.0005], "LMAXPAW": -100, "LMAXMIX": 2, "NLSPLINE": false, "ISTART": 0, "ICHARG": 2, "INIWAV": 1, "ISPIN": 1, "LNONCOLLINEAR": false, "MAGMOM": [0.6, 0.6, 0.6, 0.6, 0.6, 0.6, 0.6, 0.6, 0.6, 0.6, 0.6, 0.6, 0.6, 0.6, 0.6, 0.6, 0.6, 0.6, 0.6, 0.6, 0.6, 0.6, 0.6, 0.6, 0.6, 0.6, 0.6, 0.6, 0.6, 0.6, 0.6, 0.6, 0.6, 0.6, 0.6, 0.6, 0.6, 0.6, 0.6, 0.6, 0.6, 0.6, 0.6, 0.6, 0.6, 0.6, 0.6, 0.6, 0.6, 0.6, 0.6, 0.6, 0.6, 0.6, 0.6, 0.6, 0.6, 0.6, 0.6, 0.6, 0.6, 0.6, 0.6, 0.6, 0.6, 0.6, 0.6, 0.6, 0.6, 0.6, 0.6, 0.6, 0.6, 0.6, 0.6, 0.6, 0.6, 0.6, 0.6, 0.6, 0.6, 0.6, 0.6, 0.6], "NUPDOWN": -1.0, "LSORBIT": false, "SAXIS": [0.0, 0.0, 1.0], "LSPIRAL": false, "QSPIRAL": [0.0, 0.0, 0.0], "LZEROZ": false, "LASPH": false, "LMETAGGA": false, "NELM": 100, "NELMDL": -5, "NELMIN": 6, "ENINI": 520.0, "LDIAG": true, "LSUBROT": false, "WEIMIN": 0.001, "EBREAK": 1e-08, "DEPER": 0.3, "NRMM": 4, "TIME": 0.4, "AMIX": 0.4, "BMIX": 1.0, "AMIN": 0.1, "AMIX_MAG": 1.6, "BMIX_MAG": 1.0, "IMIX": 4, "MIXFIRST": false, "MAXMIX": -45, "WC": 100.0, "INIMIX": 1, "MIXPRE": 1, "MREMOVE": 5, "LDIPOL": false, "LMONO": false, "IDIPOL": 0, "EPSILON": 1.0, "DIPOL": [-100.0, -100.0, -100.0], "EFIELD": 0.0, "NGX": 32, "NGY": 48, "NGZ": 250, "NGXF": 64, "NGYF": 96, "NGZF": 500, "ADDGRID": false, "NSW": 150, "IBRION": 2, "MDALGO": 0, "ISIF": 2, "PSTRESS": 0.0, "EDIFFG": -0.01, "NFREE": 1, "POTIM": 0.5, "SMASS": -3.0, "SCALEE": 1.0, "TEBEG": 0.0001, "TEEND": 0.0001, "NBLOCK": 1, "KBLOCK": 150, "NPACO": 256, "APACO": 10.0, "ISYM": 0, "SYMPREC": 1e-05, "LORBIT": 11, "RWIGS": [-1.0, -1.0], "NEDOS": 301, "EMIN": 10.0, "EMAX": -10.0, "EFERMI": 0.0, "NWRITE": 2, "LWAVE": false, "LDOWNSAMPLE": false, "LCHARG": false, "LPARD": false, "LVTOT": false, "LVHAR": false, "LELF": false, "LOPTICS": false, "STM": [0.0, 0.0, 0.0, 0.0, 0.0, 0.0, 0.0], "NPAR": 1, "NSIM": 4, "NBLK": -1, "LPLANE": true, "LSCALAPACK": true, "LSCAAWARE": false, "LSCALU": false, "LASYNC": false, "LORBITALREAL": false, "IDIOT": 3, "PHON_NSTRUCT": -1, "LMUSIC": false, "POMASS": [7.01, 32.066], "DARWINR": [0.0, 0.0], "DARWINV": [1.0, 1.0], "LCORR": true, "GGA_COMPAT": true, "LBERRY": false, "ICORELEVEL": 0, "LDAU": false, "I_CONSTRAINED_M": 0, "GGA": "--", "VOSKOWN": 0, "LHFCALC": false, "PRECFOCK": "", "LSYMGRAD": false, "LHFONE": false, "LRHFCALC": false, "LTHOMAS": false, "LMODELHF": false, "LFOCKACE": false, "ENCUT4O": -1.0, "EXXOEP": 0, "FOURORBIT": 0, "AEXX": 0.0, "HFALPHA": 0.0, "MCALPHA": 0.0, "ALDAX": 1.0, "AGGAX": 1.0, "ALDAC": 1.0, "AGGAC": 1.0, "NKREDX": 1, "NKREDY": 1, "NKREDZ": 1, "SHIFTRED": false, "ODDONLY": false, "EVENONLY": false, "LMAXFOCK": 0, "NMAXFOCKAE": 0, "LFOCKAEDFT": false, "HFSCREEN": 0.0, "HFSCREENC": 0.0, "NBANDSGWLOW": 0, "LUSE_VDW": false, "Zab_VDW": -0.8491, "PARAM1": 0.1234, "PARAM2": 1.0, "PARAM3": 0.0, "MODEL_GW": 0, "MODEL_EPS0": 14.55336811, "MODEL_ALPHA": 1.0, "LEPSILON": false, "LRPA": false, "LNABLA": false, "LVEL": false, "CSHIFT": 0.1, "OMEGAMAX": -1.0, "DEG_THRESHOLD": 0.002, "RTIME": -0.1, "WPLASMAI": 0.0, "DFIELD": [0.0, 0.0, 0.0], "WPLASMA": [0.0, 0.0, 0.0, 0.0, 0.0, 0.0, 0.0, 0.0, 0.0], "NUCIND": false, "MAGPOS": [0.0, 0.0, 0.0], "LNICSALL": true, "ORBITALMAG": false, "LMAGBLOCH": false, "LCHIMAG": false, "LGAUGE": true, "MAGATOM": 0, "MAGDIPOL": [0.0, 0.0, 0.0], "AVECCONST": [0.0, 0.0, 0.0], "LFINITE_TEMPERATURE": false, "LADDER": false, "LRPAFORCE": false, "LFXC": false, "LHARTREE": true, "IBSE": 0, "KPOINT": [-1, 0, 0, 0], "LTCTC": false, "LTCTE": false, "LTETE": false, "LTRIPLET": false, "LFXCEPS": false, "LFXHEG": false, "NATURALO": 2, "LHOLEGF": false, "L2ORDER": false, "LDMP1": false, "LMP2LT": false, "LSMP2LT": false, "LGWLF": false, "ENCUTGW": -2.0, "ENCUTGWSOFT": -2.0, "ENCUTLF": -1.0, "LESF_SPLINES": false, "LMAXMP2": -1, "SCISSOR": 0.0, "NOMEGA": 0, "NOMEGAR": 0, "NBANDSGW": -1, "NBANDSO": -1, "NBANDSV": -1, "NELMGW": 1, "NELMHF": 1, "DIM": 3, "IESPILON": 4, "ANTIRES": 0, "OMEGAMIN": -30.0, "OMEGATL": -200.0, "OMEGAGRID": 0, "LSELFENERGY": false, "LSPECTRAL": false, "LSPECTRALGW": false, "LSINGLES": false, "LFERMIGW": false, "ODDONLYGW": false, "EVENONLYGW": false, "NKREDLFX": 1, "NKREDLFY": 1, "NKREDLFZ": 1, "MAXMEM": 2800, "TELESCOPE": 0, "NTAUPAR": -1, "NOMEGAPAR": -1, "DAMP_NEWTON": 0.80000001, "LAMBDA": 1.0, "OFIELD_KAPPA": 0.0, "OFIELD_K": [0.0, 0.0, 0.0], "OFIELD_Q6_NEAR": 0.0, "OFIELD_Q6_FAR": 0.0, "OFIELD_A": 0.0, "KPOINTS_OPT_MODE": 1, "LKPOINTS_OPT": false, "@module": "pymatgen.io.vasp.inputs", "@class": "Incar"}, "relaxed_structures": {"@module": "pymatgen.core.structure", "@class": "Structure", "charge": 0, "lattice": {"matrix": [[5.700325, 0.0, 0.0], [0.0, 8.061477, 0.0], [0.0, 0.0, 44.338124]], "a": 5.700325, "b": 8.061477, "c": 44.338124, "alpha": 90.0, "beta": 90.0, "gamma": 90.0, "volume": 2037.4715360393698}, "sites": [{"species": [{"element": "Li", "occu": 1}], "abc": [0.77573977, 0.624993, 0.0019070900000000002], "xyz": [4.4219688044252505, 5.038366694661, 0.08455679289916], "label": "Li", "properties": {}}, {"species": [{"element": "Li", "occu": 1}], "abc": [0.22425439, 0.12499327, 0.0019069900000000008], "xyz": [1.27832290567675, 1.00763037125979, 0.08455235908676004], "label": "Li", "properties": {}}, {"species": [{"element": "Li", "occu": 1}], "abc": [0.75267286, 0.37498964, 0.044517589999999996], "xyz": [4.2904799206795, 3.0229703580982803, 1.9738264256011597], "label": "Li", "properties": {}}, {"species": [{"element": "Li", "occu": 1}], "abc": [0.24754216, 0.87498965, 0.04450747000000001], "xyz": [1.411070763202, 7.05370893871305, 1.9733777237862804], "label": "Li", "properties": {}}, {"species": [{"element": "Li", "occu": 1}], "abc": [0.77573983, 0.12499412, 0.0019070900000000002], "xyz": [4.42196914644475, 1.00763722351524, 0.08455679289916], "label": "Li", "properties": {}}, {"species": [{"element": "Li", "occu": 1}], "abc": [0.22425432, 0.62499384, 0.0019069900000000008], "xyz": [1.278322506654, 5.03837346630168, 0.08455235908676004], "label": "Li", "properties": {}}, {"species": [{"element": "Li", "occu": 1}], "abc": [0.75245243, 0.87498963, 0.044507340000000006], "xyz": [4.28922339803975, 7.05370877748351, 1.9733719598301602], "label": "Li", "properties": {}}, {"species": [{"element": "Li", "occu": 1}], "abc": [0.24755618, 0.37498963, 0.04450725], "xyz": [1.4111506817585, 3.0229702774835103, 1.973367969399], "label": "Li", "properties": {}}, {"species": [{"element": "Li", "occu": 1}], "abc": [0.75127247, 0.12499866, 0.08934934], "xyz": [4.28249724255275, 1.00767382262082, 3.96158211623816], "label": "Li", "properties": {}}, {"species": [{"element": "Li", "occu": 1}], "abc": [0.24872143, 0.62500191, 0.08934933], "xyz": [1.41779298546475, 5.03843852242107, 3.96158167285692], "label": "Li", "properties": {}}, {"species": [{"element": "Li", "occu": 1}], "abc": [0.74983176, 0.87498966, 0.13488843], "xyz": [4.274284727322, 7.05370901932782, 5.98069993550532], "label": "Li", "properties": {}}, {"species": [{"element": "Li", "occu": 1}], "abc": [0.25016462, 0.37498991, 0.13488845], "xyz": [1.4260196375015002, 3.02297253469707, 5.9807008222678], "label": "Li", "properties": {}}, {"species": [{"element": "Li", "occu": 1}], "abc": [0.7512725, 0.625002, 0.08934934], "xyz": [4.2824974135625, 5.038439247954, 3.96158211623816], "label": "Li", "properties": {}}, {"species": [{"element": "Li", "occu": 1}], "abc": [0.24872146, 0.12499973, 0.08934934], "xyz": [1.4177931564745, 1.0076824484012101, 3.96158211623816], "label": "Li", "properties": {}}, {"species": [{"element": "Li", "occu": 1}], "abc": [0.74983045, 0.37498964, 0.13488861000000002], "xyz": [4.274277259896251, 3.0229703580982803, 5.980707916367641], "label": "Li", "properties": {}}, {"species": [{"element": "Li", "occu": 1}], "abc": [0.25016338, 0.87498991, 0.13488830000000002], "xyz": [1.4260125690985, 7.05371103469707, 5.980694171549201], "label": "Li", "properties": {}}, {"species": [{"element": "Li", "occu": 1}], "abc": [0.75048678, 0.62499382, 0.1803827], "xyz": [4.2780185542035, 5.03837330507214, 7.9978305200548006], "label": "Li", "properties": {}}, {"species": [{"element": "Li", "occu": 1}], "abc": [0.24950748, 0.1249942, 0.18038282], "xyz": [1.422273725931, 1.0076378684334, 7.99783584062968], "label": "Li", "properties": {}}, {"species": [{"element": "Li", "occu": 1}], "abc": [0.74966837, 0.37498917, 0.22500557], "xyz": [4.27335335122025, 3.02296656920409, 9.97632486335068], "label": "Li", "properties": {}}, {"species": [{"element": "Li", "occu": 1}], "abc": [0.2503262, 0.87498916, 0.22500555], "xyz": [1.4269406960150002, 7.05370498858932, 9.9763239765882], "label": "Li", "properties": {}}, {"species": [{"element": "Li", "occu": 1}], "abc": [0.75048678, 0.1249937, 0.1803827], "xyz": [4.2780185542035, 1.0076338376949, 7.9978305200548006], "label": "Li", "properties": {}}, {"species": [{"element": "Li", "occu": 1}], "abc": [0.24950747, 0.62499433, 0.18038282], "xyz": [1.4222736689277502, 5.03837741642541, 7.99783584062968], "label": "Li", "properties": {}}, {"species": [{"element": "Li", "occu": 1}], "abc": [0.74966844, 0.87498917, 0.22500557], "xyz": [4.273353750243, 7.0537050692040895, 9.97632486335068], "label": "Li", "properties": {}}, {"species": [{"element": "Li", "occu": 1}], "abc": [0.25032627, 0.37498913, 0.22500556], "xyz": [1.4269410950377501, 3.02296624674501, 9.97632441996944], "label": "Li", "properties": {}}, {"species": [{"element": "Li", "occu": 1}], "abc": [0.75169015, 0.12496555, 0.27032510000000004], "xyz": [4.28487815429875, 1.00740690711735, 11.985707804112401], "label": "Li", "properties": {}}, {"species": [{"element": "Li", "occu": 1}], "abc": [0.24830458, 0.62496559, 0.27032512000000003], "xyz": [1.4154168049885, 5.03814572957643, 11.985708690874882], "label": "Li", "properties": {}}, {"species": [{"element": "Li", "occu": 1}], "abc": [0.74882162, 0.87499505, 0.31539075], "xyz": [4.2685266010265, 7.05375247068885, 13.983834181953], "label": "Li", "properties": {}}, {"species": [{"element": "Li", "occu": 1}], "abc": [0.2511733, 0.37499463, 0.3153907], "xyz": [1.4317694413225, 3.02301058486851, 13.983831965046802], "label": "Li", "properties": {}}, {"species": [{"element": "Li", "occu": 1}], "abc": [0.75169026, 0.62496561, 0.27032507], "xyz": [4.2848787813345, 5.0381458908059695, 11.98570647396868], "label": "Li", "properties": {}}, {"species": [{"element": "Li", "occu": 1}], "abc": [0.24830468, 0.12496555, 0.27032515], "xyz": [1.4154173750210002, 1.00740690711735, 11.985710021018601], "label": "Li", "properties": {}}, {"species": [{"element": "Li", "occu": 1}], "abc": [0.74882161, 0.37499465, 0.31539074], "xyz": [4.26852654402325, 3.0230107460980498, 13.98383373857176], "label": "Li", "properties": {}}, {"species": [{"element": "Li", "occu": 1}], "abc": [0.25117329, 0.87499506, 0.31539072], "xyz": [1.43176938431925, 7.053752551303621, 13.98383285180928], "label": "Li", "properties": {}}, {"species": [{"element": "Li", "occu": 1}], "abc": [0.75034495, 0.6250199, 0.36061801], "xyz": [4.277210077108751, 5.0385835483923, 15.98912604401324], "label": "Li", "properties": {}}, {"species": [{"element": "Li", "occu": 1}], "abc": [0.24965011, 0.12501954, 0.36061811], "xyz": [1.4230867632857502, 1.00784214626058, 15.98913047782564], "label": "Li", "properties": {}}, {"species": [{"element": "Li", "occu": 1}], "abc": [0.74869138, 0.37501484, 0.4055186], "xyz": [4.2677841906985, 3.0231735073186803, 17.9799339711064], "label": "Li", "properties": {}}, {"species": [{"element": "Li", "occu": 1}], "abc": [0.25130399, 0.87501518, 0.40551859], "xyz": [1.4325144167967498, 7.05391474822086, 17.979933527725162], "label": "Li", "properties": {}}, {"species": [{"element": "Li", "occu": 1}], "abc": [0.75034459, 0.12501957, 0.3606181], "xyz": [4.27720802499175, 1.00784238810489, 15.9891300344444], "label": "Li", "properties": {}}, {"species": [{"element": "Li", "occu": 1}], "abc": [0.24964992, 0.62501994, 0.36061802000000004], "xyz": [1.4230856802240002, 5.03858387085138, 15.989126487394483], "label": "Li", "properties": {}}, {"species": [{"element": "Li", "occu": 1}], "abc": [0.74869167, 0.87501616, 0.40551868], "xyz": [4.26778584379275, 7.05392264846832, 17.979937518156323], "label": "Li", "properties": {}}, {"species": [{"element": "Li", "occu": 1}], "abc": [0.25130282, 0.37501585, 0.40551859], "xyz": [1.4325077474165, 3.02318164941045, 17.979933527725162], "label": "Li", "properties": {}}, {"species": [{"element": "Li", "occu": 1}], "abc": [0.75000612, 0.12500781, 0.45090345000000004], "xyz": [4.275278635989, 1.0077475851353699, 19.9922130781278], "label": "Li", "properties": {}}, {"species": [{"element": "Li", "occu": 1}], "abc": [0.24998688, 0.62500576, 0.45090395], "xyz": [1.425006461736, 5.0384695591075195, 19.9922352471898], "label": "Li", "properties": {}}, {"species": [{"element": "Li", "occu": 1}], "abc": [0.74968021, 0.87500841, 0.49659426000000007], "xyz": [4.27342084306825, 7.05386017202157, 22.018057877568243], "label": "Li", "properties": {}}, {"species": [{"element": "Li", "occu": 1}], "abc": [0.25031784, 0.37500135, 0.49659378], "xyz": [1.426893041298, 3.02306475799395, 22.01803659526872], "label": "Li", "properties": {}}, {"species": [{"element": "Li", "occu": 1}], "abc": [0.75000016, 0.62500821, 0.45090341], "xyz": [4.275244662052001, 5.038489309726169, 19.99221130460284], "label": "Li", "properties": {}}, {"species": [{"element": "Li", "occu": 1}], "abc": [0.24999094, 0.12500998, 0.45090257], "xyz": [1.4250296050555, 1.00776507854046, 19.99217406057868], "label": "Li", "properties": {}}, {"species": [{"element": "Li", "occu": 1}], "abc": [0.74960734, 0.37510369, 0.49659109], "xyz": [4.2730054603855, 3.02388976955013, 22.01791732571516], "label": "Li", "properties": {}}, {"species": [{"element": "Li", "occu": 1}], "abc": [0.25038982, 0.87510983, 0.49659072000000004], "xyz": [1.4273033506915, 7.05467776701891, 22.017900920609282], "label": "Li", "properties": {}}, {"species": [{"element": "Li", "occu": 1}], "abc": [0.74754123, 0.62500527, 0.54151561], "xyz": [4.26122796189975, 5.038465608983789, 24.009786264115643], "label": "Li", "properties": {}}, {"species": [{"element": "Li", "occu": 1}], "abc": [0.25245921, 0.12500318, 0.5415140700000001], "xyz": [1.43909954624325, 1.00771026049686, 24.009717983404684], "label": "Li", "properties": {}}, {"species": [{"element": "Li", "occu": 1}], "abc": [0.72388857, 0.37499, 0.58447156], "xyz": [4.12640011278525, 3.02297326023, 25.91437250175344], "label": "Li", "properties": {}}, {"species": [{"element": "Li", "occu": 1}], "abc": [0.27610749, 0.87499091, 0.58447081], "xyz": [1.5739024279342502, 7.05371909617407, 25.91433924816044], "label": "Li", "properties": {}}, {"species": [{"element": "Li", "occu": 1}], "abc": [0.74753156, 0.12500055, 0.54151284], "xyz": [4.261172839757, 1.00768905881235, 24.00966344751216], "label": "Li", "properties": {}}, {"species": [{"element": "Li", "occu": 1}], "abc": [0.25247044, 0.62500439, 0.54151108], "xyz": [1.4391635608930002, 5.03845851488403, 24.009585412413923], "label": "Li", "properties": {}}, {"species": [{"element": "Li", "occu": 1}], "abc": [0.7238859, 0.87499551, 0.5844727200000001], "xyz": [4.1263848929175, 7.0537561789682695, 25.914423933977282], "label": "Li", "properties": {}}, {"species": [{"element": "Li", "occu": 1}], "abc": [0.27610288, 0.37500209, 0.5844747100000001], "xyz": [1.573876149436, 3.02307072348693, 25.914512166844045], "label": "Li", "properties": {}}, {"species": [{"element": "S", "occu": 1}], "abc": [0.50000302, 0.62497511, 0.04352095], "xyz": [2.8501797149815, 5.03822247483747, 1.9296372776978001], "label": "S", "properties": {}}, {"species": [{"element": "S", "occu": 1}], "abc": [0.99999755, 0.87499138, 0.0001002800000000012], "xyz": [5.70031103420375, 7.05372288506826, 0.004446227074720054], "label": "S", "properties": {}}, {"species": [{"element": "S", "occu": 1}], "abc": [3.21e-06, 0.3749914, 9.99999999999994e-05], "xyz": [1.8298043250000003e-05, 3.0229845462978, 0.004433812399999973], "label": "S", "properties": {}}, {"species": [{"element": "S", "occu": 1}], "abc": [0.50000301, 0.124983, 0.043520939999999994], "xyz": [2.8501796579782503, 1.007547579891, 1.9296368343165597], "label": "S", "properties": {}}, {"species": [{"element": "S", "occu": 1}], "abc": [0.49999825, 0.12497768, 0.13477086], "xyz": [2.85015252443125, 1.00750469283336, 5.97548710226664], "label": "S", "properties": {}}, {"species": [{"element": "S", "occu": 1}], "abc": [5.69e-06, 0.37496564, 0.08992348], "xyz": [3.243484925e-05, 3.02277688265028, 3.98703840675152], "label": "S", "properties": {}}, {"species": [{"element": "S", "occu": 1}], "abc": [0.999998, 0.87496565, 0.08992249], "xyz": [5.70031359935, 7.05351546326505, 3.98699451200876], "label": "S", "properties": {}}, {"species": [{"element": "S", "occu": 1}], "abc": [0.49999826, 0.62497657, 0.13477087], "xyz": [2.8501525814345, 5.038234244593889, 5.975487545647879], "label": "S", "properties": {}}, {"species": [{"element": "S", "occu": 1}], "abc": [0.49999731, 0.62498368, 0.22527956], "xyz": [2.85014716612575, 5.0382915616953605, 9.98847306594544], "label": "S", "properties": {}}, {"species": [{"element": "S", "occu": 1}], "abc": [0.99999736, 0.87499353, 0.18011363000000002], "xyz": [5.700309951142, 7.05374021724381, 7.985900461030121], "label": "S", "properties": {}}, {"species": [{"element": "S", "occu": 1}], "abc": [0.99999733, 0.37499352, 0.18011349999999998], "xyz": [5.70030978013225, 3.02300163662904, 7.9858946970739995], "label": "S", "properties": {}}, {"species": [{"element": "S", "occu": 1}], "abc": [0.49999731, 0.12498377, 0.22527957000000004], "xyz": [2.85014716612575, 1.00755378722829, 9.988473509326681], "label": "S", "properties": {}}, {"species": [{"element": "S", "occu": 1}], "abc": [0.49999744, 0.12499218, 0.31540231], "xyz": [2.850147907168, 1.00762158424986, 13.984346730666442], "label": "S", "properties": {}}, {"species": [{"element": "S", "occu": 1}], "abc": [0.99999735, 0.37477494, 0.27025893], "xyz": [5.70030989413875, 3.02123955898638, 11.98277395044732], "label": "S", "properties": {}}, {"species": [{"element": "S", "occu": 1}], "abc": [0.99999736, 0.87477488, 0.27025902], "xyz": [5.700309951142, 7.0519775752977605, 11.982777940878481], "label": "S", "properties": {}}, {"species": [{"element": "S", "occu": 1}], "abc": [0.49999741, 0.62499248, 0.31540226], "xyz": [2.85014773615825, 5.0383625026929595, 13.98434451376024], "label": "S", "properties": {}}, {"species": [{"element": "S", "occu": 1}], "abc": [0.49999792, 0.62508019, 0.40560921], "xyz": [2.850150643324, 5.039069574840631, 17.98395144852204], "label": "S", "properties": {}}, {"species": [{"element": "S", "occu": 1}], "abc": [0.99999735, 0.87510985, 0.36049837], "xyz": [5.70030989413875, 7.0546779282484495, 15.98382143085788], "label": "S", "properties": {}}, {"species": [{"element": "S", "occu": 1}], "abc": [0.99999753, 0.37510978, 0.36049814], "xyz": [5.700310920197251, 3.02393886394506, 15.98381123308936], "label": "S", "properties": {}}, {"species": [{"element": "S", "occu": 1}], "abc": [0.49999711, 0.12507885, 0.40560819000000004], "xyz": [2.85014602606075, 1.00832027246145, 17.98390622363556], "label": "S", "properties": {}}, {"species": [{"element": "S", "occu": 1}], "abc": [0.50000863, 0.1250957, 0.49599912], "xyz": [2.85021169380475, 1.0084561083489, 21.991670486450882], "label": "S", "properties": {}}, {"species": [{"element": "S", "occu": 1}], "abc": [0.99999145, 0.37501868, 0.45106556000000003], "xyz": [5.700276262221251, 3.02320446339036, 19.99940073140944], "label": "S", "properties": {}}, {"species": [{"element": "S", "occu": 1}], "abc": [7.9e-06, 0.87504701, 0.45107107], "xyz": [4.503256750000001e-05, 7.05417134503377, 19.99964503447268], "label": "S", "properties": {}}, {"species": [{"element": "S", "occu": 1}], "abc": [0.49997365, 0.62507886, 0.49599949], "xyz": [2.85001229643625, 5.03905885307622, 21.99168689155676], "label": "S", "properties": {}}, {"species": [{"element": "S", "occu": 1}], "abc": [0.49997299, 0.62499888, 0.5860174], "xyz": [2.8500085342217503, 5.03841409614576, 25.982912147357602], "label": "S", "properties": {}}, {"species": [{"element": "S", "occu": 1}], "abc": [2.77e-06, 0.87500722, 0.54270081], "xyz": [1.5789900250000002e-05, 7.05385057886394, 24.06233580868044], "label": "S", "properties": {}}, {"species": [{"element": "S", "occu": 1}], "abc": [0.99998468, 0.37500595, 0.54270206], "xyz": [5.700237671021, 3.02310184078815, 24.06239123133544], "label": "S", "properties": {}}, {"species": [{"element": "S", "occu": 1}], "abc": [0.49998884, 0.12499715, 0.58601446], "xyz": [2.850098884373, 1.00766164979055, 25.98278179327304], "label": "S", "properties": {}}]}, "formula": "(Li2S)28.0", "bandgap": 3.4505, "slab_thickness": 25.978478334957604}