{"miller": "210_0.06", "final_energy": -449.69062549, "gamma": 0.042445606028011826, "work_function": 4.462798245186121, "ionization_potentail": -4.84129824518612, "electron_affinity": -1.4625982451861206, "is_stochiometric": true, "incar_parameters": {"SYSTEM": "unknown system", "LCOMPAT": false, "PREC": "normal", "ENMAX": 520.0, "ENAUG": 628.945, "EDIFF": 1e-05, "IALGO": 38, "IWAVPR": 11, "NBANDS": 286, "NBANDSLOW": -1, "NBANDSHIGH": -1, "NELECT": 456.0, "TURBO": 0, "IRESTART": 0, "NREBOOT": 0, "NMIN": 0, "EREF": 0.0, "ISMEAR": 0, "SIGMA": 0.05, "KSPACING": 0.5, "KGAMMA": true, "KBLOWUP": true, "LREAL": true, "ROPT": [-0.0005, -0.0005], "LMAXPAW": -100, "LMAXMIX": 2, "NLSPLINE": false, "ISTART": 0, "ICHARG": 2, "INIWAV": 1, "ISPIN": 1, "LNONCOLLINEAR": false, "MAGMOM": [0.6, 0.6, 0.6, 0.6, 0.6, 0.6, 0.6, 0.6, 0.6, 0.6, 0.6, 0.6, 0.6, 0.6, 0.6, 0.6, 0.6, 0.6, 0.6, 0.6, 0.6, 0.6, 0.6, 0.6, 0.6, 0.6, 0.6, 0.6, 0.6, 0.6, 0.6, 0.6, 0.6, 0.6, 0.6, 0.6, 0.6, 0.6, 0.6, 0.6, 0.6, 0.6, 0.6, 0.6, 0.6, 0.6, 0.6, 0.6, 0.6, 0.6, 0.6, 0.6, 0.6, 0.6, 0.6, 0.6, 0.6, 0.6, 0.6, 0.6, 0.6, 0.6, 0.6, 0.6, 0.6, 0.6, 0.6, 0.6, 0.6, 0.6, 0.6, 0.6, 0.6, 0.6, 0.6, 0.6, 0.6, 0.6, 0.6, 0.6, 0.6, 0.6, 0.6, 0.6, 0.6, 0.6, 0.6, 0.6, 0.6, 0.6, 0.6, 0.6, 0.6, 0.6, 0.6, 0.6, 0.6, 0.6, 0.6, 0.6, 0.6, 0.6, 0.6, 0.6, 0.6, 0.6, 0.6, 0.6, 0.6, 0.6, 0.6, 0.6, 0.6, 0.6], "NUPDOWN": -1.0, "LSORBIT": false, "SAXIS": [0.0, 0.0, 1.0], "LSPIRAL": false, "QSPIRAL": [0.0, 0.0, 0.0], "LZEROZ": false, "LASPH": false, "LMETAGGA": false, "NELM": 100, "NELMDL": -5, "NELMIN": 6, "ENINI": 520.0, "LDIAG": true, "LSUBROT": false, "WEIMIN": 0.001, "EBREAK": 1e-08, "DEPER": 0.3, "NRMM": 4, "TIME": 0.4, "AMIX": 0.4, "BMIX": 1.0, "AMIN": 0.1, "AMIX_MAG": 1.6, "BMIX_MAG": 1.0, "IMIX": 4, "MIXFIRST": false, "MAXMIX": -45, "WC": 100.0, "INIMIX": 1, "MIXPRE": 1, "MREMOVE": 5, "LDIPOL": false, "LMONO": false, "IDIPOL": 0, "EPSILON": 1.0, "DIPOL": [-100.0, -100.0, -100.0], "EFIELD": 0.0, "NGX": 32, "NGY": 72, "NGZ": 240, "NGXF": 64, "NGYF": 144, "NGZF": 480, "ADDGRID": false, "NSW": 150, "IBRION": 2, "MDALGO": 0, "ISIF": 2, "PSTRESS": 0.0, "EDIFFG": -0.01, "NFREE": 1, "POTIM": 0.5, "SMASS": -3.0, "SCALEE": 1.0, "TEBEG": 0.0001, "TEEND": 0.0001, "NBLOCK": 1, "KBLOCK": 150, "NPACO": 256, "APACO": 10.0, "ISYM": 0, "SYMPREC": 1e-05, "LORBIT": 11, "RWIGS": [-1.0, -1.0], "NEDOS": 301, "EMIN": 10.0, "EMAX": -10.0, "EFERMI": 0.0, "NWRITE": 2, "LWAVE": false, "LDOWNSAMPLE": false, "LCHARG": false, "LPARD": false, "LVTOT": false, "LVHAR": false, "LELF": false, "LOPTICS": false, "STM": [0.0, 0.0, 0.0, 0.0, 0.0, 0.0, 0.0], "NPAR": 1, "NSIM": 4, "NBLK": -1, "LPLANE": true, "LSCALAPACK": true, "LSCAAWARE": false, "LSCALU": false, "LASYNC": false, "LORBITALREAL": false, "IDIOT": 3, "PHON_NSTRUCT": -1, "LMUSIC": false, "POMASS": [7.01, 32.066], "DARWINR": [0.0, 0.0], "DARWINV": [1.0, 1.0], "LCORR": true, "GGA_COMPAT": true, "LBERRY": false, "ICORELEVEL": 0, "LDAU": false, "I_CONSTRAINED_M": 0, "GGA": "--", "VOSKOWN": 0, "LHFCALC": false, "PRECFOCK": "", "LSYMGRAD": false, "LHFONE": false, "LRHFCALC": false, "LTHOMAS": false, "LMODELHF": false, "LFOCKACE": false, "ENCUT4O": -1.0, "EXXOEP": 0, "FOURORBIT": 0, "AEXX": 0.0, "HFALPHA": 0.0, "MCALPHA": 0.0, "ALDAX": 1.0, "AGGAX": 1.0, "ALDAC": 1.0, "AGGAC": 1.0, "NKREDX": 1, "NKREDY": 1, "NKREDZ": 1, "SHIFTRED": false, "ODDONLY": false, "EVENONLY": false, "LMAXFOCK": 0, "NMAXFOCKAE": 0, "LFOCKAEDFT": false, "HFSCREEN": 0.0, "HFSCREENC": 0.0, "NBANDSGWLOW": 0, "LUSE_VDW": false, "Zab_VDW": -0.8491, "PARAM1": 0.1234, "PARAM2": 1.0, "PARAM3": 0.0, "MODEL_GW": 0, "MODEL_EPS0": 15.59786896, "MODEL_ALPHA": 1.0, "LEPSILON": false, "LRPA": false, "LNABLA": false, "LVEL": false, "CSHIFT": 0.1, "OMEGAMAX": -1.0, "DEG_THRESHOLD": 0.002, "RTIME": -0.1, "WPLASMAI": 0.0, "DFIELD": [0.0, 0.0, 0.0], "WPLASMA": [0.0, 0.0, 0.0, 0.0, 0.0, 0.0, 0.0, 0.0, 0.0], "NUCIND": false, "MAGPOS": [0.0, 0.0, 0.0], "LNICSALL": true, "ORBITALMAG": false, "LMAGBLOCH": false, "LCHIMAG": false, "LGAUGE": true, "MAGATOM": 0, "MAGDIPOL": [0.0, 0.0, 0.0], "AVECCONST": [0.0, 0.0, 0.0], "LFINITE_TEMPERATURE": false, "LADDER": false, "LRPAFORCE": false, "LFXC": false, "LHARTREE": true, "IBSE": 0, "KPOINT": [-1, 0, 0, 0], "LTCTC": false, "LTCTE": false, "LTETE": false, "LTRIPLET": false, "LFXCEPS": false, "LFXHEG": false, "NATURALO": 2, "LHOLEGF": false, "L2ORDER": false, "LDMP1": false, "LMP2LT": false, "LSMP2LT": false, "LGWLF": false, "ENCUTGW": -2.0, "ENCUTGWSOFT": -2.0, "ENCUTLF": -1.0, "LESF_SPLINES": false, "LMAXMP2": -1, "SCISSOR": 0.0, "NOMEGA": 0, "NOMEGAR": 0, "NBANDSGW": -1, "NBANDSO": -1, "NBANDSV": -1, "NELMGW": 1, "NELMHF": 1, "DIM": 3, "IESPILON": 4, "ANTIRES": 0, "OMEGAMIN": -30.0, "OMEGATL": -200.0, "OMEGAGRID": 0, "LSELFENERGY": false, "LSPECTRAL": false, "LSPECTRALGW": false, "LSINGLES": false, "LFERMIGW": false, "ODDONLYGW": false, "EVENONLYGW": false, "NKREDLFX": 1, "NKREDLFY": 1, "NKREDLFZ": 1, "MAXMEM": 2800, "TELESCOPE": 0, "NTAUPAR": -1, "NOMEGAPAR": -1, "DAMP_NEWTON": 0.80000001, "LAMBDA": 1.0, "OFIELD_KAPPA": 0.0, "OFIELD_K": [0.0, 0.0, 0.0], "OFIELD_Q6_NEAR": 0.0, "OFIELD_Q6_FAR": 0.0, "OFIELD_A": 0.0, "KPOINTS_OPT_MODE": 1, "LKPOINTS_OPT": false, "@module": "pymatgen.io.vasp.inputs", "@class": "Incar"}, "relaxed_structures": {"@module": "pymatgen.core.structure", "@class": "Structure", "charge": 0, "lattice": {"matrix": [[5.700325, 0.0, 0.0], [0.0, 12.746315, 0.0], [0.0, 0.0, 40.788206]], "a": 5.700325, "b": 12.746315, "c": 40.788206, "alpha": 90.0, "beta": 90.0, "gamma": 90.0, "volume": 2963.5951024567103}, "sites": [{"species": [{"element": "Li", "occu": 1}], "abc": [0.73707207, 0.77138312, 0.05426172], "xyz": [4.20155034742275, 9.832292233202798, 2.21323821327432], "label": "Li", "properties": {}}, {"species": [{"element": "Li", "occu": 1}], "abc": [0.24002843, 0.0682722, 0.03085329], "xyz": [1.36824006023975, 0.870218966943, 1.25845034829774], "label": "Li", "properties": {}}, {"species": [{"element": "Li", "occu": 1}], "abc": [0.24197378, 0.4618506, 0.08959832], "xyz": [1.3793291874785, 5.886893230539, 3.65455473341392], "label": "Li", "properties": {}}, {"species": [{"element": "Li", "occu": 1}], "abc": [0.76295976, 0.27138641, 0.05425930999999999], "xyz": [4.349118593922, 3.45917666857915, 2.2131399136978596], "label": "Li", "properties": {}}, {"species": [{"element": "Li", "occu": 1}], "abc": [0.25804633, 0.96183371, 0.08960247], "xyz": [1.47094794605725, 12.259835445278648, 3.6547240044688203], "label": "Li", "properties": {}}, {"species": [{"element": "Li", "occu": 1}], "abc": [0.25995495, 0.56825886, 0.030846779999999997], "xyz": [1.48182770035875, 7.2432064311009, 1.25818481707668], "label": "Li", "properties": {}}, {"species": [{"element": "Li", "occu": 1}], "abc": [0.7914224, 0.06900722, 0.030295739999999995], "xyz": [4.5113648922800005, 0.8795877633942999, 1.23570888404244], "label": "Li", "properties": {}}, {"species": [{"element": "Li", "occu": 1}], "abc": [0.74296213, 0.46149767, 0.08952391], "xyz": [4.23512560369225, 5.88239467358605, 3.65151968300546], "label": "Li", "properties": {}}, {"species": [{"element": "Li", "occu": 1}], "abc": [0.32279835, 0.31760388, 9.99999999999994e-05], "xyz": [1.84005550446375, 4.0482790997022, 0.004078820599999975], "label": "Li", "properties": {}}, {"species": [{"element": "Li", "occu": 1}], "abc": [0.25530477, 0.76215703, 0.060000029999999996], "xyz": [1.4553201630502501, 9.714693583844449, 2.44729358364618], "label": "Li", "properties": {}}, {"species": [{"element": "Li", "occu": 1}], "abc": [0.75706677, 0.9615007, 0.08952517], "xyz": [4.31552663570025, 12.255590794920499, 3.65157107614502], "label": "Li", "properties": {}}, {"species": [{"element": "Li", "occu": 1}], "abc": [0.70859689, 0.56900268, 0.030303529999999995], "xyz": [4.03923256698925, 7.252687395124199, 1.2360266241671798], "label": "Li", "properties": {}}, {"species": [{"element": "Li", "occu": 1}], "abc": [0.24471781, 0.2621798, 0.059987349999999995], "xyz": [1.3949710502882502, 3.341826317437, 2.4467763891941], "label": "Li", "properties": {}}, {"species": [{"element": "Li", "occu": 1}], "abc": [0.17780648, 0.81756894, 0.00017957000000000042], "xyz": [1.013554723106, 10.420991243456099, 0.007324338151420018], "label": "Li", "properties": {}}, {"species": [{"element": "Li", "occu": 1}], "abc": [0.7550058, 0.16414932, 0.12002629999999999], "xyz": [4.303778436885, 2.0922989397558, 4.8956574498178], "label": "Li", "properties": {}}, {"species": [{"element": "Li", "occu": 1}], "abc": [0.74941614, 0.56302758, 0.1826451], "xyz": [4.2719155582455, 7.176526888367699, 7.4497659636906], "label": "Li", "properties": {}}, {"species": [{"element": "Li", "occu": 1}], "abc": [0.25152914, 0.86299705, 0.15175956000000002], "xyz": [1.4337978449705, 11.00003224337075, 6.190000195749361], "label": "Li", "properties": {}}, {"species": [{"element": "Li", "occu": 1}], "abc": [0.24982828, 0.26263622, 0.21391346], "xyz": [1.4241023901910002, 3.3476439905292996, 8.725146272652761], "label": "Li", "properties": {}}, {"species": [{"element": "Li", "occu": 1}], "abc": [0.75061667, 0.06302342, 0.18264951000000001], "xyz": [4.27875896941775, 0.8033163636972999, 7.449945839679061], "label": "Li", "properties": {}}, {"species": [{"element": "Li", "occu": 1}], "abc": [0.74499747, 0.66414456, 0.12002427], "xyz": [4.246727703177751, 8.4653957672964, 4.89557464975962], "label": "Li", "properties": {}}, {"species": [{"element": "Li", "occu": 1}], "abc": [0.25022533, 0.76263861, 0.21391266], "xyz": [1.4263657042322502, 9.720831954222149, 8.72511364208796], "label": "Li", "properties": {}}, {"species": [{"element": "Li", "occu": 1}], "abc": [0.24849614, 0.36296425, 0.15174941], "xyz": [1.4165087592455001, 4.6264566642387495, 6.18958619545846], "label": "Li", "properties": {}}, {"species": [{"element": "Li", "occu": 1}], "abc": [0.75299816, 0.86371092, 0.15175370000000002], "xyz": [4.2923342364020005, 11.0091314552598, 6.189761176862201], "label": "Li", "properties": {}}, {"species": [{"element": "Li", "occu": 1}], "abc": [0.7501376, 0.26261142, 0.21392032000000002], "xyz": [4.27602811472, 3.3473278819172996, 8.72542607974592], "label": "Li", "properties": {}}, {"species": [{"element": "Li", "occu": 1}], "abc": [0.25299946, 0.16185584, 0.12046491], "xyz": [1.4421791468245002, 2.0630655212296, 4.91354756485146], "label": "Li", "properties": {}}, {"species": [{"element": "Li", "occu": 1}], "abc": [0.24838185, 0.5628439, 0.18270853], "xyz": [1.41585726910125, 7.174185645228499, 7.45235315959718], "label": "Li", "properties": {}}, {"species": [{"element": "Li", "occu": 1}], "abc": [0.74986435, 0.76263011, 0.21392315], "xyz": [4.27447050091375, 9.720723610544649, 8.7255415103689], "label": "Li", "properties": {}}, {"species": [{"element": "Li", "occu": 1}], "abc": [0.74700844, 0.36370218, 0.15174895000000002], "xyz": [4.258190885743001, 4.635862552466699, 6.189567432883702], "label": "Li", "properties": {}}, {"species": [{"element": "Li", "occu": 1}], "abc": [0.2518158, 0.06287664, 0.18271624], "xyz": [1.435431900135, 0.8014454595816, 7.45266763666544], "label": "Li", "properties": {}}, {"species": [{"element": "Li", "occu": 1}], "abc": [0.24691484, 0.66212673, 0.12052487999999999], "xyz": [1.4074948353230001, 8.439675870499949, 4.91599363356528], "label": "Li", "properties": {}}, {"species": [{"element": "Li", "occu": 1}], "abc": [0.75208058, 0.96371057, 0.24501066], "xyz": [4.2871037321885, 12.28375849404955, 9.993545272275961], "label": "Li", "properties": {}}, {"species": [{"element": "Li", "occu": 1}], "abc": [0.75026482, 0.36210232, 0.30725626], "xyz": [4.276753310066501, 4.615470232950799, 12.532431627669562], "label": "Li", "properties": {}}, {"species": [{"element": "Li", "occu": 1}], "abc": [0.24978992, 0.66240748, 0.27625095], "xyz": [1.423883725724, 8.443254398436201, 11.2677806562957], "label": "Li", "properties": {}}, {"species": [{"element": "Li", "occu": 1}], "abc": [0.24980436, 0.06211048, 0.3381532], "xyz": [1.423966038417, 0.7916797428812, 13.7926623811592], "label": "Li", "properties": {}}, {"species": [{"element": "Li", "occu": 1}], "abc": [0.74975743, 0.86208827, 0.30725156000000003], "xyz": [4.27386102216475, 10.988448647225049, 12.532239923101363], "label": "Li", "properties": {}}, {"species": [{"element": "Li", "occu": 1}], "abc": [0.74862502, 0.46363663, 0.24489901000000003], "xyz": [4.2674059171315, 5.909658531518449, 9.988991269076061], "label": "Li", "properties": {}}, {"species": [{"element": "Li", "occu": 1}], "abc": [0.25012764, 0.5620943, 0.33815119], "xyz": [1.425808839483, 7.1646310075045, 13.79258039686514], "label": "Li", "properties": {}}, {"species": [{"element": "Li", "occu": 1}], "abc": [0.25018636, 0.16241925, 0.27625733], "xyz": [1.426143562567, 2.07024692256375, 11.268040885049981], "label": "Li", "properties": {}}, {"species": [{"element": "Li", "occu": 1}], "abc": [0.75022177, 0.66241214, 0.27624218], "xyz": [4.27650791107525, 8.4433137962641, 11.26742294372908], "label": "Li", "properties": {}}, {"species": [{"element": "Li", "occu": 1}], "abc": [0.75002369, 0.06216642, 0.33814039], "xyz": [4.27537879069925, 0.7923927717422999, 13.792139884240342], "label": "Li", "properties": {}}, {"species": [{"element": "Li", "occu": 1}], "abc": [0.2502616, 0.9636214, 0.24484450000000002], "xyz": [1.4265724550199999, 12.282621905141, 9.986767903967001], "label": "Li", "properties": {}}, {"species": [{"element": "Li", "occu": 1}], "abc": [0.24966959, 0.36210685, 0.30724775], "xyz": [1.42319780561675, 4.615527973757749, 12.5320845200365], "label": "Li", "properties": {}}, {"species": [{"element": "Li", "occu": 1}], "abc": [0.74994795, 0.56215894, 0.33813326], "xyz": [4.27494704808375, 7.165454929306099, 13.79184906433156], "label": "Li", "properties": {}}, {"species": [{"element": "Li", "occu": 1}], "abc": [0.74979583, 0.16244643, 0.27624654], "xyz": [4.274079914644751, 2.0705933674054497, 11.26760078030724], "label": "Li", "properties": {}}, {"species": [{"element": "Li", "occu": 1}], "abc": [0.25057781, 0.86234669, 0.30721464000000004], "xyz": [1.42837495478825, 10.991742549947348, 12.530734022535842], "label": "Li", "properties": {}}, {"species": [{"element": "Li", "occu": 1}], "abc": [0.24985675, 0.46361045, 0.24484994], "xyz": [1.42426467844375, 5.90932483299175, 9.98698979180764], "label": "Li", "properties": {}}, {"species": [{"element": "Li", "occu": 1}], "abc": [0.75005053, 0.76230095, 0.3691275], "xyz": [4.27553178742225, 9.71652803349925, 15.056048510265], "label": "Li", "properties": {}}, {"species": [{"element": "Li", "occu": 1}], "abc": [0.74985733, 0.16213306, 0.43089336], "xyz": [4.2744304846322505, 2.0665990546738997, 17.575367131712163], "label": "Li", "properties": {}}, {"species": [{"element": "Li", "occu": 1}], "abc": [0.25240158, 0.46171419, 0.40067774], "xyz": [1.4387710365135002, 5.88515450570985, 16.342926198734443], "label": "Li", "properties": {}}, {"species": [{"element": "Li", "occu": 1}], "abc": [0.24699119, 0.86087762, 0.46351931], "xyz": [1.4079300551367502, 10.9730173209703, 18.906121101257863], "label": "Li", "properties": {}}, {"species": [{"element": "Li", "occu": 1}], "abc": [0.75011431, 0.66214248, 0.43088032000000004], "xyz": [4.27589535415075, 8.4398766249612, 17.574835253505924], "label": "Li", "properties": {}}, {"species": [{"element": "Li", "occu": 1}], "abc": [0.74770332, 0.26208316, 0.36922823], "xyz": [4.262151927579, 3.3405945135553994, 15.06015710625538], "label": "Li", "properties": {}}, {"species": [{"element": "Li", "occu": 1}], "abc": [0.25320018, 0.36102081, 0.46350281], "xyz": [1.4433233160585, 4.60168496581515, 18.905448095858862], "label": "Li", "properties": {}}, {"species": [{"element": "Li", "occu": 1}], "abc": [0.24759927, 0.96170337, 0.40067909], "xyz": [1.4113963087627501, 12.258174090581548, 16.342981262812543], "label": "Li", "properties": {}}, {"species": [{"element": "Li", "occu": 1}], "abc": [0.75248967, 0.46209803, 0.40019886], "xyz": [4.28943567814275, 5.890047051259449, 16.32339354264516], "label": "Li", "properties": {}}, {"species": [{"element": "Li", "occu": 1}], "abc": [0.74933895, 0.86178405, 0.46218756], "xyz": [4.27147555015875, 10.98457096327575, 18.85180140791736], "label": "Li", "properties": {}}, {"species": [{"element": "Li", "occu": 1}], "abc": [0.24935553, 0.762296, 0.36907428000000003], "xyz": [1.4214075615472501, 9.71646493924, 15.053877761941683], "label": "Li", "properties": {}}, {"species": [{"element": "Li", "occu": 1}], "abc": [0.24956296, 0.16216363, 0.43088205], "xyz": [1.422589979962, 2.06698870952345, 17.5749058171023], "label": "Li", "properties": {}}, {"species": [{"element": "Li", "occu": 1}], "abc": [0.75091895, 0.3617779, 0.46222527], "xyz": [4.28048206365875, 4.611335073438499, 18.853339531165624], "label": "Li", "properties": {}}, {"species": [{"element": "Li", "occu": 1}], "abc": [0.74795134, 0.96228875, 0.40021656], "xyz": [4.2635657221855, 12.265635528456249, 16.324115493891362], "label": "Li", "properties": {}}, {"species": [{"element": "Li", "occu": 1}], "abc": [0.25043106, 0.6621495, 0.43086994], "xyz": [1.4275384320945, 8.439966104092498, 17.57441187192764], "label": "Li", "properties": {}}, {"species": [{"element": "Li", "occu": 1}], "abc": [0.2493157, 0.26230048, 0.36908385], "xyz": [1.4211805176025, 3.3433645427311998, 15.0542681050731], "label": "Li", "properties": {}}, {"species": [{"element": "Li", "occu": 1}], "abc": [0.75798209, 0.56264355, 0.49312406], "xyz": [4.320744257179251, 7.17163192101825, 20.11364574283636], "label": "Li", "properties": {}}, {"species": [{"element": "Li", "occu": 1}], "abc": [0.7596868, 0.95732829, 0.55177301], "xyz": [4.33046165821, 12.202407942751348, 22.505831197120063], "label": "Li", "properties": {}}, {"species": [{"element": "Li", "occu": 1}], "abc": [0.26237039, 0.25321306, 0.5293151], "xyz": [1.49559649337675, 3.2275334248739, 21.589813337710602], "label": "Li", "properties": {}}, {"species": [{"element": "Li", "occu": 1}], "abc": [0.74056057, 0.45720694, 0.5517639400000001], "xyz": [4.22143593118525, 5.8277036774261, 22.505461248091645], "label": "Li", "properties": {}}, {"species": [{"element": "Li", "occu": 1}], "abc": [0.74203673, 0.06264659, 0.49312279000000003], "xyz": [4.229850522937251, 0.79851316981585, 20.11359394181474], "label": "Li", "properties": {}}, {"species": [{"element": "Li", "occu": 1}], "abc": [0.23775185, 0.75322404, 0.52931156], "xyz": [1.35526281435125, 9.6008308794126, 21.589668947461362], "label": "Li", "properties": {}}, {"species": [{"element": "Li", "occu": 1}], "abc": [0.74488612, 0.26176596, 0.52306609], "xyz": [4.246092971989, 3.3365513824374, 21.33492743053454], "label": "Li", "properties": {}}, {"species": [{"element": "Li", "occu": 1}], "abc": [0.67255885, 0.70829868, 0.58278353], "xyz": [3.8338040266262503, 9.0281980893642, 23.770694675047185], "label": "Li", "properties": {}}, {"species": [{"element": "Li", "occu": 1}], "abc": [0.25650568, 0.56401199, 0.4933463], "xyz": [1.4621657403460002, 7.18907448831685, 20.1227105137378], "label": "Li", "properties": {}}, {"species": [{"element": "Li", "occu": 1}], "abc": [0.20756268, 0.95544289, 0.55320477], "xyz": [1.1831747338710001, 12.178376040450349, 22.56423011894262], "label": "Li", "properties": {}}, {"species": [{"element": "Li", "occu": 1}], "abc": [0.82752461, 0.20829206, 0.582804], "xyz": [4.717159222498251, 2.6549562087589, 23.771529609624], "label": "Li", "properties": {}}, {"species": [{"element": "Li", "occu": 1}], "abc": [0.75534425, 0.76185633, 0.52306859], "xyz": [4.305707711881251, 9.710860766923949, 21.335029401049542], "label": "Li", "properties": {}}, {"species": [{"element": "Li", "occu": 1}], "abc": [0.29242468, 0.45544292, 0.55320214], "xyz": [1.666915714021, 5.805218922839799, 22.564122845960842], "label": "Li", "properties": {}}, {"species": [{"element": "Li", "occu": 1}], "abc": [0.24354624, 0.06402004, 0.49334221], "xyz": [1.388292720528, 0.8160195961526, 20.122543689975263], "label": "Li", "properties": {}}, {"species": [{"element": "S", "occu": 1}], "abc": [0.48772931, 0.41499786, 0.042547169999999995], "xyz": [2.78021557902575, 5.2896934478859, 1.73542273467702], "label": "S", "properties": {}}, {"species": [{"element": "S", "occu": 1}], "abc": [0.50289361, 0.81358083, 0.10537076], "xyz": [2.86665701742325, 10.37015753714145, 4.29788426525656], "label": "S", "properties": {}}, {"species": [{"element": "S", "occu": 1}], "abc": [0.99715387, 0.3135336, 0.10536168], "xyz": [5.68410113400775, 3.996398028684, 4.2975139083460805], "label": "S", "properties": {}}, {"species": [{"element": "S", "occu": 1}], "abc": [0.01230578, 0.91498961, 0.042572399999999996], "xyz": [0.07014694537850001, 11.662745790787149, 1.7364518211144], "label": "S", "properties": {}}, {"species": [{"element": "S", "occu": 1}], "abc": [0.02100602, 0.20814335, 0.01179542], "xyz": [0.11974114095650001, 2.65306070425525, 0.48111402081652], "label": "S", "properties": {}}, {"species": [{"element": "S", "occu": 1}], "abc": [0.98855892, 0.61251594, 0.07288293], "xyz": [5.635107125649, 7.807321113761099, 2.97276396272358], "label": "S", "properties": {}}, {"species": [{"element": "S", "occu": 1}], "abc": [0.51150686, 0.11250588, 0.07287888], "xyz": [2.9157553417295, 1.4340353858322, 2.97259877048928], "label": "S", "properties": {}}, {"species": [{"element": "S", "occu": 1}], "abc": [0.47920503, 0.70810719, 0.011806829999999999], "xyz": [2.73162441263475, 9.02575729750485, 0.48157941424698], "label": "S", "properties": {}}, {"species": [{"element": "S", "occu": 1}], "abc": [0.50038492, 0.21285373, 0.16698628000000001], "xyz": [2.852356669099, 2.7131006915049496, 6.811070787813681], "label": "S", "properties": {}}, {"species": [{"element": "S", "occu": 1}], "abc": [0.49969482, 0.61289737, 0.22938101000000002], "xyz": [2.8484228748165, 7.8121829406915495, 9.35603988836806], "label": "S", "properties": {}}, {"species": [{"element": "S", "occu": 1}], "abc": [0.00038051, 0.11292833, 0.22939276], "xyz": [0.00216903066575, 1.4394200666039498, 9.35651914978856], "label": "S", "properties": {}}, {"species": [{"element": "S", "occu": 1}], "abc": [0.99962698, 0.71286602, 0.16699867000000002], "xyz": [5.6981986647685, 9.0864148437163, 6.811576153686021], "label": "S", "properties": {}}, {"species": [{"element": "S", "occu": 1}], "abc": [0.00321469, 0.01333046, 0.13605082000000002], "xyz": [0.01832477777425, 0.16991424225489998, 5.549268872628921], "label": "S", "properties": {}}, {"species": [{"element": "S", "occu": 1}], "abc": [0.99890331, 0.41294004, 0.19840239], "xyz": [5.69407351057575, 5.263463825952599, 8.09247755421234], "label": "S", "properties": {}}, {"species": [{"element": "S", "occu": 1}], "abc": [0.50128763, 0.91300413, 0.19841766000000002], "xyz": [2.85750240947975, 11.63743823728095, 8.09310039011796], "label": "S", "properties": {}}, {"species": [{"element": "S", "occu": 1}], "abc": [0.49680094, 0.51334915, 0.13604804], "xyz": [2.8319268183055004, 6.54330997088225, 5.549155481416241], "label": "S", "properties": {}}, {"species": [{"element": "S", "occu": 1}], "abc": [0.50022717, 0.0126634, 0.29160939], "xyz": [2.8514574428302506, 0.16141168537099998, 11.894223870854342], "label": "S", "properties": {}}, {"species": [{"element": "S", "occu": 1}], "abc": [0.50003894, 0.41216316, 0.35375286], "xyz": [2.8503844706555004, 5.253561468755399, 14.428944526769161], "label": "S", "properties": {}}, {"species": [{"element": "S", "occu": 1}], "abc": [0.99966665, 0.91218623, 0.35373595], "xyz": [5.69842479666125, 11.62701302624245, 14.428254798205701], "label": "S", "properties": {}}, {"species": [{"element": "S", "occu": 1}], "abc": [0.99990999, 0.51259413, 0.29158803], "xyz": [5.699811913746751, 6.533686248130949, 11.89335263477418], "label": "S", "properties": {}}, {"species": [{"element": "S", "occu": 1}], "abc": [0.000316, 0.81277253, 0.26057668], "xyz": [0.0018013027, 10.35985469072695, 10.62845530263608], "label": "S", "properties": {}}, {"species": [{"element": "S", "occu": 1}], "abc": [0.99947698, 0.21231672, 0.32274202], "xyz": [5.6973436160185, 2.7062557928868, 13.164067996616122], "label": "S", "properties": {}}, {"species": [{"element": "S", "occu": 1}], "abc": [0.5001035, 0.71231123, 0.32269151], "xyz": [2.8507524836375002, 9.079343315617448, 13.162007784331061], "label": "S", "properties": {}}, {"species": [{"element": "S", "occu": 1}], "abc": [0.49976238, 0.31276243, 0.26057410000000003], "xyz": [2.8488079887735003, 3.9865684529454497, 10.628350069064602], "label": "S", "properties": {}}, {"species": [{"element": "S", "occu": 1}], "abc": [0.49927669, 0.81226121, 0.41595603000000003], "xyz": [2.84603939792425, 10.353337244941148, 16.966100238582182], "label": "S", "properties": {}}, {"species": [{"element": "S", "occu": 1}], "abc": [0.49732124, 0.21145521, 0.47759188], "xyz": [2.834892697403, 2.69527471505115, 19.48011598536728], "label": "S", "properties": {}}, {"species": [{"element": "S", "occu": 1}], "abc": [0.00282782, 0.71146244, 0.47757632], "xyz": [0.0161194930415, 9.0685243709086, 19.47948132088192], "label": "S", "properties": {}}, {"species": [{"element": "S", "occu": 1}], "abc": [0.00055129, 0.31219571, 0.41596898], "xyz": [0.00314253216925, 3.97934486130865, 16.96662844584988], "label": "S", "properties": {}}, {"species": [{"element": "S", "occu": 1}], "abc": [0.00068315, 0.61209875, 0.38457369], "xyz": [0.00389417702375, 7.80200347860625, 15.686070889900142], "label": "S", "properties": {}}, {"species": [{"element": "S", "occu": 1}], "abc": [0.99694925, 0.01177095, 0.44691793], "xyz": [5.682934733506251, 0.15003623654925, 18.22898059393358], "label": "S", "properties": {}}, {"species": [{"element": "S", "occu": 1}], "abc": [0.50313283, 0.51174181, 0.44691079], "xyz": [2.86802064916975, 6.522822308930149, 18.228689366142742], "label": "S", "properties": {}}, {"species": [{"element": "S", "occu": 1}], "abc": [0.49885405, 0.1120368, 0.38459608], "xyz": [2.84363021256625, 1.428056344392, 15.68698413783248], "label": "S", "properties": {}}, {"species": [{"element": "S", "occu": 1}], "abc": [0.51169199, 0.60981278, 0.54040941], "xyz": [2.91681064289675, 7.7728657849057, 22.04233033941846], "label": "S", "properties": {}}, {"species": [{"element": "S", "occu": 1}], "abc": [0.98844424, 0.1098282, 0.5404227500000001], "xyz": [5.634453412378, 1.399904833083, 22.042874454086505], "label": "S", "properties": {}}, {"species": [{"element": "S", "occu": 1}], "abc": [0.0119117, 0.41253836, 0.51022764], "xyz": [0.06790056130250001, 5.2583438861433995, 20.811270087213842], "label": "S", "properties": {}}, {"species": [{"element": "S", "occu": 1}], "abc": [0.97647324, 0.81689832, 0.57137637], "xyz": [5.566214821803, 10.412443309690799, 23.30541708309222], "label": "S", "properties": {}}, {"species": [{"element": "S", "occu": 1}], "abc": [0.52355308, 0.31686504, 0.57137476], "xyz": [2.984422710751, 4.0388616123276, 23.30535141408056], "label": "S", "properties": {}}, {"species": [{"element": "S", "occu": 1}], "abc": [0.48821375, 0.91261358, 0.51022025], "xyz": [2.7829770444687503, 11.632460163957699, 20.810968662371504], "label": "S", "properties": {}}]}, "formula": "(Li2S)38.0", "bandgap": 3.3787000000000003, "slab_thickness": 23.767450789024}