{"miller": "221_0.06", "final_energy": -642.6594931, "gamma": 0.02636233238641308, "work_function": 4.673817757350317, "ionization_potentail": -4.967517757350317, "electron_affinity": -1.4962177573503173, "is_stochiometric": true, "incar_parameters": {"SYSTEM": "unknown system", "LCOMPAT": false, "PREC": "normal", "ENMAX": 520.0, "ENAUG": 628.945, "EDIFF": 1e-05, "IALGO": 38, "IWAVPR": 11, "NBANDS": 406, "NBANDSLOW": -1, "NBANDSHIGH": -1, "NELECT": 648.0, "TURBO": 0, "IRESTART": 0, "NREBOOT": 0, "NMIN": 0, "EREF": 0.0, "ISMEAR": 0, "SIGMA": 0.05, "KSPACING": 0.5, "KGAMMA": true, "KBLOWUP": false, "LREAL": true, "ROPT": [-0.0005, -0.0005], "LMAXPAW": -100, "LMAXMIX": 2, "NLSPLINE": false, "ISTART": 0, "ICHARG": 2, "INIWAV": 1, "ISPIN": 1, "LNONCOLLINEAR": false, "MAGMOM": [0.6, 0.6, 0.6, 0.6, 0.6, 0.6, 0.6, 0.6, 0.6, 0.6, 0.6, 0.6, 0.6, 0.6, 0.6, 0.6, 0.6, 0.6, 0.6, 0.6, 0.6, 0.6, 0.6, 0.6, 0.6, 0.6, 0.6, 0.6, 0.6, 0.6, 0.6, 0.6, 0.6, 0.6, 0.6, 0.6, 0.6, 0.6, 0.6, 0.6, 0.6, 0.6, 0.6, 0.6, 0.6, 0.6, 0.6, 0.6, 0.6, 0.6, 0.6, 0.6, 0.6, 0.6, 0.6, 0.6, 0.6, 0.6, 0.6, 0.6, 0.6, 0.6, 0.6, 0.6, 0.6, 0.6, 0.6, 0.6, 0.6, 0.6, 0.6, 0.6, 0.6, 0.6, 0.6, 0.6, 0.6, 0.6, 0.6, 0.6, 0.6, 0.6, 0.6, 0.6, 0.6, 0.6, 0.6, 0.6, 0.6, 0.6, 0.6, 0.6, 0.6, 0.6, 0.6, 0.6, 0.6, 0.6, 0.6, 0.6, 0.6, 0.6, 0.6, 0.6, 0.6, 0.6, 0.6, 0.6, 0.6, 0.6, 0.6, 0.6, 0.6, 0.6, 0.6, 0.6, 0.6, 0.6, 0.6, 0.6, 0.6, 0.6, 0.6, 0.6, 0.6, 0.6, 0.6, 0.6, 0.6, 0.6, 0.6, 0.6, 0.6, 0.6, 0.6, 0.6, 0.6, 0.6, 0.6, 0.6, 0.6, 0.6, 0.6, 0.6, 0.6, 0.6, 0.6, 0.6, 0.6, 0.6, 0.6, 0.6, 0.6, 0.6, 0.6, 0.6, 0.6, 0.6, 0.6, 0.6, 0.6, 0.6], "NUPDOWN": -1.0, "LSORBIT": false, "SAXIS": [0.0, 0.0, 1.0], "LSPIRAL": false, "QSPIRAL": [0.0, 0.0, 0.0], "LZEROZ": false, "LASPH": false, "LMETAGGA": false, "NELM": 100, "NELMDL": -5, "NELMIN": 6, "ENINI": 520.0, "LDIAG": true, "LSUBROT": false, "WEIMIN": 0.001, "EBREAK": 1e-08, "DEPER": 0.3, "NRMM": 4, "TIME": 0.4, "AMIX": 0.4, "BMIX": 1.0, "AMIN": 0.1, "AMIX_MAG": 1.6, "BMIX_MAG": 1.0, "IMIX": 4, "MIXFIRST": false, "MAXMIX": -45, "WC": 100.0, "INIMIX": 1, "MIXPRE": 1, "MREMOVE": 5, "LDIPOL": false, "LMONO": false, "IDIPOL": 0, "EPSILON": 1.0, "DIPOL": [-100.0, -100.0, -100.0], "EFIELD": 0.0, "NGX": 48, "NGY": 72, "NGZ": 240, "NGXF": 96, "NGYF": 144, "NGZF": 480, "ADDGRID": false, "NSW": 150, "IBRION": 2, "MDALGO": 0, "ISIF": 2, "PSTRESS": 0.0, "EDIFFG": -0.01, "NFREE": 1, "POTIM": 0.5, "SMASS": -3.0, "SCALEE": 1.0, "TEBEG": 0.0001, "TEEND": 0.0001, "NBLOCK": 1, "KBLOCK": 150, "NPACO": 256, "APACO": 10.0, "ISYM": 0, "SYMPREC": 1e-05, "LORBIT": 11, "RWIGS": [-1.0, -1.0], "NEDOS": 301, "EMIN": 10.0, "EMAX": -10.0, "EFERMI": 0.0, "NWRITE": 2, "LWAVE": false, "LDOWNSAMPLE": false, "LCHARG": false, "LPARD": false, "LVTOT": false, "LVHAR": false, "LELF": false, "LOPTICS": false, "STM": [0.0, 0.0, 0.0, 0.0, 0.0, 0.0, 0.0], "NPAR": 1, "NSIM": 4, "NBLK": -1, "LPLANE": true, "LSCALAPACK": true, "LSCAAWARE": false, "LSCALU": false, "LASYNC": false, "LORBITALREAL": false, "IDIOT": 3, "PHON_NSTRUCT": -1, "LMUSIC": false, "POMASS": [7.01, 32.066], "DARWINR": [0.0, 0.0], "DARWINV": [1.0, 1.0], "LCORR": true, "GGA_COMPAT": true, "LBERRY": false, "ICORELEVEL": 0, "LDAU": false, "I_CONSTRAINED_M": 0, "GGA": "--", "VOSKOWN": 0, "LHFCALC": false, "PRECFOCK": "", "LSYMGRAD": false, "LHFONE": false, "LRHFCALC": false, "LTHOMAS": false, "LMODELHF": false, "LFOCKACE": false, "ENCUT4O": -1.0, "EXXOEP": 0, "FOURORBIT": 0, "AEXX": 0.0, "HFALPHA": 0.0, "MCALPHA": 0.0, "ALDAX": 1.0, "AGGAX": 1.0, "ALDAC": 1.0, "AGGAC": 1.0, "NKREDX": 1, "NKREDY": 1, "NKREDZ": 1, "SHIFTRED": false, "ODDONLY": false, "EVENONLY": false, "LMAXFOCK": 0, "NMAXFOCKAE": 0, "LFOCKAEDFT": false, "HFSCREEN": 0.0, "HFSCREENC": 0.0, "NBANDSGWLOW": 0, "LUSE_VDW": false, "Zab_VDW": -0.8491, "PARAM1": 0.1234, "PARAM2": 1.0, "PARAM3": 0.0, "MODEL_GW": 0, "MODEL_EPS0": 15.09238244, "MODEL_ALPHA": 1.0, "LEPSILON": false, "LRPA": false, "LNABLA": false, "LVEL": false, "CSHIFT": 0.1, "OMEGAMAX": -1.0, "DEG_THRESHOLD": 0.002, "RTIME": -0.1, "WPLASMAI": 0.0, "DFIELD": [0.0, 0.0, 0.0], "WPLASMA": [0.0, 0.0, 0.0, 0.0, 0.0, 0.0, 0.0, 0.0, 0.0], "NUCIND": false, "MAGPOS": [0.0, 0.0, 0.0], "LNICSALL": true, "ORBITALMAG": false, "LMAGBLOCH": false, "LCHIMAG": false, "LGAUGE": true, "MAGATOM": 0, "MAGDIPOL": [0.0, 0.0, 0.0], "AVECCONST": [0.0, 0.0, 0.0], "LFINITE_TEMPERATURE": false, "LADDER": false, "LRPAFORCE": false, "LFXC": false, "LHARTREE": true, "IBSE": 0, "KPOINT": [-1, 0, 0, 0], "LTCTC": false, "LTCTE": false, "LTETE": false, "LTRIPLET": false, "LFXCEPS": false, "LFXHEG": false, "NATURALO": 2, "LHOLEGF": false, "L2ORDER": false, "LDMP1": false, "LMP2LT": false, "LSMP2LT": false, "LGWLF": false, "ENCUTGW": -2.0, "ENCUTGWSOFT": -2.0, "ENCUTLF": -1.0, "LESF_SPLINES": false, "LMAXMP2": -1, "SCISSOR": 0.0, "NOMEGA": 0, "NOMEGAR": 0, "NBANDSGW": -1, "NBANDSO": -1, "NBANDSV": -1, "NELMGW": 1, "NELMHF": 1, "DIM": 3, "IESPILON": 4, "ANTIRES": 0, "OMEGAMIN": -30.0, "OMEGATL": -200.0, "OMEGAGRID": 0, "LSELFENERGY": false, "LSPECTRAL": false, "LSPECTRALGW": false, "LSINGLES": false, "LFERMIGW": false, "ODDONLYGW": false, "EVENONLYGW": false, "NKREDLFX": 1, "NKREDLFY": 1, "NKREDLFZ": 1, "MAXMEM": 2800, "TELESCOPE": 0, "NTAUPAR": -1, "NOMEGAPAR": -1, "DAMP_NEWTON": 0.80000001, "LAMBDA": 1.0, "OFIELD_KAPPA": 0.0, "OFIELD_K": [0.0, 0.0, 0.0], "OFIELD_Q6_NEAR": 0.0, "OFIELD_Q6_FAR": 0.0, "OFIELD_A": 0.0, "KPOINTS_OPT_MODE": 1, "LKPOINTS_OPT": false, "@module": "pymatgen.io.vasp.inputs", "@class": "Incar"}, "relaxed_structures": {"@module": "pymatgen.core.structure", "@class": "Structure", "charge": 0, "lattice": {"matrix": [[8.061477, 0.0, 0.0], [4.030739, 12.092216, 0.0], [0.0, 0.0, 41.802384]], "a": 8.061477, "b": 12.746314944986139, "c": 41.802384, "alpha": 90.0, "beta": 90.0, "gamma": 71.56504975560705, "volume": 4074.943259607591}, "sites": [{"species": [{"element": "Li", "occu": 1}], "abc": [0.000794, 0.06288736, 0.04382857], "xyz": [0.25988334729704, 0.7604475407897601, 1.83213871331088], "label": "Li", "properties": {}}, {"species": [{"element": "Li", "occu": 1}], "abc": [0.38987255, 0.28300274, 0.06533357], "xyz": [4.28365877598121, 3.42213026067184, 2.73109898123088], "label": "Li", "properties": {}}, {"species": [{"element": "Li", "occu": 1}], "abc": [0.60891953, 0.84476039, 0.024471], "xyz": [8.313799435574019, 10.21502510412424, 1.022946138864], "label": "Li", "properties": {}}, {"species": [{"element": "Li", "occu": 1}], "abc": [0.22462042, 0.11540944, 0.00010000000000000026], "xyz": [2.2759576803365, 1.3955558769190402, 0.004180238400000012], "label": "Li", "properties": {}}, {"species": [{"element": "Li", "occu": 1}], "abc": [0.99430874, 0.5755441, 0.04817918], "xyz": [10.33546508849888, 6.9596035747256, 2.01400458316512], "label": "Li", "properties": {}}, {"species": [{"element": "Li", "occu": 1}], "abc": [0.62227095, 0.31858677, 0.02160447], "xyz": [6.30056306991618, 3.8524200375823203, 0.9031183510564801], "label": "Li", "properties": {}}, {"species": [{"element": "Li", "occu": 1}], "abc": [0.3866027, 0.78928635, 0.0674073], "xyz": [6.2979960473005505, 9.5442210300516, 2.8177858390032005], "label": "Li", "properties": {}}, {"species": [{"element": "Li", "occu": 1}], "abc": [0.50079403, 0.06288737, 0.04382857], "xyz": [4.29062212944874, 0.76044766171192, 1.83213871331088], "label": "Li", "properties": {}}, {"species": [{"element": "Li", "occu": 1}], "abc": [0.88987252, 0.28300273, 0.06533358], "xyz": [8.31439699382951, 3.42213013974968, 2.7310993992547203], "label": "Li", "properties": {}}, {"species": [{"element": "Li", "occu": 1}], "abc": [0.10891949, 0.84476039, 0.024471], "xyz": [4.28306061311494, 10.21502510412424, 1.022946138864], "label": "Li", "properties": {}}, {"species": [{"element": "Li", "occu": 1}], "abc": [0.72462042, 0.11540942, 0.0001000100000000002], "xyz": [6.30669609972172, 1.39555563507472, 0.004180656423840009], "label": "Li", "properties": {}}, {"species": [{"element": "Li", "occu": 1}], "abc": [0.49430874, 0.57554409, 0.04817918], "xyz": [6.304726548191489, 6.95960345380344, 2.01400458316512], "label": "Li", "properties": {}}, {"species": [{"element": "Li", "occu": 1}], "abc": [0.12227095, 0.31858673, 0.02160446], "xyz": [2.26982440868662, 3.85241955389368, 0.90311793303264], "label": "Li", "properties": {}}, {"species": [{"element": "Li", "occu": 1}], "abc": [0.8866027, 0.78928637, 0.06740729], "xyz": [10.32873462791533, 9.544221271895921, 2.81778542097936], "label": "Li", "properties": {}}, {"species": [{"element": "Li", "occu": 1}], "abc": [0.55502401, 0.95323727, 0.13500292000000003], "xyz": [8.3165639315053, 11.52675096809032, 5.643443902961281], "label": "Li", "properties": {}}, {"species": [{"element": "Li", "occu": 1}], "abc": [0.77693095, 0.50723989, 0.08858771], "xyz": [8.30776259099186, 6.1336543136962405, 3.7031774711006404], "label": "Li", "properties": {}}, {"species": [{"element": "Li", "occu": 1}], "abc": [0.94380096, 0.17504368, 0.15731014999999998], "xyz": [8.31398511929744, 2.1166659879948804, 6.5759392973976], "label": "Li", "properties": {}}, {"species": [{"element": "Li", "occu": 1}], "abc": [0.16649126, 0.73064938, 0.11217592], "xyz": [4.28722241448284, 8.83517012322608, 4.68922088339328], "label": "Li", "properties": {}}, {"species": [{"element": "Li", "occu": 1}], "abc": [0.77702744, 0.00988067, 0.08908153], "xyz": [6.30381523784401, 0.11947919586472, 3.7238203243675208], "label": "Li", "properties": {}}, {"species": [{"element": "Li", "occu": 1}], "abc": [0.55519999, 0.45234761, 0.13397263999999998], "xyz": [6.29902710296902, 5.469885007203761, 5.6003757427737595], "label": "Li", "properties": {}}, {"species": [{"element": "Li", "occu": 1}], "abc": [0.1656685, 0.23147104, 0.11148586], "xyz": [2.26853215067306, 2.79899781342464, 4.660374730290241], "label": "Li", "properties": {}}, {"species": [{"element": "Li", "occu": 1}], "abc": [0.94409122, 0.67423649, 0.15727986], "xyz": [10.328440971398049, 8.15301327216184, 6.574673103186241], "label": "Li", "properties": {}}, {"species": [{"element": "Li", "occu": 1}], "abc": [0.05502403, 0.95323729, 0.13500295], "xyz": [4.28582567334962, 11.526751209934641, 5.643445157032801], "label": "Li", "properties": {}}, {"species": [{"element": "Li", "occu": 1}], "abc": [0.27693095, 0.50723989, 0.08858771], "xyz": [4.27702409099186, 6.1336543136962405, 3.7031774711006404], "label": "Li", "properties": {}}, {"species": [{"element": "Li", "occu": 1}], "abc": [0.44380094, 0.17504374, 0.15731013], "xyz": [4.283246699912239, 2.1166667135278403, 6.57593846134992], "label": "Li", "properties": {}}, {"species": [{"element": "Li", "occu": 1}], "abc": [0.66649118, 0.73064938, 0.11217591], "xyz": [8.31796026956468, 8.83517012322608, 4.6892204653694405], "label": "Li", "properties": {}}, {"species": [{"element": "Li", "occu": 1}], "abc": [0.27702744, 0.00988067, 0.08908153], "xyz": [2.2730767378440104, 0.11947919586472, 3.7238203243675208], "label": "Li", "properties": {}}, {"species": [{"element": "Li", "occu": 1}], "abc": [0.0552, 0.45234759, 0.13397263999999998], "xyz": [2.26828860296901, 5.46988476535944, 5.6003757427737595], "label": "Li", "properties": {}}, {"species": [{"element": "Li", "occu": 1}], "abc": [0.66566851, 0.23147105, 0.11148586], "xyz": [6.2992707715952205, 2.7989979343468003, 4.660374730290241], "label": "Li", "properties": {}}, {"species": [{"element": "Li", "occu": 1}], "abc": [0.44409123, 0.67423647, 0.15727980000000003], "xyz": [6.29770247139804, 8.15301303031752, 6.574670595043202], "label": "Li", "properties": {}}, {"species": [{"element": "Li", "occu": 1}], "abc": [0.1101949, 0.84042559, 0.22558119999999998], "xyz": [4.2758698540783096, 10.16260776620744, 9.4298319455808], "label": "Li", "properties": {}}, {"species": [{"element": "Li", "occu": 1}], "abc": [0.3331465, 0.39648652, 0.18000978], "xyz": [4.28378652651878, 4.794400640928321, 7.524837947315521], "label": "Li", "properties": {}}, {"species": [{"element": "Li", "occu": 1}], "abc": [0.50002301, 0.06344496, 0.24843152000000002], "xyz": [4.2866540692112105, 0.76719016043136, 10.385029796743682], "label": "Li", "properties": {}}, {"species": [{"element": "Li", "occu": 1}], "abc": [0.72203682, 0.617774, 0.20292155], "xyz": [8.31076897256914, 7.470256647184001, 8.4826045549752], "label": "Li", "properties": {}}, {"species": [{"element": "Li", "occu": 1}], "abc": [0.33263685, 0.89667588, 0.18035714000000003], "xyz": [6.295810755502769, 10.84279842295008, 7.539358423421762], "label": "Li", "properties": {}}, {"species": [{"element": "Li", "occu": 1}], "abc": [0.10998059, 0.34059363, 0.22547810000000001], "xyz": [2.259450024324, 4.11853174218408, 9.4255221197904], "label": "Li", "properties": {}}, {"species": [{"element": "Li", "occu": 1}], "abc": [0.72168988, 0.11832308, 0.20295822000000002], "xyz": [6.29481582190888, 1.4307882411452801, 8.484137448396481], "label": "Li", "properties": {}}, {"species": [{"element": "Li", "occu": 1}], "abc": [0.4999168, 0.56253209, 0.24828765000000003], "xyz": [6.29748781902811, 6.802259539211441, 10.379015687757603], "label": "Li", "properties": {}}, {"species": [{"element": "Li", "occu": 1}], "abc": [0.61019499, 0.84042554, 0.22558117], "xyz": [8.30660887807429, 10.162607161596641, 9.42983069150928], "label": "Li", "properties": {}}, {"species": [{"element": "Li", "occu": 1}], "abc": [0.83314655, 0.39648659, 0.18000982999999998], "xyz": [8.31452571174436, 4.794401487383441, 7.5248400374347195], "label": "Li", "properties": {}}, {"species": [{"element": "Li", "occu": 1}], "abc": [2.291e-05, 0.06344486, 0.24843152000000002], "xyz": [0.25591435998961, 0.76718895120976, 10.385029796743682], "label": "Li", "properties": {}}, {"species": [{"element": "Li", "occu": 1}], "abc": [0.22203654, 0.61777403, 0.20292152000000002], "xyz": [4.280028336277749, 7.47025700995048, 8.482603300903682], "label": "Li", "properties": {}}, {"species": [{"element": "Li", "occu": 1}], "abc": [0.83263698, 0.89667572, 0.1803572], "xyz": [10.326549658576539, 10.84279648819552, 7.539360931564801], "label": "Li", "properties": {}}, {"species": [{"element": "Li", "occu": 1}], "abc": [0.60998072, 0.34059371, 0.22547813], "xyz": [6.29018989477513, 4.11853270956136, 9.425523373861921], "label": "Li", "properties": {}}, {"species": [{"element": "Li", "occu": 1}], "abc": [0.22168975, 0.11832307, 0.20295821000000003], "xyz": [2.26407623360948, 1.43078812022312, 8.484137030372642], "label": "Li", "properties": {}}, {"species": [{"element": "Li", "occu": 1}], "abc": [0.99991684, 0.56253202, 0.24828777000000002], "xyz": [10.32822635933546, 6.802258692756321, 10.37902070404368], "label": "Li", "properties": {}}, {"species": [{"element": "Li", "occu": 1}], "abc": [0.66658074, 0.72923366, 0.31688106], "xyz": [8.31297585762772, 8.81805093119056, 13.246383752447041], "label": "Li", "properties": {}}, {"species": [{"element": "Li", "occu": 1}], "abc": [0.88888288, 0.28546223, 0.27118446], "xyz": [8.31633263630173, 3.45187094500168, 11.336156931752642], "label": "Li", "properties": {}}, {"species": [{"element": "Li", "occu": 1}], "abc": [0.05586171, 0.95142634, 0.33948418], "xyz": [4.2852791446109295, 11.50485281136944, 14.191248054285122], "label": "Li", "properties": {}}, {"species": [{"element": "Li", "occu": 1}], "abc": [0.27782107, 0.50700123, 0.29413081], "xyz": [4.28323779672936, 6.13076838542568, 12.295369065851041], "label": "Li", "properties": {}}, {"species": [{"element": "Li", "occu": 1}], "abc": [0.88912461, 0.78483467, 0.27122801], "xyz": [10.3311213065701, 9.49039035392872, 11.337977425575842], "label": "Li", "properties": {}}, {"species": [{"element": "Li", "occu": 1}], "abc": [0.66672519, 0.22922247, 0.31679115], "xyz": [6.29872573401096, 2.7718076192935204, 13.242625300101603], "label": "Li", "properties": {}}, {"species": [{"element": "Li", "occu": 1}], "abc": [0.27651039, 0.00710515, 0.2940091], "xyz": [2.25772115445188, 0.0859170085124, 12.290281297694403], "label": "Li", "properties": {}}, {"species": [{"element": "Li", "occu": 1}], "abc": [0.05600908, 0.45165799, 0.33958635000000004], "xyz": [2.27203138516577, 5.4615459732058405, 14.195519003858402], "label": "Li", "properties": {}}, {"species": [{"element": "Li", "occu": 1}], "abc": [0.16658311, 0.72923438, 0.31688214000000003], "xyz": [4.282259365460289, 8.81805963758608, 13.246428899021762], "label": "Li", "properties": {}}, {"species": [{"element": "Li", "occu": 1}], "abc": [0.38888282, 0.28546208, 0.27118446], "xyz": [4.28559304800226, 3.45186913116928, 11.336156931752642], "label": "Li", "properties": {}}, {"species": [{"element": "Li", "occu": 1}], "abc": [0.55586185, 0.9514267, 0.33948389], "xyz": [8.31602022428375, 11.5048571645672, 14.191235931593761], "label": "Li", "properties": {}}, {"species": [{"element": "Li", "occu": 1}], "abc": [0.77782023, 0.50700166, 0.29413069000000003], "xyz": [8.31397125830645, 6.13077358507856, 12.295364049564963], "label": "Li", "properties": {}}, {"species": [{"element": "Li", "occu": 1}], "abc": [0.38912513, 0.78483516, 0.27122801], "xyz": [6.300388973600249, 9.49039627911456, 11.337977425575842], "label": "Li", "properties": {}}, {"species": [{"element": "Li", "occu": 1}], "abc": [0.16672571, 0.22922213, 0.31679108], "xyz": [2.26799005552774, 2.77180350794008, 13.24262237393472], "label": "Li", "properties": {}}, {"species": [{"element": "Li", "occu": 1}], "abc": [0.77651025, 0.00710544, 0.29400915], "xyz": [6.28845969475941, 0.08592051525504, 12.2902833878136], "label": "Li", "properties": {}}, {"species": [{"element": "Li", "occu": 1}], "abc": [0.55600759, 0.45165804, 0.33958566], "xyz": [6.30275807510199, 5.46154657781664, 14.195490160213442], "label": "Li", "properties": {}}, {"species": [{"element": "Li", "occu": 1}], "abc": [0.2222516, 0.61773411, 0.40783909], "xyz": [4.28160113042049, 7.46977428868776, 17.04864625039056], "label": "Li", "properties": {}}, {"species": [{"element": "Li", "occu": 1}], "abc": [0.44434166, 0.17383048, 0.36213284], "xyz": [4.28271536735654, 2.10199571154368, 15.138016036690562], "label": "Li", "properties": {}}, {"species": [{"element": "Li", "occu": 1}], "abc": [0.61119139, 0.83964072, 0.43098356], "xyz": [8.311477929175108, 10.153116948635521, 18.016140272807043], "label": "Li", "properties": {}}, {"species": [{"element": "Li", "occu": 1}], "abc": [0.83343914, 0.39575734, 0.38495903000000004], "xyz": [8.31394500288404, 4.78558323886544, 16.092205196327523], "label": "Li", "properties": {}}, {"species": [{"element": "Li", "occu": 1}], "abc": [0.44396394, 0.67391423, 0.36219281000000003], "xyz": [6.29537746065535, 8.14911643463368, 15.140522925659043], "label": "Li", "properties": {}}, {"species": [{"element": "Li", "occu": 1}], "abc": [0.22267802, 0.11713862, 0.40778594], "xyz": [2.26726894067572, 1.41646549498192, 17.046424453680963], "label": "Li", "properties": {}}, {"species": [{"element": "Li", "occu": 1}], "abc": [0.83339746, 0.89572496, 0.38506832], "xyz": [10.32884798519386, 10.83129969291136, 16.096773778874883], "label": "Li", "properties": {}}, {"species": [{"element": "Li", "occu": 1}], "abc": [0.61186004, 0.33871812, 0.43038662], "xyz": [6.29777997596976, 4.095852670153921, 17.99118675770208], "label": "Li", "properties": {}}, {"species": [{"element": "Li", "occu": 1}], "abc": [0.72226056, 0.61773056, 0.40783896000000003], "xyz": [8.31239755213096, 7.469731361320961, 17.048640816080642], "label": "Li", "properties": {}}, {"species": [{"element": "Li", "occu": 1}], "abc": [0.94434135, 0.1738306, 0.36213289000000004], "xyz": [8.313451851987349, 2.1019971626096, 15.138018126809763], "label": "Li", "properties": {}}, {"species": [{"element": "Li", "occu": 1}], "abc": [0.11119095, 0.83964092, 0.43098342], "xyz": [4.28073668827303, 10.153119367078721, 18.016134420473282], "label": "Li", "properties": {}}, {"species": [{"element": "Li", "occu": 1}], "abc": [0.33343877, 0.39575699, 0.38495889], "xyz": [4.2832021093789, 4.78557900658984, 16.092199343993762], "label": "Li", "properties": {}}, {"species": [{"element": "Li", "occu": 1}], "abc": [0.94394929, 0.67392189, 0.36219167], "xyz": [10.32602873547804, 8.149209061008241, 15.140475270941282], "label": "Li", "properties": {}}, {"species": [{"element": "Li", "occu": 1}], "abc": [0.72267828, 0.11713817, 0.40778591000000003], "xyz": [6.29800772282719, 1.41646005348472, 17.046423199609443], "label": "Li", "properties": {}}, {"species": [{"element": "Li", "occu": 1}], "abc": [0.33339587, 0.89572332, 0.38506808000000003], "xyz": [6.29809005703347, 10.831279861677121, 16.096763746302724], "label": "Li", "properties": {}}, {"species": [{"element": "Li", "occu": 1}], "abc": [0.11185982, 0.33871847, 0.43038721], "xyz": [2.2670411132034696, 4.09585690242952, 17.99121142110864], "label": "Li", "properties": {}}, {"species": [{"element": "Li", "occu": 1}], "abc": [0.77867853, 0.50591849, 0.49901483], "xyz": [8.31652444845292, 6.11767565947384, 20.86000954535472], "label": "Li", "properties": {}}, {"species": [{"element": "Li", "occu": 1}], "abc": [0.00037568, 0.06143088, 0.453484], "xyz": [0.25064037949968, 0.74283547003008, 18.956712305856], "label": "Li", "properties": {}}, {"species": [{"element": "Li", "occu": 1}], "abc": [0.16726781, 0.728024, 0.5220432700000001], "xyz": [4.282900332891369, 8.803423461184, 21.822653237155684], "label": "Li", "properties": {}}, {"species": [{"element": "Li", "occu": 1}], "abc": [0.38905387, 0.28330171, 0.47573343], "xyz": [4.27826407602968, 3.42574547048936, 19.886791522497123], "label": "Li", "properties": {}}, {"species": [{"element": "Li", "occu": 1}], "abc": [0.00052948, 0.56149289, 0.45357254], "xyz": [2.2674996807876697, 6.789693308344241, 18.960413488935362], "label": "Li", "properties": {}}, {"species": [{"element": "Li", "occu": 1}], "abc": [0.77834382, 0.0064962, 0.49917774000000004], "xyz": [6.30078528971394, 0.0785534535792, 20.86681957173216], "label": "Li", "properties": {}}, {"species": [{"element": "Li", "occu": 1}], "abc": [0.39009093, 0.78410439, 0.47680284], "xyz": [6.305229204947819, 9.48155965042824, 19.931495409970562], "label": "Li", "properties": {}}, {"species": [{"element": "Li", "occu": 1}], "abc": [0.1670168, 0.22712287, 0.5219361], "xyz": [2.26187510171453, 2.74641880257992, 21.818173275662403], "label": "Li", "properties": {}}, {"species": [{"element": "Li", "occu": 1}], "abc": [0.27868615, 0.50591789, 0.49901472], "xyz": [4.28584495846426, 6.11766840414424, 20.860004947092484], "label": "Li", "properties": {}}, {"species": [{"element": "Li", "occu": 1}], "abc": [0.5003762, 0.0614307, 0.45348399], "xyz": [4.2813823459347, 0.7428332934312, 18.95671188783216], "label": "Li", "properties": {}}, {"species": [{"element": "Li", "occu": 1}], "abc": [0.66726754, 0.72802275, 0.52204276], "xyz": [8.313631617868829, 8.803408345914, 21.822631917939844], "label": "Li", "properties": {}}, {"species": [{"element": "Li", "occu": 1}], "abc": [0.88905396, 0.28330158, 0.47573347], "xyz": [8.30900277756654, 3.4257438985012802, 19.88679319459248], "label": "Li", "properties": {}}, {"species": [{"element": "Li", "occu": 1}], "abc": [0.50052847, 0.56149176, 0.45357279], "xyz": [6.298225483960829, 6.78967964414016, 18.960423939531363], "label": "Li", "properties": {}}, {"species": [{"element": "Li", "occu": 1}], "abc": [0.27834372, 0.00649601, 0.4991778], "xyz": [2.2700452177258303, 0.07855115605816, 20.866822079875202], "label": "Li", "properties": {}}, {"species": [{"element": "Li", "occu": 1}], "abc": [0.89008933, 0.78410444, 0.47680285], "xyz": [10.33595500812157, 9.48156025503904, 19.9314958279944], "label": "Li", "properties": {}}, {"species": [{"element": "Li", "occu": 1}], "abc": [0.66701712, 0.22712321, 0.52193522], "xyz": [6.292617551838431, 2.74642291393336, 21.818136489564484], "label": "Li", "properties": {}}, {"species": [{"element": "Li", "occu": 1}], "abc": [0.33564509, 0.39021557, 0.58623055], "xyz": [4.27865228960416, 4.71857095900312, 24.505834563631204], "label": "Li", "properties": {}}, {"species": [{"element": "Li", "occu": 1}], "abc": [0.55499876, 0.95171775, 0.54533615], "xyz": [8.310235590685771, 11.508376604034002, 22.796351151381604], "label": "Li", "properties": {}}, {"species": [{"element": "Li", "occu": 1}], "abc": [0.94473153, 0.17239543, 0.56693989], "xyz": [8.31081248339258, 2.08464277697288, 23.69943898669776], "label": "Li", "properties": {}}, {"species": [{"element": "Li", "occu": 1}], "abc": [0.55777333, 0.4463971, 0.54336966], "xyz": [6.295787071465309, 5.3979301549736, 22.714147181269443], "label": "Li", "properties": {}}, {"species": [{"element": "Li", "occu": 1}], "abc": [0.3219804, 0.9173864, 0.58911344], "xyz": [6.2933827296004, 11.093234504262401, 24.626346238440963], "label": "Li", "properties": {}}, {"species": [{"element": "Li", "occu": 1}], "abc": [0.95065487, 0.66062234, 0.56281848], "xyz": [10.32647859955225, 7.98838802970544, 23.52715422325632], "label": "Li", "properties": {}}, {"species": [{"element": "Li", "occu": 1}], "abc": [0.72093474, 0.11996071, 0.61060541], "xyz": [6.29532913727567, 1.45059081683336, 25.524761821297442], "label": "Li", "properties": {}}, {"species": [{"element": "Li", "occu": 1}], "abc": [0.83565193, 0.39021742, 0.58623086], "xyz": [8.30945338697399, 4.71859332960272, 24.505847522370242], "label": "Li", "properties": {}}, {"species": [{"element": "Li", "occu": 1}], "abc": [0.05499881, 0.95171772, 0.54533609], "xyz": [4.27949737283745, 11.50837624126752, 22.796348643238563], "label": "Li", "properties": {}}, {"species": [{"element": "Li", "occu": 1}], "abc": [0.44472922, 0.17239543, 0.56694002], "xyz": [4.28005536138071, 2.08464277697288, 23.69944442100768], "label": "Li", "properties": {}}, {"species": [{"element": "Li", "occu": 1}], "abc": [0.0577787, 0.4464004, 0.54336984], "xyz": [2.2651051630355, 5.3979700592864, 22.71415470569856], "label": "Li", "properties": {}}, {"species": [{"element": "Li", "occu": 1}], "abc": [0.82198018, 0.9173861, 0.58911346], "xyz": [10.32411824685376, 11.0932308765976, 24.626347074488642], "label": "Li", "properties": {}}, {"species": [{"element": "Li", "occu": 1}], "abc": [0.45065578, 0.66062279, 0.56281854], "xyz": [6.295749249328869, 7.988393471202641, 23.527156731399362], "label": "Li", "properties": {}}, {"species": [{"element": "Li", "occu": 1}], "abc": [0.22093553, 0.1199598, 0.61060568], "xyz": [2.26459333787001, 1.4505798129168002, 25.524773107941122], "label": "Li", "properties": {}}, {"species": [{"element": "S", "occu": 1}], "abc": [0.92038569, 0.22322959, 0.009744889999999999], "xyz": [8.31944828543114, 2.69934041987144, 0.40735963381775997], "label": "S", "properties": {}}, {"species": [{"element": "S", "occu": 1}], "abc": [0.69372923, 0.67611225, 0.05525164], "xyz": [8.31771424632546, 8.175695367246, 2.30965027190976], "label": "S", "properties": {}}, {"species": [{"element": "S", "occu": 1}], "abc": [0.8067536, 0.94948336, 0.03219439], "xyz": [10.33074520007024, 11.48135787752576, 1.3458022534257603], "label": "S", "properties": {}}, {"species": [{"element": "S", "occu": 1}], "abc": [0.58168136, 0.39902229, 0.0756824], "xyz": [6.29756561114103, 4.82506371949464, 3.1637047468416], "label": "S", "properties": {}}, {"species": [{"element": "S", "occu": 1}], "abc": [0.30675361, 0.94948336, 0.03219439], "xyz": [6.30000678068501, 11.48135787752576, 1.3458022534257603], "label": "S", "properties": {}}, {"species": [{"element": "S", "occu": 1}], "abc": [0.08168136, 0.39902228, 0.07568241], "xyz": [2.26682707083364, 4.825063598572481, 3.1637051648654406], "label": "S", "properties": {}}, {"species": [{"element": "S", "occu": 1}], "abc": [0.42038563, 0.22322959, 0.009744889999999999], "xyz": [4.28870930174252, 2.69934041987144, 0.40735963381775997], "label": "S", "properties": {}}, {"species": [{"element": "S", "occu": 1}], "abc": [0.19372923, 0.67611225, 0.05525164], "xyz": [4.28697574632546, 8.175695367246, 2.30965027190976], "label": "S", "properties": {}}, {"species": [{"element": "S", "occu": 1}], "abc": [0.47141454, 0.12050511, 0.10096036], "xyz": [4.28602211825187, 1.45717381922376, 4.22038373749824], "label": "S", "properties": {}}, {"species": [{"element": "S", "occu": 1}], "abc": [0.25001169, 0.56241239, 0.145698], "xyz": [4.28240104312234, 6.80081210095624, 6.090523744032001], "label": "S", "properties": {}}, {"species": [{"element": "S", "occu": 1}], "abc": [0.36086804, 0.84199747, 0.12379095], "xyz": [6.30300144472541, 10.18161527869352, 5.1747568276248], "label": "S", "properties": {}}, {"species": [{"element": "S", "occu": 1}], "abc": [0.13801705, 0.28630146, 0.16844485999999997], "xyz": [2.26662773476179, 3.4620190954353602, 7.041396720546239], "label": "S", "properties": {}}, {"species": [{"element": "S", "occu": 1}], "abc": [0.86086804, 0.84199743, 0.12379098000000001], "xyz": [10.333739783495849, 10.181614795004881, 5.174758081696321], "label": "S", "properties": {}}, {"species": [{"element": "S", "occu": 1}], "abc": [0.63801708, 0.28630154, 0.16844489], "xyz": [6.2973667990652205, 3.4620200628126403, 7.0413979746177615], "label": "S", "properties": {}}, {"species": [{"element": "S", "occu": 1}], "abc": [0.97141455, 0.12050511, 0.10096036], "xyz": [8.31676069886664, 1.45717381922376, 4.22038373749824], "label": "S", "properties": {}}, {"species": [{"element": "S", "occu": 1}], "abc": [0.75001176, 0.56241238, 0.145698], "xyz": [8.31314006711834, 6.800811980034081, 6.090523744032001], "label": "S", "properties": {}}, {"species": [{"element": "S", "occu": 1}], "abc": [0.02703294, 0.00798552, 0.19175242999999997], "xyz": [0.25011297095165996, 0.09656263271232, 8.015708711793119], "label": "S", "properties": {}}, {"species": [{"element": "S", "occu": 1}], "abc": [0.8050045, 0.45169618, 0.23699655000000003], "xyz": [8.31019467052352, 5.4620077749348805, 9.907020789775203], "label": "S", "properties": {}}, {"species": [{"element": "S", "occu": 1}], "abc": [0.91618565, 0.72918162, 0.21430494], "xyz": [10.32495033902223, 8.81742165226992, 8.95845739497696], "label": "S", "properties": {}}, {"species": [{"element": "S", "occu": 1}], "abc": [0.69433633, 0.17444752, 0.25979631000000003], "xyz": [6.30052877687669, 2.10945709250432, 10.860105112403042], "label": "S", "properties": {}}, {"species": [{"element": "S", "occu": 1}], "abc": [0.41618565, 0.72918181, 0.21430478000000003], "xyz": [6.29421260486264, 8.81742394979096, 8.958450706595523], "label": "S", "properties": {}}, {"species": [{"element": "S", "occu": 1}], "abc": [0.19433665, 0.17444729, 0.25979637], "xyz": [2.26979192947936, 2.1094543112946402, 10.860107620546081], "label": "S", "properties": {}}, {"species": [{"element": "S", "occu": 1}], "abc": [0.52703294, 0.00798552, 0.19175245000000002], "xyz": [4.28085147095166, 0.09656263271232, 8.015709547840801], "label": "S", "properties": {}}, {"species": [{"element": "S", "occu": 1}], "abc": [0.30500465, 0.45169591, 0.23699648], "xyz": [4.279456291445539, 5.46200451003656, 9.90701786360832], "label": "S", "properties": {}}, {"species": [{"element": "S", "occu": 1}], "abc": [0.58293027, 0.89604991, 0.28259215000000004], "xyz": [8.31102228239228, 10.83522905850056, 11.813025569685603], "label": "S", "properties": {}}, {"species": [{"element": "S", "occu": 1}], "abc": [0.36142973, 0.34029413, 0.32812464], "xyz": [4.28529427677328, 4.11491012349208, 13.716392201141762], "label": "S", "properties": {}}, {"species": [{"element": "S", "occu": 1}], "abc": [0.47195879, 0.61794092, 0.30537921], "xyz": [6.295443496472711, 7.47227507987872, 12.765579002036642], "label": "S", "properties": {}}, {"species": [{"element": "S", "occu": 1}], "abc": [0.25006603, 0.06236849, 0.35084094], "xyz": [2.2672926543404204, 0.75417325267384, 14.665987696800961], "label": "S", "properties": {}}, {"species": [{"element": "S", "occu": 1}], "abc": [0.97195748, 0.61793936, 0.30537891], "xyz": [10.326165147985002, 7.472256216021761, 12.765566461321441], "label": "S", "properties": {}}, {"species": [{"element": "S", "occu": 1}], "abc": [0.75006346, 0.06236873, 0.35084092], "xyz": [6.2980114037218895, 0.75417615480568, 14.66598686075328], "label": "S", "properties": {}}, {"species": [{"element": "S", "occu": 1}], "abc": [0.08292899, 0.89605119, 0.28259167], "xyz": [4.280278623047639, 10.83524453653704, 11.813005504541282], "label": "S", "properties": {}}, {"species": [{"element": "S", "occu": 1}], "abc": [0.86142777, 0.34029473, 0.3281247], "xyz": [8.31601939472176, 4.11491737882168, 13.7163947092848], "label": "S", "properties": {}}, {"species": [{"element": "S", "occu": 1}], "abc": [0.13857819, 0.78486075, 0.37378726], "xyz": [4.280713725980879, 9.490705718922001, 15.625198576827842], "label": "S", "properties": {}}, {"species": [{"element": "S", "occu": 1}], "abc": [0.91741184, 0.22805832, 0.41895073], "xyz": [8.31493801238616, 2.75773046603712, 17.51313929254032], "label": "S", "properties": {}}, {"species": [{"element": "S", "occu": 1}], "abc": [0.02789657, 0.50697462, 0.39647929000000004], "xyz": [2.26836993027807, 6.130446611557921, 16.573779528627362], "label": "S", "properties": {}}, {"species": [{"element": "S", "occu": 1}], "abc": [0.80612214, 0.95004355, 0.4423374], "xyz": [10.32791267948423, 11.4881318160068, 18.4907578523616], "label": "S", "properties": {}}, {"species": [{"element": "S", "occu": 1}], "abc": [0.52789639, 0.5069749, 0.39647909000000003], "xyz": [6.29910810781913, 6.1304499973784, 16.573771168150564], "label": "S", "properties": {}}, {"species": [{"element": "S", "occu": 1}], "abc": [0.30612473, 0.95004332, 0.44233739], "xyz": [6.29719413163969, 11.48812903479712, 18.490757434337763], "label": "S", "properties": {}}, {"species": [{"element": "S", "occu": 1}], "abc": [0.63857694, 0.7848611, 0.37378717], "xyz": [8.31144355989328, 9.4907099511976, 15.625194814613282], "label": "S", "properties": {}}, {"species": [{"element": "S", "occu": 1}], "abc": [0.41741092, 0.22805801, 0.4189508], "xyz": [4.28419084629823, 2.75772671745016, 17.513142218707202], "label": "S", "properties": {}}, {"species": [{"element": "S", "occu": 1}], "abc": [0.69484842, 0.67343081, 0.46516636], "xyz": [8.315928385984929, 8.143270815574962, 19.44506280460224], "label": "S", "properties": {}}, {"species": [{"element": "S", "occu": 1}], "abc": [0.47287385, 0.11615883, 0.50986904], "xyz": [4.28026759195182, 1.4046176626672802, 21.31374139979136], "label": "S", "properties": {}}, {"species": [{"element": "S", "occu": 1}], "abc": [0.58410305, 0.39417279, 0.48704032], "xyz": [6.297540940596659, 4.76642251800264, 20.359446480122884], "label": "S", "properties": {}}, {"species": [{"element": "S", "occu": 1}], "abc": [0.36274342, 0.83677757, 0.5349572], "xyz": [6.297079722955569, 10.11849512039512, 22.362486297964804], "label": "S", "properties": {}}, {"species": [{"element": "S", "occu": 1}], "abc": [0.08409255, 0.39419792, 0.48704327000000003], "xyz": [2.26681908755923, 4.7667263953907195, 20.359569797155682], "label": "S", "properties": {}}, {"species": [{"element": "S", "occu": 1}], "abc": [0.86274239, 0.83677775, 0.5349571200000001], "xyz": [10.327810645167279, 10.118497296994, 22.362482953774084], "label": "S", "properties": {}}, {"species": [{"element": "S", "occu": 1}], "abc": [0.19485049, 0.67343036, 0.46516918], "xyz": [4.28520475940977, 8.14326537407776, 19.445180687325124], "label": "S", "properties": {}}, {"species": [{"element": "S", "occu": 1}], "abc": [0.97287508, 0.11615868, 0.50986899], "xyz": [8.311015402957679, 1.40461584883488, 21.31373930967216], "label": "S", "properties": {}}, {"species": [{"element": "S", "occu": 1}], "abc": [0.25123048, 0.55970876, 0.55577482], "xyz": [4.2813286637926, 6.76811922301216, 23.232712443170882], "label": "S", "properties": {}}, {"species": [{"element": "S", "occu": 1}], "abc": [0.02468699, 0.01225244, 0.60099092], "xyz": [0.24839998983738998, 0.14815915100704, 25.12285321835328], "label": "S", "properties": {}}, {"species": [{"element": "S", "occu": 1}], "abc": [0.13773927, 0.28619071, 0.57858273], "xyz": [2.2639420133364796, 3.4606798825133605, 24.186137455228323], "label": "S", "properties": {}}, {"species": [{"element": "S", "occu": 1}], "abc": [0.63773913, 0.28618826, 0.5785824], "xyz": [6.29466950941915, 3.4606502565841604, 24.186123660441606], "label": "S", "properties": {}}, {"species": [{"element": "S", "occu": 1}], "abc": [0.75122858, 0.55970994, 0.55577522], "xyz": [8.31205660325832, 6.76813349182704, 23.232729164124482], "label": "S", "properties": {}}, {"species": [{"element": "S", "occu": 1}], "abc": [0.52468858, 0.01225277, 0.60099083], "xyz": [4.27915263772969, 0.14816314143832, 25.12284945613872], "label": "S", "properties": {}}]}, "formula": "(Li2S)54.0", "bandgap": 3.4716, "slab_thickness": 25.520592869541122}