{"miller": "111_0.50", "final_energy": -556.71571642, "sigma": 0.012891885649695125, "incar_parameters": {"SYSTEM": "unknown system", "LCOMPAT": false, "PREC": "normal", "ENMAX": 520.0, "ENAUG": 368.056, "EDIFF": 1e-05, "IALGO": 38, "IWAVPR": 11, "NBANDS": 672, "NBANDSLOW": -1, "NBANDSHIGH": -1, "NELECT": 1120.0, "TURBO": 0, "IRESTART": 0, "NREBOOT": 0, "NMIN": 0, "EREF": 0.0, "ISMEAR": 0, "SIGMA": 0.05, "KSPACING": 0.5, "KGAMMA": true, "KBLOWUP": true, "LREAL": true, "ROPT": [-0.0005, -0.0005], "LMAXPAW": -100, "LMAXMIX": 2, "NLSPLINE": false, "ISTART": 0, "ICHARG": 2, "INIWAV": 1, "ISPIN": 1, "LNONCOLLINEAR": false, "MAGMOM": [0.6, 0.6, 0.6, 0.6, 0.6, 0.6, 0.6, 0.6, 0.6, 0.6, 0.6, 0.6, 0.6, 0.6, 0.6, 0.6, 0.6, 0.6, 0.6, 0.6, 0.6, 0.6, 0.6, 0.6, 0.6, 0.6, 0.6, 0.6, 0.6, 0.6, 0.6, 0.6, 0.6, 0.6, 0.6, 0.6, 0.6, 0.6, 0.6, 0.6, 0.6, 0.6, 0.6, 0.6, 0.6, 0.6, 0.6, 0.6, 0.6, 0.6, 0.6, 0.6, 0.6, 0.6, 0.6, 0.6, 0.6, 0.6, 0.6, 0.6, 0.6, 0.6, 0.6, 0.6, 0.6, 0.6, 0.6, 0.6, 0.6, 0.6, 0.6, 0.6, 0.6, 0.6, 0.6, 0.6, 0.6, 0.6, 0.6, 0.6, 0.6, 0.6, 0.6, 0.6, 0.6, 0.6, 0.6, 0.6, 0.6, 0.6, 0.6, 0.6, 0.6, 0.6, 0.6, 0.6, 0.6, 0.6, 0.6, 0.6, 0.6, 0.6, 0.6, 0.6, 0.6, 0.6, 0.6, 0.6, 0.6, 0.6, 0.6, 0.6, 0.6, 0.6, 0.6, 0.6, 0.6, 0.6, 0.6, 0.6, 0.6, 0.6, 0.6, 0.6, 0.6, 0.6, 0.6, 0.6, 0.6, 0.6, 0.6, 0.6, 0.6, 0.6, 0.6, 0.6, 0.6, 0.6, 0.6, 0.6, 0.6, 0.6, 0.6, 0.6, 0.6, 0.6, 0.6, 0.6, 0.6, 0.6, 0.6, 0.6, 0.6, 0.6, 0.6, 0.6, 0.6, 0.6, 0.6, 0.6, 0.6, 0.6, 0.6, 0.6, 0.6, 0.6, 0.6, 0.6], "NUPDOWN": -1.0, "LSORBIT": false, "SAXIS": [0.0, 0.0, 1.0], "LSPIRAL": false, "QSPIRAL": [0.0, 0.0, 0.0], "LZEROZ": false, "LASPH": false, "LMETAGGA": false, "NELM": 100, "NELMDL": -5, "NELMIN": 6, "ENINI": 520.0, "LDIAG": true, "LSUBROT": false, "WEIMIN": 0.001, "EBREAK": 0.0, "DEPER": 0.3, "NRMM": 4, "TIME": 0.4, "AMIX": 0.4, "BMIX": 1.0, "AMIN": 0.1, "AMIX_MAG": 1.6, "BMIX_MAG": 1.0, "IMIX": 4, "MIXFIRST": false, "MAXMIX": -45, "WC": 100.0, "INIMIX": 1, "MIXPRE": 1, "MREMOVE": 5, "LDIPOL": false, "LMONO": false, "IDIPOL": 0, "EPSILON": 1.0, "DIPOL": [-100.0, -100.0, -100.0], "EFIELD": 0.0, "NGX": 54, "NGY": 54, "NGZ": 300, "NGXF": 108, "NGYF": 108, "NGZF": 600, "ADDGRID": false, "NSW": 150, "IBRION": 2, "MDALGO": 0, "ISIF": 3, "PSTRESS": 0.0, "EDIFFG": -0.01, "NFREE": 1, "POTIM": 0.5, "SMASS": -3.0, "SCALEE": 1.0, "TEBEG": 0.0001, "TEEND": 0.0001, "NBLOCK": 1, "KBLOCK": 150, "NPACO": 256, "APACO": 10.0, "ISYM": 0, "SYMPREC": 1e-05, "LORBIT": 11, "RWIGS": [-1.0, -1.0], "NEDOS": 301, "EMIN": 10.0, "EMAX": -10.0, "EFERMI": 0.0, "NWRITE": 2, "LWAVE": false, "LDOWNSAMPLE": false, "LCHARG": false, "LPARD": false, "LVTOT": false, "LVHAR": false, "LELF": false, "LOPTICS": false, "STM": [0.0, 0.0, 0.0, 0.0, 0.0, 0.0, 0.0], "NPAR": 1, "NSIM": 4, "NBLK": -1, "LPLANE": true, "LSCALAPACK": true, "LSCAAWARE": false, "LSCALU": false, "LASYNC": false, "LORBITALREAL": false, "IDIOT": 3, "PHON_NSTRUCT": -1, "LMUSIC": false, "POMASS": [22.99, 32.066], "DARWINR": [0.0, 0.0], "DARWINV": [1.0, 1.0], "LCORR": true, "GGA_COMPAT": true, "LBERRY": false, "ICORELEVEL": 0, "LDAU": false, "I_CONSTRAINED_M": 0, "GGA": "--", "VOSKOWN": 0, "LHFCALC": false, "PRECFOCK": "", "LSYMGRAD": false, "LHFONE": false, "LRHFCALC": false, "LTHOMAS": false, "LMODELHF": false, "LFOCKACE": false, "ENCUT4O": -1.0, "EXXOEP": 0, "FOURORBIT": 0, "AEXX": 0.0, "HFALPHA": 0.0, "MCALPHA": 0.0, "ALDAX": 1.0, "AGGAX": 1.0, "ALDAC": 1.0, "AGGAC": 1.0, "NKREDX": 1, "NKREDY": 1, "NKREDZ": 1, "SHIFTRED": false, "ODDONLY": false, "EVENONLY": false, "LMAXFOCK": 0, "NMAXFOCKAE": 0, "LFOCKAEDFT": false, "HFSCREEN": 0.0, "HFSCREENC": 0.0, "NBANDSGWLOW": 0, "LUSE_VDW": false, "Zab_VDW": -0.8491, "PARAM1": 0.1234, "PARAM2": 1.0, "PARAM3": 0.0, "MODEL_GW": 0, "MODEL_EPS0": 14.13380538, "MODEL_ALPHA": 1.0, "LEPSILON": false, "LRPA": false, "LNABLA": false, "LVEL": false, "CSHIFT": 0.1, "OMEGAMAX": -1.0, "DEG_THRESHOLD": 0.002, "RTIME": -0.1, "WPLASMAI": 0.0, "DFIELD": [0.0, 0.0, 0.0], "WPLASMA": [0.0, 0.0, 0.0, 0.0, 0.0, 0.0, 0.0, 0.0, 0.0], "NUCIND": false, "MAGPOS": [0.0, 0.0, 0.0], "LNICSALL": true, "ORBITALMAG": false, "LMAGBLOCH": false, "LCHIMAG": false, "LGAUGE": true, "MAGATOM": 0, "MAGDIPOL": [0.0, 0.0, 0.0], "AVECCONST": [0.0, 0.0, 0.0], "LFINITE_TEMPERATURE": false, "LADDER": false, "LRPAFORCE": false, "LFXC": false, "LHARTREE": true, "IBSE": 0, "KPOINT": [-1, 0, 0, 0], "LTCTC": false, "LTCTE": false, "LTETE": false, "LTRIPLET": false, "LFXCEPS": false, "LFXHEG": false, "NATURALO": 2, "LHOLEGF": false, "L2ORDER": false, "LDMP1": false, "LMP2LT": false, "LSMP2LT": false, "LGWLF": false, "ENCUTGW": -2.0, "ENCUTGWSOFT": -2.0, "ENCUTLF": -1.0, "LESF_SPLINES": false, "LMAXMP2": -1, "SCISSOR": 0.0, "NOMEGA": 0, "NOMEGAR": 0, "NBANDSGW": -1, "NBANDSO": -1, "NBANDSV": -1, "NELMGW": 1, "NELMHF": 1, "DIM": 3, "IESPILON": 4, "ANTIRES": 0, "OMEGAMIN": -30.0, "OMEGATL": -200.0, "OMEGAGRID": 0, "LSELFENERGY": false, "LSPECTRAL": false, "LSPECTRALGW": false, "LSINGLES": false, "LFERMIGW": false, "ODDONLYGW": false, "EVENONLYGW": false, "NKREDLFX": 1, "NKREDLFY": 1, "NKREDLFZ": 1, "MAXMEM": 2800, "TELESCOPE": 0, "NTAUPAR": -1, "NOMEGAPAR": -1, "DAMP_NEWTON": 0.80000001, "LAMBDA": 1.0, "OFIELD_KAPPA": 0.0, "OFIELD_K": [0.0, 0.0, 0.0], "OFIELD_Q6_NEAR": 0.0, "OFIELD_Q6_FAR": 0.0, "OFIELD_A": 0.0, "KPOINTS_OPT_MODE": 1, "LKPOINTS_OPT": false, "@module": "pymatgen.io.vasp.inputs", "@class": "Incar"}, "relaxed_structures": {"@module": "pymatgen.core.structure", "@class": "Structure", "charge": 0, "lattice": {"matrix": [[9.267273, 0.0, 0.0], [4.633637, 8.025694, 0.0], [0.0, 0.0, 53.22197789]], "a": 9.267273, "b": 9.267273387000353, "c": 53.22197789, "alpha": 90.0, "beta": 90.0, "gamma": 59.999997811884434, "volume": 3958.453651103918}, "sites": [{"species": [{"element": "Na", "occu": 1}], "abc": [0.6666455, 0.16665632, 0.01792928], "xyz": [6.9502107333573395, 1.33753262748608, 0.9542317437436191], "label": "Na", "properties": {}}, {"species": [{"element": "Na", "occu": 1}], "abc": [0.99998763, 0.49999479, 0.05427282], "xyz": [11.583952722584218, 4.01280518613426, 2.8885068260679496], "label": "Na", "properties": {}}, {"species": [{"element": "Na", "occu": 1}], "abc": [0.49998835, 0.99998979, 0.05427322], "xyz": [9.26711822683578, 8.02561205766426, 2.8885281148591053], "label": "Na", "properties": {}}, {"species": [{"element": "Na", "occu": 1}], "abc": [0.16664874, 0.66664799, 0.01792963], "xyz": [4.63338416112565, 5.35031277345506, 0.9542503714358805], "label": "Na", "properties": {}}, {"species": [{"element": "Na", "occu": 1}], "abc": [0.16665229, 0.16665067, 0.01792886], "xyz": [2.31661097809196, 1.33748728231498, 0.9542093905129054], "label": "Na", "properties": {}}, {"species": [{"element": "Na", "occu": 1}], "abc": [0.49999065, 0.49999065, 0.05427232], "xyz": [6.9503250264915, 4.0127719597611, 2.8884802150790048], "label": "Na", "properties": {}}, {"species": [{"element": "Na", "occu": 1}], "abc": [0.99998731, 0.9999957, 0.05427221], "xyz": [13.90077247366653, 8.0256594895158, 2.8884743606614367], "label": "Na", "properties": {}}, {"species": [{"element": "Na", "occu": 1}], "abc": [0.66664585, 0.66665813, 0.01792886], "xyz": [9.267040863785859, 5.3503941539922195, 0.9542093905129054], "label": "Na", "properties": {}}, {"species": [{"element": "Na", "occu": 1}], "abc": [0.33333345, 0.83333463, 0.08920225], "xyz": [6.95046225613116, 6.688088739983219, 4.747520177238252], "label": "Na", "properties": {}}, {"species": [{"element": "Na", "occu": 1}], "abc": [0.66666458, 0.16666422, 0.1252709], "xyz": [6.950424158658479, 1.33759603046868, 6.6671650700604], "label": "Na", "properties": {}}, {"species": [{"element": "Na", "occu": 1}], "abc": [0.16666466, 0.6666643, 0.12527081], "xyz": [4.63360727073128, 5.350443672524199, 6.667160280082391], "label": "Na", "properties": {}}, {"species": [{"element": "Na", "occu": 1}], "abc": [0.83333502, 0.33333491, 0.08920144], "xyz": [9.26729610316813, 2.6752439871775398, 4.7474770674361615], "label": "Na", "properties": {}}, {"species": [{"element": "Na", "occu": 1}], "abc": [0.83333319, 0.83333485, 0.08920236], "xyz": [11.58409736604032, 6.688090505635899, 4.74752603165582], "label": "Na", "properties": {}}, {"species": [{"element": "Na", "occu": 1}], "abc": [0.16666459, 0.16666412, 0.12527093], "xyz": [2.31678728796751, 1.33759522789928, 6.667166666719738], "label": "Na", "properties": {}}, {"species": [{"element": "Na", "occu": 1}], "abc": [0.66666446, 0.66666421, 0.12527099], "xyz": [9.26724150024935, 5.35044295021174, 6.667169860038411], "label": "Na", "properties": {}}, {"species": [{"element": "Na", "occu": 1}], "abc": [0.33333352, 0.33333277, 0.08920321], "xyz": [4.63363578627545, 2.67522681219238, 4.747571270337027], "label": "Na", "properties": {}}, {"species": [{"element": "Na", "occu": 1}], "abc": [2.35e-06, 0.50000239, 0.16094807], "xyz": [2.3168513524839804, 4.01286618140866, 8.565974622978171], "label": "Na", "properties": {}}, {"species": [{"element": "Na", "occu": 1}], "abc": [0.3333327, 0.83333233, 0.19670416], "xyz": [6.95044464831131, 6.688070280887019, 10.468984454391022], "label": "Na", "properties": {}}, {"species": [{"element": "Na", "occu": 1}], "abc": [0.83333261, 0.33333241, 0.19670417], "xyz": [9.2672621849477, 2.67522392294254, 10.468984986610801], "label": "Na", "properties": {}}, {"species": [{"element": "Na", "occu": 1}], "abc": [0.50000274, 2.07e-06, 0.1609481], "xyz": [4.6336714839566095, 1.661318658e-05, 8.565976219637509], "label": "Na", "properties": {}}, {"species": [{"element": "Na", "occu": 1}], "abc": [0.50000302, 0.50000238, 0.16094802], "xyz": [6.950494015220519, 4.01286610115172, 8.565971961879278], "label": "Na", "properties": {}}, {"species": [{"element": "Na", "occu": 1}], "abc": [0.83333252, 0.8333322, 0.19670413], "xyz": [11.58407887782936, 6.6880692375468, 10.468982857731685], "label": "Na", "properties": {}}, {"species": [{"element": "Na", "occu": 1}], "abc": [0.33333257, 0.33333223, 0.19670414], "xyz": [4.63362448020212, 2.67522247831762, 10.468983389951465], "label": "Na", "properties": {}}, {"species": [{"element": "Na", "occu": 1}], "abc": [2.62e-06, 2.58e-06, 0.16094806], "xyz": [3.623503872e-05, 2.070629052e-05, 8.565974090758393], "label": "Na", "properties": {}}, {"species": [{"element": "Na", "occu": 1}], "abc": [0.66667155, 0.16667146, 0.23229028], "xyz": [6.95052229908317, 1.33765413649324, 12.362948146221909], "label": "Na", "properties": {}}, {"species": [{"element": "Na", "occu": 1}], "abc": [8.24e-06, 0.5000077, 0.26800575], "xyz": [2.3169305413344206, 4.0129087978438, 14.263796100892867], "label": "Na", "properties": {}}, {"species": [{"element": "Na", "occu": 1}], "abc": [0.50000833, 7.6e-06, 0.2680057], "xyz": [4.63374891202529, 6.09952744e-05, 14.263793439793973], "label": "Na", "properties": {}}, {"species": [{"element": "Na", "occu": 1}], "abc": [0.16667161, 0.66667129, 0.23229026], "xyz": [4.63370406740126, 5.35049977212526, 12.362947081782352], "label": "Na", "properties": {}}, {"species": [{"element": "Na", "occu": 1}], "abc": [0.16667146, 0.16667141, 0.23229028], "xyz": [2.31688473334675, 1.3376537352085398, 12.362948146221909], "label": "Na", "properties": {}}, {"species": [{"element": "Na", "occu": 1}], "abc": [0.50000829, 0.50000771, 0.26800574], "xyz": [6.95056755103444, 4.01290887810074, 14.263795568673087], "label": "Na", "properties": {}}, {"species": [{"element": "Na", "occu": 1}], "abc": [8.33e-06, 7.69e-06, 0.26800571], "xyz": [0.00011282905261999999, 6.171758685999999e-05, 14.263793972013751], "label": "Na", "properties": {}}, {"species": [{"element": "Na", "occu": 1}], "abc": [0.66667159, 0.66667125, 0.23229027], "xyz": [9.26734019671032, 5.3504994510975, 12.36294761400213], "label": "Na", "properties": {}}, {"species": [{"element": "Na", "occu": 1}], "abc": [0.33337903, 0.83337664, 0.30353711], "xyz": [6.95107931752487, 6.68842589938816, 16.154845357214498], "label": "Na", "properties": {}}, {"species": [{"element": "Na", "occu": 1}], "abc": [0.66671864, 0.16671376, 0.33918866], "xyz": [6.95115469781384, 1.3379936233494398, 18.052291363058725], "label": "Na", "properties": {}}, {"species": [{"element": "Na", "occu": 1}], "abc": [0.16671796, 0.66671331, 0.33918875], "xyz": [4.634328310931551, 5.3508370117871396, 18.052296153036735], "label": "Na", "properties": {}}, {"species": [{"element": "Na", "occu": 1}], "abc": [0.83337907, 0.33337668, 0.30353708], "xyz": [9.26789787356127, 2.6755792204159197, 16.15484376055516], "label": "Na", "properties": {}}, {"species": [{"element": "Na", "occu": 1}], "abc": [0.83337898, 0.83337664, 0.3035371], "xyz": [11.584715354161219, 6.68842589938816, 16.15484482499472], "label": "Na", "properties": {}}, {"species": [{"element": "Na", "occu": 1}], "abc": [0.16671882, 0.1667133, 0.33918866], "xyz": [2.31751773444996, 1.3379899315302, 18.052291363058725], "label": "Na", "properties": {}}, {"species": [{"element": "Na", "occu": 1}], "abc": [0.66671838, 0.6667133, 0.33918876], "xyz": [9.26796865684984, 5.3508369315302, 18.052296685256515], "label": "Na", "properties": {}}, {"species": [{"element": "Na", "occu": 1}], "abc": [0.33337902, 0.33337668, 0.30353711], "xyz": [4.63426091019762, 2.6755792204159197, 16.154845357214498], "label": "Na", "properties": {}}, {"species": [{"element": "Na", "occu": 1}], "abc": [4.815e-05, 0.50003743, 0.37476165], "xyz": [2.31743815622786, 4.01314740172642, 19.945556250319918], "label": "Na", "properties": {}}, {"species": [{"element": "Na", "occu": 1}], "abc": [0.33337735, 0.83336704, 0.41039633], "xyz": [6.95101926559103, 6.68834885272576, 21.84210440139714], "label": "Na", "properties": {}}, {"species": [{"element": "Na", "occu": 1}], "abc": [0.83337804, 0.33336708, 0.41039615], "xyz": [9.26784384535488, 2.67550217375352, 21.842094821441123], "label": "Na", "properties": {}}, {"species": [{"element": "Na", "occu": 1}], "abc": [0.50004879, 3.723e-05, 0.37476149], "xyz": [4.63426116055518, 0.00029879658762, 19.945547734803455], "label": "Na", "properties": {}}, {"species": [{"element": "Na", "occu": 1}], "abc": [0.5000477, 0.50003809, 0.3747616], "xyz": [6.951073544155429, 4.0131526986844595, 19.94555358922102], "label": "Na", "properties": {}}, {"species": [{"element": "Na", "occu": 1}], "abc": [0.83337715, 0.83336747, 0.41039627], "xyz": [11.58465590460034, 6.68835230377418, 21.84210120807847], "label": "Na", "properties": {}}, {"species": [{"element": "Na", "occu": 1}], "abc": [0.33337821, 0.333367, 0.41039618], "xyz": [4.634208550100331, 2.675501531698, 21.84209641810046], "label": "Na", "properties": {}}, {"species": [{"element": "Na", "occu": 1}], "abc": [4.862e-05, 3.72e-05, 0.3747615], "xyz": [0.0006229461096599999, 0.0002985558168, 19.945548267023234], "label": "Na", "properties": {}}, {"species": [{"element": "Na", "occu": 1}], "abc": [0.66671506, 0.16671016, 0.44625593], "xyz": [6.9511048398833, 1.3379647308510398, 23.750623239741387], "label": "Na", "properties": {}}, {"species": [{"element": "Na", "occu": 1}], "abc": [4.205e-05, 0.50003895, 0.4813187], "xyz": [2.3173886689908, 4.013159600781299, 25.61673320944354], "label": "Na", "properties": {}}, {"species": [{"element": "Na", "occu": 1}], "abc": [0.50004194, 3.958e-05, 0.48131873], "xyz": [4.63420856878208, 0.00031765696851999997, 25.616734806102876], "label": "Na", "properties": {}}, {"species": [{"element": "Na", "occu": 1}], "abc": [0.16671419, 0.66670984, 0.44625614], "xyz": [4.63427729459195, 5.35080916262896, 23.750634416356746], "label": "Na", "properties": {}}, {"species": [{"element": "Na", "occu": 1}], "abc": [0.1667151, 0.16670979, 0.44625595], "xyz": [2.31746699612853, 1.3379617613442598, 23.750624304180946], "label": "Na", "properties": {}}, {"species": [{"element": "Na", "occu": 1}], "abc": [0.50004217, 0.500039, 0.48131873], "xyz": [6.951026512745409, 4.013160002066, 25.616734806102876], "label": "Na", "properties": {}}, {"species": [{"element": "Na", "occu": 1}], "abc": [4.184e-05, 3.969e-05, 0.48131875], "xyz": [0.00057165175485, 0.00031853979486, 25.61673587054244], "label": "Na", "properties": {}}, {"species": [{"element": "Na", "occu": 1}], "abc": [0.66671433, 0.66670991, 0.44625609], "xyz": [9.26791541636476, 5.35080972442754, 23.75063175525785], "label": "Na", "properties": {}}, {"species": [{"element": "Na", "occu": 1}], "abc": [0.33334449, 0.33334399, 0.51792758], "xyz": [4.633789437667399, 2.6753168604790596, 27.56513021138121], "label": "Na", "properties": {}}, {"species": [{"element": "Na", "occu": 1}], "abc": [5.09e-06, 4.79e-06, 0.55427119], "xyz": [6.936554080000001e-05, 3.8443074259999996e-05, 29.499409019243988], "label": "Na", "properties": {}}, {"species": [{"element": "Na", "occu": 1}], "abc": [0.50000515, 0.50000466, 0.55427121], "xyz": [6.950524319204369, 4.012884399734039, 29.499410083683546], "label": "Na", "properties": {}}, {"species": [{"element": "Na", "occu": 1}], "abc": [0.8333447, 0.83334367, 0.51792759], "xyz": [11.58424490103089, 6.6881612922569795, 27.565130743600985], "label": "Na", "properties": {}}, {"species": [{"element": "Na", "occu": 1}], "abc": [0.83334465, 0.33334388, 0.51792759], "xyz": [9.26742691073101, 2.6753159776527196, 27.565130743600985], "label": "Na", "properties": {}}, {"species": [{"element": "Na", "occu": 1}], "abc": [0.50000521, 4.92e-06, 0.55427114], "xyz": [4.633707579986369, 3.948641448e-05, 29.499406358145094], "label": "Na", "properties": {}}, {"species": [{"element": "Na", "occu": 1}], "abc": [5.29e-06, 0.50000486, 0.5542712], "xyz": [2.31689004334999, 4.01288600487284, 29.499409551463764], "label": "Na", "properties": {}}, {"species": [{"element": "Na", "occu": 1}], "abc": [0.33334452, 0.83334369, 0.51792763], "xyz": [6.950606825594489, 6.688161452770859, 27.5651328724801], "label": "Na", "properties": {}}, {"species": [{"element": "Na", "occu": 1}], "abc": [0.66666586, 0.66666551, 0.58920089], "xyz": [9.26726049815965, 5.35045338361394, 31.35843674034832], "label": "Na", "properties": {}}, {"species": [{"element": "Na", "occu": 1}], "abc": [0.33333656, 0.33333624, 0.6252707], "xyz": [4.63368003750576, 2.67525466135056, 33.27814337066482], "label": "Na", "properties": {}}, {"species": [{"element": "Na", "occu": 1}], "abc": [0.83333659, 0.83333613, 0.6252707], "xyz": [11.58413480582388, 6.68810077852422, 33.27814337066482], "label": "Na", "properties": {}}, {"species": [{"element": "Na", "occu": 1}], "abc": [0.16666581, 0.16666552, 0.58920088], "xyz": [2.3168050811323697, 1.33760646387088, 31.358436208128545], "label": "Na", "properties": {}}, {"species": [{"element": "Na", "occu": 1}], "abc": [0.16666593, 0.66666548, 0.58920101], "xyz": [4.6336245078596505, 5.35045314284312, 31.35844312698567], "label": "Na", "properties": {}}, {"species": [{"element": "Na", "occu": 1}], "abc": [0.83333665, 0.33333632, 0.62527063], "xyz": [9.26731774225129, 2.67525530340608, 33.27813964512637], "label": "Na", "properties": {}}, {"species": [{"element": "Na", "occu": 1}], "abc": [0.33333664, 0.83333628, 0.62527068], "xyz": [6.950499464233081, 6.68810198237832, 33.27814230622526], "label": "Na", "properties": {}}, {"species": [{"element": "Na", "occu": 1}], "abc": [0.66666582, 0.16666551, 0.58920097], "xyz": [6.950441627468729, 1.3376063836139398, 31.358440998106555], "label": "Na", "properties": {}}, {"species": [{"element": "Na", "occu": 1}], "abc": [0.99999865, 0.99999836, 0.66094795], "xyz": [13.90088989001677, 8.02568083786184, 35.176957181340825], "label": "Na", "properties": {}}, {"species": [{"element": "Na", "occu": 1}], "abc": [0.66666888, 0.66666849, 0.69670414], "xyz": [9.26730229356237, 5.350477300182059, 37.079972334951464], "label": "Na", "properties": {}}, {"species": [{"element": "Na", "occu": 1}], "abc": [0.16666884, 0.16666852, 0.69670415], "xyz": [2.31684706188056, 1.33763054095288, 37.07997286717124], "label": "Na", "properties": {}}, {"species": [{"element": "Na", "occu": 1}], "abc": [0.4999987, 0.49999828, 0.66094795], "xyz": [6.95043498268946, 4.01283319580632, 35.176957181340825], "label": "Na", "properties": {}}, {"species": [{"element": "Na", "occu": 1}], "abc": [0.49999869, 0.9999983, 0.66094799], "xyz": [9.26725348268947, 8.0256803563202, 35.17695931021994], "label": "Na", "properties": {}}, {"species": [{"element": "Na", "occu": 1}], "abc": [0.16666884, 0.66666846, 0.69670411], "xyz": [4.6336652838623404, 5.35047705941124, 37.079970738292126], "label": "Na", "properties": {}}, {"species": [{"element": "Na", "occu": 1}], "abc": [0.66666886, 0.16666846, 0.6967041], "xyz": [6.9504834692078, 1.3376300594112398, 37.07997020607235], "label": "Na", "properties": {}}, {"species": [{"element": "Na", "occu": 1}], "abc": [0.99999865, 0.49999823, 0.66094795], "xyz": [11.58407078764396, 4.01283279452162, 35.176957181340825], "label": "Na", "properties": {}}, {"species": [{"element": "Na", "occu": 1}], "abc": [0.3333298, 0.33332931, 0.73229024], "xyz": [4.63358527963587, 2.6751990432911397, 38.97393496234279], "label": "Na", "properties": {}}, {"species": [{"element": "Na", "occu": 1}], "abc": [0.99999309, 0.99999324, 0.7680057], "xyz": [13.900814639757451, 8.02563974630856, 40.874782384793974], "label": "Na", "properties": {}}, {"species": [{"element": "Na", "occu": 1}], "abc": [0.49999314, 0.49999306, 0.76800568], "xyz": [6.950359269066439, 4.01279130168364, 40.874781320354415], "label": "Na", "properties": {}}, {"species": [{"element": "Na", "occu": 1}], "abc": [0.83332977, 0.83332944, 0.73229025], "xyz": [11.58404060399049, 6.68804708663136, 38.973935494562575], "label": "Na", "properties": {}}, {"species": [{"element": "Na", "occu": 1}], "abc": [0.83332992, 0.33332934, 0.73229026], "xyz": [9.267223030717739, 2.67519928406196, 38.97393602678235], "label": "Na", "properties": {}}, {"species": [{"element": "Na", "occu": 1}], "abc": [0.49999306, 0.99999297, 0.76800568], "xyz": [9.26717661065727, 8.02563757937118, 40.874781320354415], "label": "Na", "properties": {}}, {"species": [{"element": "Na", "occu": 1}], "abc": [0.9999932, 0.49999292, 0.76800566], "xyz": [11.58399567639364, 4.01279017808648, 40.87478025591486], "label": "Na", "properties": {}}, {"species": [{"element": "Na", "occu": 1}], "abc": [0.33332975, 0.83332954, 0.73229028], "xyz": [6.950404382008729, 6.68804788920076, 38.973937091221906], "label": "Na", "properties": {}}, {"species": [{"element": "Na", "occu": 1}], "abc": [0.66662216, 0.66662354, 0.80353705], "xyz": [9.26666104458466, 5.35011654523676, 42.765831108895824], "label": "Na", "properties": {}}, {"species": [{"element": "Na", "occu": 1}], "abc": [0.33328369, 0.333285, 0.83918861], "xyz": [4.63295264922237, 2.6748434247899997, 44.663277646959834], "label": "Na", "properties": {}}, {"species": [{"element": "Na", "occu": 1}], "abc": [0.83328368, 0.83328574, 0.83918864], "xyz": [11.58341098544102, 6.68769636380356, 44.66327924361917], "label": "Na", "properties": {}}, {"species": [{"element": "Na", "occu": 1}], "abc": [0.16662213, 0.16662352, 0.80353705], "xyz": [2.3162056738937298, 1.3372693847228798, 42.765831108895824], "label": "Na", "properties": {}}, {"species": [{"element": "Na", "occu": 1}], "abc": [0.16662232, 0.66662326, 0.80353705], "xyz": [4.63302472992998, 5.35011429804244, 42.765831108895824], "label": "Na", "properties": {}}, {"species": [{"element": "Na", "occu": 1}], "abc": [0.83328214, 0.33328734, 0.83918857], "xyz": [9.266585627659799, 2.6748622049139597, 44.66327551808072], "label": "Na", "properties": {}}, {"species": [{"element": "Na", "occu": 1}], "abc": [0.33328183, 0.83328606, 0.83918857], "xyz": [6.949758823749811, 6.68769893202564, 44.66327551808072], "label": "Na", "properties": {}}, {"species": [{"element": "Na", "occu": 1}], "abc": [0.66662231, 0.16662347, 0.80353705], "xyz": [6.949843610321021, 1.33726898343818, 42.765831108895824], "label": "Na", "properties": {}}, {"species": [{"element": "Na", "occu": 1}], "abc": [0.99995205, 0.99996178, 0.8747615], "xyz": [13.900288536653509, 8.02538725797532, 46.55653721202323], "label": "Na", "properties": {}}, {"species": [{"element": "Na", "occu": 1}], "abc": [0.666623, 0.6666315, 0.91039618], "xyz": [9.2667057128445, 5.350180429761, 48.453085363100456], "label": "Na", "properties": {}}, {"species": [{"element": "Na", "occu": 1}], "abc": [0.16662353, 0.1666309, 0.91039612], "xyz": [2.31625284431699, 1.3373286143446, 48.45308216978179], "label": "Na", "properties": {}}, {"species": [{"element": "Na", "occu": 1}], "abc": [0.49995266, 0.49996044, 0.87476146], "xyz": [6.94983298061646, 4.01252950354536, 46.55653508314412], "label": "Na", "properties": {}}, {"species": [{"element": "Na", "occu": 1}], "abc": [0.4999537, 0.99995916, 0.87476148], "xyz": [9.26665518752502, 8.02536623065704, 46.55653614758367], "label": "Na", "properties": {}}, {"species": [{"element": "Na", "occu": 1}], "abc": [0.16662413, 0.66662977, 0.91039618], "xyz": [4.63307166867098, 5.35016654531038, 48.453085363100456], "label": "Na", "properties": {}}, {"species": [{"element": "Na", "occu": 1}], "abc": [0.6666238, 0.16663054, 0.91039629], "xyz": [6.94989017837138, 1.3373257250947599, 48.45309121751803], "label": "Na", "properties": {}}, {"species": [{"element": "Na", "occu": 1}], "abc": [0.99995382, 0.49996011, 0.87476153], "xyz": [11.583478701552929, 4.01252685506634, 46.55653880868257], "label": "Na", "properties": {}}, {"species": [{"element": "Na", "occu": 1}], "abc": [0.33328684, 0.33328821, 0.94625604], "xyz": [4.632996715107089, 2.6748691872677397, 50.361618039158955], "label": "Na", "properties": {}}, {"species": [{"element": "Na", "occu": 1}], "abc": [0.99995973, 0.99996187, 0.98131934], "xyz": [13.900360126337482, 8.02538798028778, 52.22775621650939], "label": "Na", "properties": {}}, {"species": [{"element": "Na", "occu": 1}], "abc": [0.49996203, 0.49996203, 0.9813184], "xyz": [6.949927182447301, 4.01254226439882, 52.227706187850174], "label": "Na", "properties": {}}, {"species": [{"element": "Na", "occu": 1}], "abc": [0.83328708, 0.83328903, 0.94625622], "xyz": [11.583457738834948, 6.68772276833682, 50.36162761911497], "label": "Na", "properties": {}}, {"species": [{"element": "Na", "occu": 1}], "abc": [0.83328658, 0.33328996, 0.94625614], "xyz": [9.26663891448086, 2.67488323223224, 50.36162336135674], "label": "Na", "properties": {}}, {"species": [{"element": "Na", "occu": 1}], "abc": [0.49996009, 0.9999595, 0.98131896], "xyz": [9.266715980836072, 8.025368959392999, 52.22773599215779], "label": "Na", "properties": {}}, {"species": [{"element": "Na", "occu": 1}], "abc": [0.99995673, 0.49995903, 0.98131923], "xyz": [11.5835006649894, 4.01251818731682, 52.227750362091825], "label": "Na", "properties": {}}, {"species": [{"element": "Na", "occu": 1}], "abc": [0.33328551, 0.83329012, 0.94625592], "xyz": [6.94981173988067, 6.68773151634328, 50.36161165252161], "label": "Na", "properties": {}}, {"species": [{"element": "S", "occu": 1}], "abc": [0.3333247, 0.83332564, 0.03530383], "xyz": [6.95033951109578, 6.688016588994159, 1.8789396596923187], "label": "S", "properties": {}}, {"species": [{"element": "S", "occu": 1}], "abc": [0.83332425, 0.83332931, 0.03530392], "xyz": [11.583988846270719, 6.6880460432911395, 1.878944449670329], "label": "S", "properties": {}}, {"species": [{"element": "S", "occu": 1}], "abc": [0.33332599, 0.33332679, 0.03530469], "xyz": [4.6335382945605, 2.6751788185422596, 1.878985430593304], "label": "S", "properties": {}}, {"species": [{"element": "S", "occu": 1}], "abc": [0.83332385, 0.33332957, 0.03530297], "xyz": [9.267167844107139, 2.67520112997158, 1.8788938887913333], "label": "S", "properties": {}}, {"species": [{"element": "S", "occu": 1}], "abc": [0.99999854, 0.49999967, 0.10747525], "xyz": [11.58407644068121, 4.01284435152098, 5.720045379222222], "label": "S", "properties": {}}, {"species": [{"element": "S", "occu": 1}], "abc": [0.5000003, 0.49999946, 0.10747492], "xyz": [6.95045527801792, 4.01284266612524, 5.720027815969519], "label": "S", "properties": {}}, {"species": [{"element": "S", "occu": 1}], "abc": [0.9999993, 1e-08, 0.10747485], "xyz": [9.26726655924527, 8.025694e-08, 5.720024090431066], "label": "S", "properties": {}}, {"species": [{"element": "S", "occu": 1}], "abc": [0.49999963, 0.99999783, 0.10747543], "xyz": [9.2672600161167, 8.02567658424402, 5.720054959178242], "label": "S", "properties": {}}, {"species": [{"element": "S", "occu": 1}], "abc": [0.66666741, 0.16666659, 0.17887267], "xyz": [6.950461366760759, 1.33761505136346, 9.519957287865267], "label": "S", "properties": {}}, {"species": [{"element": "S", "occu": 1}], "abc": [0.16666744, 0.16666688, 0.17887261], "xyz": [2.31682648853368, 1.3376173788147199, 9.519954094546591], "label": "S", "properties": {}}, {"species": [{"element": "S", "occu": 1}], "abc": [0.66666704, 0.6666672, 0.1788727], "xyz": [9.26727926438832, 5.3504669470368, 9.519958884524602], "label": "S", "properties": {}}, {"species": [{"element": "S", "occu": 1}], "abc": [0.16666745, 0.66666746, 0.17887267], "xyz": [4.6336477687158695, 5.35046903371724, 9.519957287865267], "label": "S", "properties": {}}, {"species": [{"element": "S", "occu": 1}], "abc": [0.33333822, 0.83333745, 0.25023661], "xyz": [6.95051952787971, 6.6881113724403, 13.318087324688554], "label": "S", "properties": {}}, {"species": [{"element": "S", "occu": 1}], "abc": [0.8333379, 0.8333382, 0.25023664], "xyz": [11.5841565375801, 6.6881173917108, 13.31808892134789], "label": "S", "properties": {}}, {"species": [{"element": "S", "occu": 1}], "abc": [0.33333799, 0.33333787, 0.25023664], "xyz": [4.633700842534459, 2.6752677432317795, 13.31808892134789], "label": "S", "properties": {}}, {"species": [{"element": "S", "occu": 1}], "abc": [0.83333751, 0.333338, 0.25023663], "xyz": [9.26733349661623, 2.675268786572, 13.31808838912811], "label": "S", "properties": {}}, {"species": [{"element": "S", "occu": 1}], "abc": [8.923e-05, 0.50008623, 0.32137015], "xyz": [2.3180449772883, 4.013539055593619, 17.103955017805983], "label": "S", "properties": {}}, {"species": [{"element": "S", "occu": 1}], "abc": [0.50008917, 0.50008717, 0.32137006], "xyz": [6.9516852768707, 4.01354659974598, 17.103950227827973], "label": "S", "properties": {}}, {"species": [{"element": "S", "occu": 1}], "abc": [8.966e-05, 8.655e-05, 0.32137008], "xyz": [0.00123194497953, 0.0006946238157, 17.10395129226753], "label": "S", "properties": {}}, {"species": [{"element": "S", "occu": 1}], "abc": [0.50008969, 8.672e-05, 0.32137003], "xyz": [4.63486951071601, 0.00069598818368, 17.103948631168635], "label": "S", "properties": {}}, {"species": [{"element": "S", "occu": 1}], "abc": [0.66669733, 0.16669014, 0.39266278], "xyz": [6.95084776572027, 1.3378040564571598, 20.89828979538593], "label": "S", "properties": {}}, {"species": [{"element": "S", "occu": 1}], "abc": [0.16669733, 0.1666894, 0.39266273], "xyz": [2.31720783682889, 1.3377981174435998, 20.898287134287038], "label": "S", "properties": {}}, {"species": [{"element": "S", "occu": 1}], "abc": [0.66669657, 0.66669018, 0.39266285], "xyz": [9.26765940793827, 5.35065137748492, 20.898293520924387], "label": "S", "properties": {}}, {"species": [{"element": "S", "occu": 1}], "abc": [0.16669666, 0.66668996, 0.39266279], "xyz": [4.6340227225927, 5.35064961183224, 20.89829032760571], "label": "S", "properties": {}}, {"species": [{"element": "S", "occu": 1}], "abc": [0.33336366, 0.8333613, 0.4640014], "xyz": [6.95086579954728, 6.6883027852421995, 24.695072251729044], "label": "S", "properties": {}}, {"species": [{"element": "S", "occu": 1}], "abc": [0.83336374, 0.83336136, 0.46400136], "xyz": [11.58450331894734, 6.68830326678384, 24.695070122849927], "label": "S", "properties": {}}, {"species": [{"element": "S", "occu": 1}], "abc": [0.33336384, 0.33336085, 0.46400134], "xyz": [4.634046882519771, 2.6754521736798997, 24.695069058410372], "label": "S", "properties": {}}, {"species": [{"element": "S", "occu": 1}], "abc": [0.83336396, 0.33336122, 0.46400133], "xyz": [9.26768620903822, 2.67545514318668, 24.695068526190592], "label": "S", "properties": {}}, {"species": [{"element": "S", "occu": 1}], "abc": [0.66667024, 0.66666998, 0.53530309], "xyz": [9.26732180117278, 5.35048925846612, 28.48988922042868], "label": "S", "properties": {}}, {"species": [{"element": "S", "occu": 1}], "abc": [0.16667046, 0.66666979, 0.53530315], "xyz": [4.63368645958181, 5.35048773358426, 28.48989241374735], "label": "S", "properties": {}}, {"species": [{"element": "S", "occu": 1}], "abc": [0.66667055, 0.16666999, 0.53530313], "xyz": [6.9505062203637795, 1.3376423387230598, 28.489891349307793], "label": "S", "properties": {}}, {"species": [{"element": "S", "occu": 1}], "abc": [0.1666705, 0.16666989, 0.53530311], "xyz": [2.31686879363643, 1.3376415361536598, 28.489890284868235], "label": "S", "properties": {}}, {"species": [{"element": "S", "occu": 1}], "abc": [9.1e-07, 1.4e-07, 0.60747435], "xyz": [9.081927609999999e-06, 1.12359716e-06, 32.33098642444212], "label": "S", "properties": {}}, {"species": [{"element": "S", "occu": 1}], "abc": [0.50000026, 4.8e-07, 0.60747436], "xyz": [4.63364113363674, 3.852333119999999e-06, 32.330986956661896], "label": "S", "properties": {}}, {"species": [{"element": "S", "occu": 1}], "abc": [6.1e-07, 0.50000039, 0.6074743], "xyz": [2.31682596015496, 4.012850130020659, 32.33098376334323], "label": "S", "properties": {}}, {"species": [{"element": "S", "occu": 1}], "abc": [0.5000004, 0.5000006, 0.60747433], "xyz": [6.9504614870914, 4.0128518154164, 32.33098536000256], "label": "S", "properties": {}}, {"species": [{"element": "S", "occu": 1}], "abc": [0.33333374, 0.33333313, 0.67887259], "xyz": [4.6336394931848295, 2.6752297014422197, 36.130941975107035], "label": "S", "properties": {}}, {"species": [{"element": "S", "occu": 1}], "abc": [0.83333369, 0.3333331, 0.67887252], "xyz": [9.26727539081207, 2.6752294606714, 36.13093824956858], "label": "S", "properties": {}}, {"species": [{"element": "S", "occu": 1}], "abc": [0.33333324, 0.83333353, 0.67887255], "xyz": [6.95045521300313, 6.68807991171982, 36.13093984622792], "label": "S", "properties": {}}, {"species": [{"element": "S", "occu": 1}], "abc": [0.83333381, 0.83333327, 0.67887261], "xyz": [11.584095790603119, 6.68807782503938, 36.130943039546594], "label": "S", "properties": {}}, {"species": [{"element": "S", "occu": 1}], "abc": [0.66666277, 0.66666264, 0.7502366], "xyz": [9.267218563747889, 5.35043034987216, 39.92907573746877], "label": "S", "properties": {}}, {"species": [{"element": "S", "occu": 1}], "abc": [0.16666291, 0.66666223, 0.75023662], "xyz": [4.63358146137494, 5.35042705933762, 39.92907680190833], "label": "S", "properties": {}}, {"species": [{"element": "S", "occu": 1}], "abc": [0.66666313, 0.16666198, 0.75023661], "xyz": [6.950400341765749, 1.33757805291412, 39.92907626968855], "label": "S", "properties": {}}, {"species": [{"element": "S", "occu": 1}], "abc": [0.16666315, 0.16666221, 0.75023664], "xyz": [2.31676509284772, 1.33757989882374, 39.92907786634789], "label": "S", "properties": {}}, {"species": [{"element": "S", "occu": 1}], "abc": [0.99991146, 0.99993831, 0.82136598], "xyz": [13.899803626582049, 8.02519889493714, 43.71472202715818], "label": "S", "properties": {}}, {"species": [{"element": "S", "occu": 1}], "abc": [0.49991129, 0.99991272, 0.82137004], "xyz": [9.26604697637481, 8.02499351742768, 43.71493810838842], "label": "S", "properties": {}}, {"species": [{"element": "S", "occu": 1}], "abc": [0.99991191, 0.4999131, 0.82137004], "xyz": [11.58287248286613, 4.0121495671914, 43.71493810838842], "label": "S", "properties": {}}, {"species": [{"element": "S", "occu": 1}], "abc": [0.49991113, 0.49993869, 0.82136596], "xyz": [6.949347329164019, 4.01235494470086, 43.71472096271862], "label": "S", "properties": {}}, {"species": [{"element": "S", "occu": 1}], "abc": [0.33330407, 0.33330778, 0.89266264], "xyz": [4.63324707049697, 2.67502625009932, 47.50927128930903], "label": "S", "properties": {}}, {"species": [{"element": "S", "occu": 1}], "abc": [0.83330375, 0.33330892, 0.89266278], "xyz": [9.266885887315789, 2.67503539939048, 47.50927874038593], "label": "S", "properties": {}}, {"species": [{"element": "S", "occu": 1}], "abc": [0.33330339, 0.83330869, 0.89266269], "xyz": [6.9500634853609995, 6.687880553480859, 47.50927395040792], "label": "S", "properties": {}}, {"species": [{"element": "S", "occu": 1}], "abc": [0.83330436, 0.83330819, 0.89266278], "xyz": [11.58370665779731, 6.68787654063386, 47.50927874038593], "label": "S", "properties": {}}, {"species": [{"element": "S", "occu": 1}], "abc": [0.66663601, 0.66663946, 0.96400158], "xyz": [9.26686316381675, 5.35024431428524, 51.30607077668507], "label": "S", "properties": {}}, {"species": [{"element": "S", "occu": 1}], "abc": [0.16663684, 0.66663728, 0.96400194], "xyz": [4.633224254324681, 5.350226818272319, 51.306089936597104], "label": "S", "properties": {}}, {"species": [{"element": "S", "occu": 1}], "abc": [0.66663632, 0.16663796, 0.96400184], "xyz": [6.950040586215879, 1.33738527574424, 51.30608461439932], "label": "S", "properties": {}}, {"species": [{"element": "S", "occu": 1}], "abc": [0.16663749, 0.16663774, 0.96400166], "xyz": [2.31641390952515, 1.33738351009156, 51.306075034443296], "label": "S", "properties": {}}]}, "formula": "(Na2S)56.0", "bandgap": 2.3356}