{"miller": "100_0.09", "final_energy": -1207.65875781, "sigma": 0.05789594351006098, "incar_parameters": {"SYSTEM": "unknown system", "LCOMPAT": false, "PREC": "normal", "ENMAX": 520.0, "ENAUG": 605.392, "EDIFF": 1e-05, "IALGO": 38, "IWAVPR": 11, "NBANDS": 624, "NBANDSLOW": -1, "NBANDSHIGH": -1, "NELECT": 1040.0, "TURBO": 0, "IRESTART": 0, "NREBOOT": 0, "NMIN": 0, "EREF": 0.0, "ISMEAR": 0, "SIGMA": 0.05, "KSPACING": 0.5, "KGAMMA": true, "KBLOWUP": true, "LREAL": true, "ROPT": [-0.0005, -0.0005, -0.0005, -0.0005, -0.0005], "LMAXPAW": -100, "LMAXMIX": 4, "NLSPLINE": false, "ISTART": 0, "ICHARG": 2, "INIWAV": 1, "ISPIN": 1, "LNONCOLLINEAR": false, "MAGMOM": [0.6, 0.6, 0.6, 0.6, 0.6, 0.6, 0.6, 0.6, 0.6, 0.6, 0.6, 0.6, 0.6, 0.6, 0.6, 0.6, 0.6, 0.6, 0.6, 0.6, 0.6, 0.6, 0.6, 0.6, 0.6, 0.6, 0.6, 0.6, 0.6, 0.6, 0.6, 0.6, 0.6, 0.6, 0.6, 0.6, 0.6, 0.6, 0.6, 0.6, 0.6, 0.6, 0.6, 0.6, 0.6, 0.6, 0.6, 0.6, 0.6, 0.6, 0.6, 0.6, 0.6, 0.6, 0.6, 0.6, 0.6, 0.6, 0.6, 0.6, 0.6, 0.6, 0.6, 0.6, 0.6, 0.6, 0.6, 0.6, 0.6, 0.6, 0.6, 0.6, 0.6, 0.6, 0.6, 0.6, 0.6, 0.6, 0.6, 0.6, 0.6, 0.6, 0.6, 0.6, 0.6, 0.6, 0.6, 0.6, 0.6, 0.6, 0.6, 0.6, 0.6, 0.6, 0.6, 0.6, 0.6, 0.6, 0.6, 0.6, 0.6, 0.6, 0.6, 0.6, 0.6, 0.6, 0.6, 0.6, 0.6, 0.6, 0.6, 0.6, 0.6, 0.6, 0.6, 0.6, 0.6, 0.6, 0.6, 0.6, 0.6, 0.6, 0.6, 0.6, 0.6, 0.6, 0.6, 0.6, 0.6, 0.6, 0.6, 0.6, 0.6, 0.6, 0.6, 0.6, 0.6, 0.6, 0.6, 0.6, 0.6, 0.6, 0.6, 0.6, 0.6, 0.6, 0.6, 0.6, 0.6, 0.6, 0.6, 0.6, 0.6, 0.6, 0.6, 0.6, 0.6, 0.6, 0.6, 0.6], "NUPDOWN": -1.0, "LSORBIT": false, "SAXIS": [0.0, 0.0, 1.0], "LSPIRAL": false, "QSPIRAL": [0.0, 0.0, 0.0], "LZEROZ": false, "LASPH": false, "LMETAGGA": false, "NELM": 100, "NELMDL": -5, "NELMIN": 6, "ENINI": 520.0, "LDIAG": true, "LSUBROT": false, "WEIMIN": 0.001, "EBREAK": 0.0, "DEPER": 0.3, "NRMM": 4, "TIME": 0.4, "AMIX": 0.4, "BMIX": 1.0, "AMIN": 0.1, "AMIX_MAG": 1.6, "BMIX_MAG": 1.0, "IMIX": 4, "MIXFIRST": false, "MAXMIX": -45, "WC": 100.0, "INIMIX": 1, "MIXPRE": 1, "MREMOVE": 5, "LDIPOL": false, "LMONO": false, "IDIPOL": 0, "EPSILON": 1.0, "DIPOL": [-100.0, -100.0, -100.0], "EFIELD": 0.0, "NGX": 54, "NGY": 54, "NGZ": 180, "NGXF": 108, "NGYF": 108, "NGZF": 360, "ADDGRID": false, "NSW": 150, "IBRION": 2, "MDALGO": 0, "ISIF": 3, "PSTRESS": 0.0, "EDIFFG": -0.01, "NFREE": 1, "POTIM": 0.5, "SMASS": -3.0, "SCALEE": 1.0, "TEBEG": 0.0001, "TEEND": 0.0001, "NBLOCK": 1, "KBLOCK": 150, "NPACO": 256, "APACO": 10.0, "ISYM": 0, "SYMPREC": 1e-05, "LORBIT": 11, "RWIGS": [-1.0, -1.0, -1.0, -1.0, -1.0], "NEDOS": 301, "EMIN": 10.0, "EMAX": -10.0, "EFERMI": 0.0, "NWRITE": 2, "LWAVE": false, "LDOWNSAMPLE": false, "LCHARG": false, "LPARD": false, "LVTOT": false, "LVHAR": false, "LELF": false, "LOPTICS": false, "STM": [0.0, 0.0, 0.0, 0.0, 0.0, 0.0, 0.0], "NPAR": 2, "NSIM": 4, "NBLK": -1, "LPLANE": true, "LSCALAPACK": true, "LSCAAWARE": false, "LSCALU": false, "LASYNC": false, "LORBITALREAL": false, "IDIOT": 3, "PHON_NSTRUCT": -1, "LMUSIC": false, "POMASS": [22.99, 91.224, 28.085, 30.974, 16.0], "DARWINR": [0.0, 0.0, 0.0, 0.0, 0.0], "DARWINV": [1.0, 1.0, 1.0, 1.0, 1.0], "LCORR": true, "GGA_COMPAT": true, "LBERRY": false, "ICORELEVEL": 0, "LDAU": false, "I_CONSTRAINED_M": 0, "GGA": "--", "VOSKOWN": 0, "LHFCALC": false, "PRECFOCK": "", "LSYMGRAD": false, "LHFONE": false, "LRHFCALC": false, "LTHOMAS": false, "LMODELHF": false, "LFOCKACE": false, "ENCUT4O": -1.0, "EXXOEP": 0, "FOURORBIT": 0, "AEXX": 0.0, "HFALPHA": 0.0, "MCALPHA": 0.0, "ALDAX": 1.0, "AGGAX": 1.0, "ALDAC": 1.0, "AGGAC": 1.0, "NKREDX": 1, "NKREDY": 1, "NKREDZ": 1, "SHIFTRED": false, "ODDONLY": false, "EVENONLY": false, "LMAXFOCK": 0, "NMAXFOCKAE": 0, "LFOCKAEDFT": false, "HFSCREEN": 0.0, "HFSCREENC": 0.0, "NBANDSGWLOW": 0, "LUSE_VDW": false, "Zab_VDW": -0.8491, "PARAM1": 0.1234, "PARAM2": 1.0, "PARAM3": 0.0, "MODEL_GW": 0, "MODEL_EPS0": 8.47100797, "MODEL_ALPHA": 1.0, "LEPSILON": false, "LRPA": false, "LNABLA": false, "LVEL": false, "CSHIFT": 0.1, "OMEGAMAX": -1.0, "DEG_THRESHOLD": 0.002, "RTIME": -0.1, "WPLASMAI": 0.0, "DFIELD": [0.0, 0.0, 0.0], "WPLASMA": [0.0, 0.0, 0.0, 0.0, 0.0, 0.0, 0.0, 0.0, 0.0], "NUCIND": false, "MAGPOS": [0.0, 0.0, 0.0], "LNICSALL": true, "ORBITALMAG": false, "LMAGBLOCH": false, "LCHIMAG": false, "LGAUGE": true, "MAGATOM": 0, "MAGDIPOL": [0.0, 0.0, 0.0], "AVECCONST": [0.0, 0.0, 0.0], "LFINITE_TEMPERATURE": false, "LADDER": false, "LRPAFORCE": false, "LFXC": false, "LHARTREE": true, "IBSE": 0, "KPOINT": [-1, 0, 0, 0], "LTCTC": false, "LTCTE": false, "LTETE": false, "LTRIPLET": false, "LFXCEPS": false, "LFXHEG": false, "NATURALO": 2, "LHOLEGF": false, "L2ORDER": false, "LDMP1": false, "LMP2LT": false, "LSMP2LT": false, "LGWLF": false, "ENCUTGW": -2.0, "ENCUTGWSOFT": -2.0, "ENCUTLF": -1.0, "LESF_SPLINES": false, "LMAXMP2": -1, "SCISSOR": 0.0, "NOMEGA": 0, "NOMEGAR": 0, "NBANDSGW": -1, "NBANDSO": -1, "NBANDSV": -1, "NELMGW": 1, "NELMHF": 1, "DIM": 3, "IESPILON": 4, "ANTIRES": 0, "OMEGAMIN": -30.0, "OMEGATL": -200.0, "OMEGAGRID": 0, "LSELFENERGY": false, "LSPECTRAL": false, "LSPECTRALGW": false, "LSINGLES": false, "LFERMIGW": false, "ODDONLYGW": false, "EVENONLYGW": false, "NKREDLFX": 1, "NKREDLFY": 1, "NKREDLFZ": 1, "MAXMEM": 2800, "TELESCOPE": 0, "NTAUPAR": -1, "NOMEGAPAR": -1, "DAMP_NEWTON": 0.80000001, "LAMBDA": 1.0, "OFIELD_KAPPA": 0.0, "OFIELD_K": [0.0, 0.0, 0.0], "OFIELD_Q6_NEAR": 0.0, "OFIELD_Q6_FAR": 0.0, "OFIELD_A": 0.0, "KPOINTS_OPT_MODE": 1, "LKPOINTS_OPT": false, "@module": "pymatgen.io.vasp.inputs", "@class": "Incar"}, "relaxed_structures": {"@module": "pymatgen.core.structure", "@class": "Structure", "charge": 0, "lattice": {"matrix": [[9.132688, 0.0, 0.0], [4.435089, 8.143568, 0.0], [0.0, 0.0, 30.37319471]], "a": 9.132688, "b": 9.27295606635473, "c": 30.37319471, "alpha": 90.0, "beta": 90.0, "gamma": 61.42673605530538, "volume": 2258.9354579503106}, "sites": [{"species": [{"element": "Na", "occu": 1}], "abc": [0.31122721, 0.61693687, 0.9963798], "xyz": [5.578510931871909, 5.0240673525521595, 30.263237670510858], "label": "Na", "properties": {}}, {"species": [{"element": "Na", "occu": 1}], "abc": [0.90116201, 0.99982776, 0.05907499], "xyz": [12.66435657505352, 8.14216535184768, 1.794296173761303], "label": "Na", "properties": {}}, {"species": [{"element": "Na", "occu": 1}], "abc": [0.41439058, 0.4616511, 0.1123787], "xyz": [5.8319635927269395, 3.7594871251248, 3.413300136356677], "label": "Na", "properties": {}}, {"species": [{"element": "Na", "occu": 1}], "abc": [0.34976908, 0.84427979, 0.26986983], "xyz": [6.93878788923835, 6.87544988089072, 8.196808892944599], "label": "Na", "properties": {}}, {"species": [{"element": "Na", "occu": 1}], "abc": [0.72960383, 0.95921701, 0.22605545], "xyz": [10.91745695265893, 7.81144894769168, 6.8660261981066695], "label": "Na", "properties": {}}, {"species": [{"element": "Na", "occu": 1}], "abc": [0.889775, 0.29966879, 0.15289434], "xyz": [9.455095219372309, 2.4403731688427204, 4.643889558876941], "label": "Na", "properties": {}}, {"species": [{"element": "Na", "occu": 1}], "abc": [0.20146649, 0.47624414, 0.34317546], "xyz": [3.9521157422535795, 3.8783265386915198, 10.423335066273816], "label": "Na", "properties": {}}, {"species": [{"element": "Na", "occu": 1}], "abc": [0.3119807, 0.00632944, 0.15437772], "xyz": [2.8772940248417602, 0.05154422504192, 4.688944548445861], "label": "Na", "properties": {}}, {"species": [{"element": "Na", "occu": 1}], "abc": [0.77762993, 0.77670338, 0.34574173], "xyz": [10.546600147052661, 6.32513679085984, 10.501280884662249], "label": "Na", "properties": {}}, {"species": [{"element": "Na", "occu": 1}], "abc": [0.70916902, 0.1761895, 0.49402836], "xyz": [7.2580355122912605, 1.4348111741360001, 15.005219570541975], "label": "Na", "properties": {}}, {"species": [{"element": "Na", "occu": 1}], "abc": [0.21456673, 0.85613334, 0.46637979], "xyz": [5.756598559037499, 6.97198007135712, 14.165444170478912], "label": "Na", "properties": {}}, {"species": [{"element": "Na", "occu": 1}], "abc": [0.66622252, 0.30752043, 0.38784967], "xyz": [7.44828289010203, 2.50431353309424, 11.780233545119245], "label": "Na", "properties": {}}, {"species": [{"element": "Na", "occu": 1}], "abc": [0.16329572, 0.2579253, 0.49594372], "xyz": [2.63525052334706, 2.1004322194704, 15.063395172761721], "label": "Na", "properties": {}}, {"species": [{"element": "Na", "occu": 1}], "abc": [0.57432371, 0.87514698, 0.55892662], "xyz": [9.126473998813701, 7.126818941624641, 16.97638705786218], "label": "Na", "properties": {}}, {"species": [{"element": "Na", "occu": 1}], "abc": [0.06097192, 0.41344622, 0.61223312], "xyz": [2.39050830453454, 3.3669274069129598, 18.595475761670794], "label": "Na", "properties": {}}, {"species": [{"element": "Na", "occu": 1}], "abc": [0.12497523, 0.03088415, 0.76997932], "xyz": [1.27833373725759, 0.2515071756472, 23.3867318090334], "label": "Na", "properties": {}}, {"species": [{"element": "Na", "occu": 1}], "abc": [0.74661466, 0.91609566, 0.72601512], "xyz": [10.88156453061982, 7.46028730171488, 22.051398602164017], "label": "Na", "properties": {}}, {"species": [{"element": "Na", "occu": 1}], "abc": [0.58568867, 0.57579926, 0.65259241], "xyz": [7.9026328524791, 4.689060428159681, 19.82131633519815], "label": "Na", "properties": {}}, {"species": [{"element": "Na", "occu": 1}], "abc": [0.2739552, 0.39830421, 0.84348405], "xyz": [4.26846198800229, 3.24361741882128, 25.619305285429377], "label": "Na", "properties": {}}, {"species": [{"element": "Na", "occu": 1}], "abc": [0.16356369, 0.86850774, 0.65430024], "xyz": [5.34568527298758, 7.07275183921632, 19.873188588319728], "label": "Na", "properties": {}}, {"species": [{"element": "Na", "occu": 1}], "abc": [0.69714523, 0.09861337, 0.84580133], "xyz": [6.80416894881817, 0.8030646843041601, 25.689688482066966], "label": "Na", "properties": {}}, {"species": [{"element": "Na", "occu": 1}], "abc": [0.76509377, 0.69909473, 0.99408759], "xyz": [10.08791003913473, 5.69312547219664, 30.19361592986465], "label": "Na", "properties": {}}, {"species": [{"element": "Na", "occu": 1}], "abc": [0.26067909, 0.01886386, 0.96649047], "xyz": [2.4643636950774597, 0.15361912665248, 29.355403230669413], "label": "Na", "properties": {}}, {"species": [{"element": "Na", "occu": 1}], "abc": [0.80892114, 0.56694652, 0.88783585], "xyz": [9.9020826626646, 4.61696753798336, 26.966411142568354], "label": "Na", "properties": {}}, {"species": [{"element": "Zr", "occu": 1}], "abc": [0.40797408, 0.18291811, 0.03787924], "xyz": [4.53715808228883, 1.48960606721648, 1.1505135319868205], "label": "Zr", "properties": {}}, {"species": [{"element": "Zr", "occu": 1}], "abc": [0.65706945, 0.62107063, 0.10239572], "xyz": [8.75531380051767, 5.05773090820784, 3.110085141030641], "label": "Zr", "properties": {}}, {"species": [{"element": "Zr", "occu": 1}], "abc": [0.33515357, 0.29095928, 0.21063229], "xyz": [4.35128328907208, 2.36944668191104, 6.3975755563831855], "label": "Zr", "properties": {}}, {"species": [{"element": "Zr", "occu": 1}], "abc": [0.75033496, 0.48974085, 0.29023299], "xyz": [9.024619341858129, 3.9882379143528, 8.815303116535484], "label": "Zr", "properties": {}}, {"species": [{"element": "Zr", "occu": 1}], "abc": [0.07581352, 0.83818259, 0.16042141], "xyz": [4.40979560924227, 6.82579691808112, 4.87251072158274], "label": "Zr", "properties": {}}, {"species": [{"element": "Zr", "occu": 1}], "abc": [0.01374615, 0.93783869, 0.33828052], "xyz": [4.284937356944609, 7.63735314504592, 10.274660100560048], "label": "Zr", "properties": {}}, {"species": [{"element": "Zr", "occu": 1}], "abc": [0.66633345, 0.59656287, 0.44972978], "xyz": [8.73122492535903, 4.85815029812016, 13.659730174825464], "label": "Zr", "properties": {}}, {"species": [{"element": "Zr", "occu": 1}], "abc": [0.42569435, 0.16594203, 0.40331619], "xyz": [4.62370135380347, 1.35136020536304, 12.250001168565355], "label": "Zr", "properties": {}}, {"species": [{"element": "Zr", "occu": 1}], "abc": [0.06732358, 0.69193762, 0.53762644], "xyz": [3.6836501783312197, 5.63484106022816, 16.329432543364135], "label": "Zr", "properties": {}}, {"species": [{"element": "Zr", "occu": 1}], "abc": [0.81796048, 0.25400389, 0.60219141], "xyz": [8.59670771866645, 2.0684979504795202, 18.29047694861944], "label": "Zr", "properties": {}}, {"species": [{"element": "Zr", "occu": 1}], "abc": [0.13976967, 0.58412827, 0.71052108], "xyz": [3.86713365283899, 4.75688828746736, 21.58079510839949], "label": "Zr", "properties": {}}, {"species": [{"element": "Zr", "occu": 1}], "abc": [0.72473122, 0.38539289, 0.79026645], "xyz": [8.32799588323657, 3.13847320643152, 24.002916758630477], "label": "Zr", "properties": {}}, {"species": [{"element": "Zr", "occu": 1}], "abc": [0.39936892, 0.03681226, 0.66031677], "xyz": [3.8105773926481, 0.29978314254368, 20.05592982548829], "label": "Zr", "properties": {}}, {"species": [{"element": "Zr", "occu": 1}], "abc": [0.46114113, 0.93713533, 0.8382922], "xyz": [8.36773665785181, 7.63162528505744, 25.461612214474265], "label": "Zr", "properties": {}}, {"species": [{"element": "Zr", "occu": 1}], "abc": [0.80836644, 0.2783949, 0.94990315], "xyz": [8.617264644836819, 2.2671277990032, 28.851593330592337], "label": "Zr", "properties": {}}, {"species": [{"element": "Zr", "occu": 1}], "abc": [0.04905643, 0.70907432, 0.90345169], "xyz": [3.59282478639832, 5.77439494197376, 27.440714091448562], "label": "Zr", "properties": {}}, {"species": [{"element": "Si", "occu": 1}], "abc": [0.25744965, 0.89443189, 0.0653471], "xyz": [6.318092365747409, 7.28386691758352, 1.9848001920338412], "label": "Si", "properties": {}}, {"species": [{"element": "Si", "occu": 1}], "abc": [0.10327399, 0.46591724, 0.11580132], "xyz": [3.00955355521948, 3.79422872631232, 3.5172560400350172], "label": "Si", "properties": {}}, {"species": [{"element": "Si", "occu": 1}], "abc": [0.63935893, 0.00526028, 0.12930577], "xyz": [5.86239543766876, 0.04283744787904, 3.9274293293364764], "label": "Si", "properties": {}}, {"species": [{"element": "Si", "occu": 1}], "abc": [0.47906369, 0.58750131, 0.19802946], "xyz": [6.98075981036531, 4.784356868074081, 6.014787346896156], "label": "Si", "properties": {}}, {"species": [{"element": "Si", "occu": 1}], "abc": [0.60744793, 0.19230684, 0.30471356], "xyz": [6.4005303716446, 1.56606382840512, 9.255124288657267], "label": "Si", "properties": {}}, {"species": [{"element": "Si", "occu": 1}], "abc": [0.44131733, 0.79357471, 0.36723541], "xyz": [7.54998795088223, 6.46252961396528, 11.15411261233668], "label": "Si", "properties": {}}, {"species": [{"element": "Si", "occu": 1}], "abc": [0.9891188, 0.30361955, 0.38282124], "xyz": [10.379893121724349, 2.4725464515544, 11.627504061643641], "label": "Si", "properties": {}}, {"species": [{"element": "Si", "occu": 1}], "abc": [0.83525628, 0.87447625, 0.43577497], "xyz": [11.506515002416888, 7.12135680626, 13.235878013554409], "label": "Si", "properties": {}}, {"species": [{"element": "Si", "occu": 1}], "abc": [0.21798845, 0.98055106, 0.56509499], "xyz": [6.3396517215979395, 7.98518423458208, 17.163740160915502], "label": "Si", "properties": {}}, {"species": [{"element": "Si", "occu": 1}], "abc": [0.37186133, 0.40913515, 0.61553447], "xyz": [5.210644309433389, 3.3318199152152, 18.69574830802665], "label": "Si", "properties": {}}, {"species": [{"element": "Si", "occu": 1}], "abc": [0.83560228, 0.86957669, 0.62913493], "xyz": [11.48794492780405, 7.081456906229921, 19.10883772775222], "label": "Si", "properties": {}}, {"species": [{"element": "Si", "occu": 1}], "abc": [0.99554546, 0.28774988, 0.69797759], "xyz": [10.3682024035358, 2.34331071477184, 21.19980924428655], "label": "Si", "properties": {}}, {"species": [{"element": "Si", "occu": 1}], "abc": [0.86779105, 0.68287628, 0.8047768], "xyz": [10.95388198663132, 5.5610494217670405, 24.443642444490727], "label": "Si", "properties": {}}, {"species": [{"element": "Si", "occu": 1}], "abc": [0.03342006, 0.08153994, 0.86743699], "xyz": [0.66685187187594, 0.6640260461059201, 26.346832595926323], "label": "Si", "properties": {}}, {"species": [{"element": "Si", "occu": 1}], "abc": [0.48581536, 0.57129574, 0.88293718], "xyz": [6.97054756070854, 4.65238570680032, 26.81762288483832], "label": "Si", "properties": {}}, {"species": [{"element": "Si", "occu": 1}], "abc": [0.63929503, 0.00060671, 0.93585986], "xyz": [5.84117286178783, 0.00494078414128, 28.42505374905334], "label": "Si", "properties": {}}, {"species": [{"element": "P", "occu": 1}], "abc": [0.66685839, 0.376089, 0.04111477], "xyz": [7.75819780297332, 3.0627063455520003, 1.2487869146668666], "label": "P", "properties": {}}, {"species": [{"element": "P", "occu": 1}], "abc": [0.05734393, 0.13816875, 0.23865438], "xyz": [1.13649492465259, 1.1251866111000002, 7.24869595213433], "label": "P", "properties": {}}, {"species": [{"element": "P", "occu": 1}], "abc": [0.01863656, 0.6474234, 0.25998427], "xyz": [3.0415822875558796, 5.2723364826912, 7.896552854247212], "label": "P", "properties": {}}, {"species": [{"element": "P", "occu": 1}], "abc": [0.37948268, 0.44298127, 0.45869572], "xyz": [5.43035827562687, 3.60744809497136, 13.93205441620364], "label": "P", "properties": {}}, {"species": [{"element": "P", "occu": 1}], "abc": [0.80887419, 0.49855967, 0.54081455], "xyz": [9.59835211678335, 4.06005457470256, 16.42626562915103], "label": "P", "properties": {}}, {"species": [{"element": "P", "occu": 1}], "abc": [0.41751306, 0.73690441, 0.73863358], "xyz": [7.081253155747769, 6.00103117233488, 22.434661544684364], "label": "P", "properties": {}}, {"species": [{"element": "P", "occu": 1}], "abc": [0.45673929, 0.22718759, 0.75991991], "xyz": [5.1788546142570295, 1.85011758792112, 23.081195390435678], "label": "P", "properties": {}}, {"species": [{"element": "P", "occu": 1}], "abc": [0.09484052, 0.43216532, 0.95894196], "xyz": [2.78284053583124, 3.5193676706617603, 29.12613086666903], "label": "P", "properties": {}}, {"species": [{"element": "O", "occu": 1}], "abc": [0.41115898, 0.72107573, 0.08409433], "xyz": [6.953021721028209, 5.87212924040464, 2.554213459096994], "label": "O", "properties": {}}, {"species": [{"element": "O", "occu": 1}], "abc": [0.60201902, 0.0991958, 0.08153147], "xyz": [5.937994081151959, 0.8078077426144, 2.4763712133025235], "label": "O", "properties": {}}, {"species": [{"element": "O", "occu": 1}], "abc": [0.81713296, 0.23179382, 0.01673871], "xyz": [8.49064659954646, 1.88762873514976, 0.5084080980242242], "label": "O", "properties": {}}, {"species": [{"element": "O", "occu": 1}], "abc": [0.6623884, 0.54156156, 0.0296488], "xyz": [8.45126030959804, 4.41024339004608, 0.900528775317848], "label": "O", "properties": {}}, {"species": [{"element": "O", "occu": 1}], "abc": [0.5070319, 0.37205257, 0.02555566], "xyz": [6.28065040937593, 3.02983540336976, 0.7762070371225587], "label": "O", "properties": {}}, {"species": [{"element": "O", "occu": 1}], "abc": [0.69249558, 0.35750201, 0.09129839], "xyz": [7.909899305547929, 2.9113419285716797, 2.773023776179517], "label": "O", "properties": {}}, {"species": [{"element": "O", "occu": 1}], "abc": [0.3272813, 0.02954608, 0.057819], "xyz": [3.11999749553552, 0.24061051161344, 1.75614774493749], "label": "O", "properties": {}}, {"species": [{"element": "O", "occu": 1}], "abc": [0.11818152, 0.63409049, 0.12693295], "xyz": [3.8915627067293697, 5.1637590234683195, 3.855359205464694], "label": "O", "properties": {}}, {"species": [{"element": "O", "occu": 1}], "abc": [0.62806142, 0.8370194, 0.1204106], "xyz": [9.448144527423558, 6.8163244012192, 3.6572545989479264], "label": "O", "properties": {}}, {"species": [{"element": "O", "occu": 1}], "abc": [0.24277815, 0.36907426, 0.07682127], "xyz": [3.8540942878763396, 3.00558133335968, 2.3333073915794817], "label": "O", "properties": {}}, {"species": [{"element": "O", "occu": 1}], "abc": [0.12215886, 0.95715663, 0.10740607], "xyz": [5.360713595805749, 7.794670103055839, 3.26226547714589], "label": "O", "properties": {}}, {"species": [{"element": "O", "occu": 1}], "abc": [0.62700357, 0.5467967, 0.16157064], "xyz": [8.15132000910246, 4.4528761086256, 4.907416508139314], "label": "O", "properties": {}}, {"species": [{"element": "O", "occu": 1}], "abc": [0.17479021, 0.87995188, 0.01978759], "xyz": [5.498969356901799, 7.1659479715078405, 0.6010123239116489], "label": "O", "properties": {}}, {"species": [{"element": "O", "occu": 1}], "abc": [0.82567514, 0.9626352, 0.14576283], "xyz": [11.810006229509119, 7.839285210393601, 4.42728281707063], "label": "O", "properties": {}}, {"species": [{"element": "O", "occu": 1}], "abc": [0.91382208, 0.50986928, 0.10179542], "xyz": [10.60696757931696, 4.15215515279104, 3.091852112246228], "label": "O", "properties": {}}, {"species": [{"element": "O", "occu": 1}], "abc": [0.31446614, 0.76551042, 0.18752044], "xyz": [6.2670279863116996, 6.23398615997856, 5.695594836224872], "label": "O", "properties": {}}, {"species": [{"element": "O", "occu": 1}], "abc": [0.77097167, 0.01351484, 0.313616], "xyz": [7.10098323716972, 0.11005901854912001, 9.52551983217136], "label": "O", "properties": {}}, {"species": [{"element": "O", "occu": 1}], "abc": [0.16019951, 0.34740522, 0.15976237], "xyz": [3.0038252123474596, 2.8291180326249603, 4.852493571341062], "label": "O", "properties": {}}, {"species": [{"element": "O", "occu": 1}], "abc": [0.94436824, 0.4215104, 0.33941336], "xyz": [10.49405663145472, 3.4325986051072, 10.309068070455325], "label": "O", "properties": {}}, {"species": [{"element": "O", "occu": 1}], "abc": [0.15981717, 0.46960145, 0.25389214], "xyz": [3.54228457593201, 3.8242313409735997, 7.711515403558579], "label": "O", "properties": {}}, {"species": [{"element": "O", "occu": 1}], "abc": [0.91829373, 0.31742384, 0.24415308], "xyz": [9.794293109568, 2.5849626258611202, 7.415709037886207], "label": "O", "properties": {}}, {"species": [{"element": "O", "occu": 1}], "abc": [0.00628444, 0.75695924, 0.22023138], "xyz": [3.4145754285470797, 6.16434904416832, 6.689130585992], "label": "O", "properties": {}}, {"species": [{"element": "O", "occu": 1}], "abc": [0.06429699, 0.03136875, 0.278304], "xyz": [0.72632754707787, 0.25545354870000003, 8.45298158057184], "label": "O", "properties": {}}, {"species": [{"element": "O", "occu": 1}], "abc": [0.23328527, 0.12608042, 0.23320428], "xyz": [2.6896994697631396, 1.02674447373856, 7.083159003645359], "label": "O", "properties": {}}, {"species": [{"element": "O", "occu": 1}], "abc": [0.84526988, 0.65635826, 0.2666617], "xyz": [10.630593388822579, 5.34509812267168, 8.099367735799607], "label": "O", "properties": {}}, {"species": [{"element": "O", "occu": 1}], "abc": [0.01918418, 0.06953815, 0.19595267], "xyz": [0.48361101462119005, 0.5662886531192001, 5.951708599854376], "label": "O", "properties": {}}, {"species": [{"element": "O", "occu": 1}], "abc": [0.05987179, 0.71282723, 0.30290855], "xyz": [3.70824258474499, 5.804957019756641, 9.200300368473771], "label": "O", "properties": {}}, {"species": [{"element": "O", "occu": 1}], "abc": [0.42076651, 0.44610379, 0.19211611], "xyz": [5.82123926856619, 3.63287654892272, 5.8351800159577785], "label": "O", "properties": {}}, {"species": [{"element": "O", "occu": 1}], "abc": [0.66966456, 0.33165408, 0.30906158], "xyz": [7.586752853150399, 2.7008475529574403, 9.387187546720241], "label": "O", "properties": {}}, {"species": [{"element": "O", "occu": 1}], "abc": [0.45881234, 0.9588306, 0.37505067], "xyz": [8.44268899869332, 7.8083021915807995, 11.391487026025954], "label": "O", "properties": {}}, {"species": [{"element": "O", "occu": 1}], "abc": [0.96994187, 0.14001125, 0.37234061], "xyz": [9.479138831597808, 1.14019113514, 11.309173845970173], "label": "O", "properties": {}}, {"species": [{"element": "O", "occu": 1}], "abc": [0.504737, 0.10347887, 0.16866178], "xyz": [5.06854354112543, 0.84268721440816, 5.122797084075184], "label": "O", "properties": {}}, {"species": [{"element": "O", "occu": 1}], "abc": [0.59791763, 0.66924599, 0.3361201], "xyz": [8.42876069303255, 5.450050228292319, 10.20904124324467], "label": "O", "properties": {}}, {"species": [{"element": "O", "occu": 1}], "abc": [0.47101794, 0.23548918, 0.34479826], "xyz": [5.34607536025974, 1.91772215059424, 10.472624686649205], "label": "O", "properties": {}}, {"species": [{"element": "O", "occu": 1}], "abc": [0.96281057, 0.83787878, 0.39376167], "xyz": [12.50911549942358, 6.82332282068704, 11.959799872244766], "label": "O", "properties": {}}, {"species": [{"element": "O", "occu": 1}], "abc": [0.51994086, 0.18969119, 0.25840383], "xyz": [5.589754962997589, 1.54476310476592, 7.8485498423997395], "label": "O", "properties": {}}, {"species": [{"element": "O", "occu": 1}], "abc": [0.55480996, 0.59554221, 0.24602526], "xyz": [7.7081889685791705, 4.8498384840052795, 7.472573125558374], "label": "O", "properties": {}}, {"species": [{"element": "O", "occu": 1}], "abc": [0.17009062, 0.25609897, 0.4049298], "xyz": [2.6892062889448898, 2.08555937692496, 12.299011659281359], "label": "O", "properties": {}}, {"species": [{"element": "O", "occu": 1}], "abc": [0.26772352, 0.82797884, 0.34453155], "xyz": [6.11719522393852, 6.74270198610112, 10.464523851888101], "label": "O", "properties": {}}, {"species": [{"element": "O", "occu": 1}], "abc": [0.67216258, 0.05965746, 0.42746874], "xyz": [6.40323727302898, 0.48582458221728003, 12.983591272458366], "label": "O", "properties": {}}, {"species": [{"element": "O", "occu": 1}], "abc": [0.45273156, 0.71951684, 0.41743942], "xyz": [7.325777307632039, 5.859434313685121, 12.678968783289468], "label": "O", "properties": {}}, {"species": [{"element": "O", "occu": 1}], "abc": [0.23589083, 0.59016002, 0.48197075], "xyz": [4.771729565392819, 4.80600825375136, 14.638991434274732], "label": "O", "properties": {}}, {"species": [{"element": "O", "occu": 1}], "abc": [0.39552076, 0.27449827, 0.47385955], "xyz": [4.82959195639891, 2.23539532762736, 14.39262837734298], "label": "O", "properties": {}}, {"species": [{"element": "O", "occu": 1}], "abc": [0.5479628, 0.44218674, 0.46686026], "xyz": [6.96551083452626, 3.60097778588832, 14.180037579341226], "label": "O", "properties": {}}, {"species": [{"element": "O", "occu": 1}], "abc": [0.35686109, 0.43884657, 0.40817118], "xyz": [5.205424589604649, 3.57377688436176, 12.397462725150458], "label": "O", "properties": {}}, {"species": [{"element": "O", "occu": 1}], "abc": [0.76381446, 0.74094381, 0.43351735], "xyz": [10.26183089441757, 6.0339263009140796, 13.16730688171322], "label": "O", "properties": {}}, {"species": [{"element": "O", "occu": 1}], "abc": [0.84134109, 0.39911909, 0.42070767], "xyz": [9.45383436229893, 3.2502534495131203, 12.778235976900424], "label": "O", "properties": {}}, {"species": [{"element": "O", "occu": 1}], "abc": [0.91808971, 0.8682533, 0.48440643], "xyz": [12.23540753748418, 7.0706797897744, 14.712970817165985], "label": "O", "properties": {}}, {"species": [{"element": "O", "occu": 1}], "abc": [0.06380867, 0.15357282, 0.5838823], "xyz": [1.2638537994859398, 1.25063070262176, 17.73437078562263], "label": "O", "properties": {}}, {"species": [{"element": "O", "occu": 1}], "abc": [0.87405704, 0.77466556, 0.58151013], "xyz": [11.41820094435836, 6.30854166511808, 17.66232040432741], "label": "O", "properties": {}}, {"species": [{"element": "O", "occu": 1}], "abc": [0.65849914, 0.64324886, 0.51655472], "xyz": [8.86673313713686, 5.23834083233248, 15.689417088929531], "label": "O", "properties": {}}, {"species": [{"element": "O", "occu": 1}], "abc": [0.81297219, 0.3333639, 0.52923805], "xyz": [8.90311992983382, 2.7147715883952, 16.074650340590715], "label": "O", "properties": {}}, {"species": [{"element": "O", "occu": 1}], "abc": [0.9686405, 0.50268425, 0.5252818], "xyz": [11.07574085831225, 4.093643372404, 15.954486389019278], "label": "O", "properties": {}}, {"species": [{"element": "O", "occu": 1}], "abc": [0.78344597, 0.51671354, 0.59103108], "xyz": [9.44663814627242, 4.2078918495107205, 17.951502072501587], "label": "O", "properties": {}}, {"species": [{"element": "O", "occu": 1}], "abc": [0.1485245, 0.84521695, 0.55738346], "xyz": [5.1050403164145495, 6.8830817070776, 16.9295163587135], "label": "O", "properties": {}}, {"species": [{"element": "O", "occu": 1}], "abc": [0.35708684, 0.24088413, 0.62683038], "xyz": [4.32950525386349, 1.96165629277584, 19.038841181883292], "label": "O", "properties": {}}, {"species": [{"element": "O", "occu": 1}], "abc": [0.84572811, 0.0383482, 0.62004629], "xyz": [7.8938486414494795, 0.3122911743776, 18.832786695383128], "label": "O", "properties": {}}, {"species": [{"element": "O", "occu": 1}], "abc": [0.23281747, 0.50555686, 0.57645729], "xyz": [4.3684389831198995, 4.11703666727648, 17.508849511168936], "label": "O", "properties": {}}, {"species": [{"element": "O", "occu": 1}], "abc": [0.35301188, 0.91797902, 0.60722905], "xyz": [7.29526601416622, 7.47562457194336, 18.44348616921833], "label": "O", "properties": {}}, {"species": [{"element": "O", "occu": 1}], "abc": [0.84777766, 0.32772041, 0.66149905], "xyz": [9.19595804761657, 2.6688134438228803, 20.091839446130024], "label": "O", "properties": {}}, {"species": [{"element": "O", "occu": 1}], "abc": [0.30091027, 0.99527265, 0.51960965], "xyz": [7.162242393921609, 8.1050705038152, 15.782205072644953], "label": "O", "properties": {}}, {"species": [{"element": "O", "occu": 1}], "abc": [0.64930604, 0.91151863, 0.64544668], "xyz": [9.97257572904359, 7.42301394667184, 19.604277686563066], "label": "O", "properties": {}}, {"species": [{"element": "O", "occu": 1}], "abc": [0.56112047, 0.36566456, 0.60150134], "xyz": [6.746293050669199, 2.9778142095500804, 18.269517318145912], "label": "O", "properties": {}}, {"species": [{"element": "O", "occu": 1}], "abc": [0.16054839, 0.11002106, 0.68743647], "xyz": [1.95419154774666, 0.8959639835420801, 20.879641754065073], "label": "O", "properties": {}}, {"species": [{"element": "O", "occu": 1}], "abc": [0.70408702, 0.86148986, 0.81370614], "xyz": [10.2509912802073, 7.015601256220481, 24.71485502694252], "label": "O", "properties": {}}, {"species": [{"element": "O", "occu": 1}], "abc": [0.31438257, 0.5276492, 0.65952519], "xyz": [5.211329087226959, 4.2969471403456, 20.031887012019745], "label": "O", "properties": {}}, {"species": [{"element": "O", "occu": 1}], "abc": [0.5307808, 0.45323758, 0.83953857], "xyz": [6.857604448235021, 3.69097105288544, 25.499468453164965], "label": "O", "properties": {}}, {"species": [{"element": "O", "occu": 1}], "abc": [0.31548258, 0.40471722, 0.75352995], "xyz": [4.67616086310762, 3.29584220184096, 22.887111891166565], "label": "O", "properties": {}}, {"species": [{"element": "O", "occu": 1}], "abc": [0.55649626, 0.55775964, 0.74427353], "xyz": [7.556020359754839, 4.54215355599552, 22.605964844189025], "label": "O", "properties": {}}, {"species": [{"element": "O", "occu": 1}], "abc": [0.46985164, 0.11694807, 0.72022595], "xyz": [4.80968353323655, 0.95237456051376, 21.875563014544724], "label": "O", "properties": {}}, {"species": [{"element": "O", "occu": 1}], "abc": [0.41026273, 0.84409046, 0.77823576], "xyz": [7.49041782526918, 6.8739080591612804, 23.63750626876483], "label": "O", "properties": {}}, {"species": [{"element": "O", "occu": 1}], "abc": [0.24166145, 0.74876457, 0.73316664], "xyz": [5.52785613247433, 6.09761519178576, 22.268613111596473], "label": "O", "properties": {}}, {"species": [{"element": "O", "occu": 1}], "abc": [0.62993037, 0.2187036, 0.76667107], "xyz": [6.72292746155496, 1.7810276384448, 23.28624968763404], "label": "O", "properties": {}}, {"species": [{"element": "O", "occu": 1}], "abc": [0.4555835, 0.80526849, 0.69586678], "xyz": [7.73213938549361, 6.55775870657232, 21.135697201160735], "label": "O", "properties": {}}, {"species": [{"element": "O", "occu": 1}], "abc": [0.41523905, 0.16223869, 0.80288767], "xyz": [4.5117917184598095, 1.32120180424592, 24.38626353116823], "label": "O", "properties": {}}, {"species": [{"element": "O", "occu": 1}], "abc": [0.05298716, 0.42981957, 0.69204487], "xyz": [2.39020324717781, 3.50026489602576, 21.01961358456664], "label": "O", "properties": {}}, {"species": [{"element": "O", "occu": 1}], "abc": [0.80567427, 0.5433313, 0.80903644], "xyz": [9.76769440952346, 4.4246553880784, 24.573021319605232], "label": "O", "properties": {}}, {"species": [{"element": "O", "occu": 1}], "abc": [0.01534063, 0.91654988, 0.87522606], "xyz": [4.20508147825276, 7.46398627317184, 26.583411535646142], "label": "O", "properties": {}}, {"species": [{"element": "O", "occu": 1}], "abc": [0.5048159, 0.73499435, 0.87234255], "xyz": [7.87009146888635, 5.9854764688408, 26.495830124967913], "label": "O", "properties": {}}, {"species": [{"element": "O", "occu": 1}], "abc": [0.97008054, 0.77229062, 0.66862585], "xyz": [12.2846205402567, 6.28920117973216, 20.308303130189252], "label": "O", "properties": {}}, {"species": [{"element": "O", "occu": 1}], "abc": [0.87709869, 0.20617566, 0.8362722], "xyz": [8.924676082712459, 1.6790055071548802, 25.400258361160063], "label": "O", "properties": {}}, {"species": [{"element": "O", "occu": 1}], "abc": [0.0040425, 0.63945376, 0.84492571], "xyz": [2.8729532282246395, 5.20743517741568, 25.663093105314996], "label": "O", "properties": {}}, {"species": [{"element": "O", "occu": 1}], "abc": [0.51206358, 0.03733015, 0.89374935], "xyz": [4.8420794499363895, 0.3040006149752, 27.14602302948594], "label": "O", "properties": {}}, {"species": [{"element": "O", "occu": 1}], "abc": [0.95556205, 0.68560877, 0.75851132], "xyz": [11.767585981420929, 5.58330163989136, 23.038412012099116], "label": "O", "properties": {}}, {"species": [{"element": "O", "occu": 1}], "abc": [0.91999044, 0.27968138, 0.746008], "xyz": [9.64239746344554, 2.27760433636384, 22.65864623921768], "label": "O", "properties": {}}, {"species": [{"element": "O", "occu": 1}], "abc": [0.30462813, 0.6188879, 0.90496157], "xyz": [5.52689658483654, 5.0399556980272004, 27.486573970677295], "label": "O", "properties": {}}, {"species": [{"element": "O", "occu": 1}], "abc": [0.20714774, 0.04679383, 0.84473418], "xyz": [2.09935048002599, 0.38106873658544, 25.657275727332188], "label": "O", "properties": {}}, {"species": [{"element": "O", "occu": 1}], "abc": [0.80241231, 0.81548824, 0.92755509], "xyz": [10.94494419744264, 6.64098393564032, 28.172811352821576], "label": "O", "properties": {}}, {"species": [{"element": "O", "occu": 1}], "abc": [0.02202832, 0.1553893, 0.91766145], "xyz": [0.89034314887186, 1.2654233310224001, 27.872309898710927], "label": "O", "properties": {}}, {"species": [{"element": "O", "occu": 1}], "abc": [0.23852358, 0.2852572, 0.98228563], "xyz": [3.4435025066738403, 2.3230114056896, 29.835152700825017], "label": "O", "properties": {}}, {"species": [{"element": "O", "occu": 1}], "abc": [0.07877092, 0.6007514, 0.97403296], "xyz": [3.38377616170756, 4.8922598769952, 29.58449274803764], "label": "O", "properties": {}}, {"species": [{"element": "O", "occu": 1}], "abc": [0.92645313, 0.43279506, 0.96707988], "xyz": [10.38049199277378, 3.52449600117408, 29.373305495363436], "label": "O", "properties": {}}, {"species": [{"element": "O", "occu": 1}], "abc": [0.11740418, 0.43616446, 0.90839405], "xyz": [3.0066439445727795, 3.5519349391932797, 27.590829354055472], "label": "O", "properties": {}}, {"species": [{"element": "O", "occu": 1}], "abc": [0.71059062, 0.13425749, 0.93376665], "xyz": [7.085046345253169, 1.09333499932432, 28.361476274154423], "label": "O", "properties": {}}, {"species": [{"element": "O", "occu": 1}], "abc": [0.63337443, 0.47607059, 0.92089129], "xyz": [7.89582649330035, 3.87691322246512, 27.970410457913076], "label": "O", "properties": {}}, {"species": [{"element": "O", "occu": 1}], "abc": [0.55617865, 0.00668182, 0.98443985], "xyz": [5.10904054909318, 0.05441385553376, 29.900583244333195], "label": "O", "properties": {}}]}, "formula": "(Na3Zr2Si2PO12)8.0", "bandgap": 4.2957}