{"miller": "100_0.05", "final_energy": -1207.6608255, "sigma": 0.05788204263680848, "incar_parameters": {"SYSTEM": "unknown system", "LCOMPAT": false, "PREC": "normal", "ENMAX": 520.0, "ENAUG": 605.392, "EDIFF": 1e-05, "IALGO": 38, "IWAVPR": 11, "NBANDS": 624, "NBANDSLOW": -1, "NBANDSHIGH": -1, "NELECT": 1040.0, "TURBO": 0, "IRESTART": 0, "NREBOOT": 0, "NMIN": 0, "EREF": 0.0, "ISMEAR": 0, "SIGMA": 0.05, "KSPACING": 0.5, "KGAMMA": true, "KBLOWUP": true, "LREAL": true, "ROPT": [-0.0005, -0.0005, -0.0005, -0.0005, -0.0005], "LMAXPAW": -100, "LMAXMIX": 4, "NLSPLINE": false, "ISTART": 0, "ICHARG": 2, "INIWAV": 1, "ISPIN": 1, "LNONCOLLINEAR": false, "MAGMOM": [0.6, 0.6, 0.6, 0.6, 0.6, 0.6, 0.6, 0.6, 0.6, 0.6, 0.6, 0.6, 0.6, 0.6, 0.6, 0.6, 0.6, 0.6, 0.6, 0.6, 0.6, 0.6, 0.6, 0.6, 0.6, 0.6, 0.6, 0.6, 0.6, 0.6, 0.6, 0.6, 0.6, 0.6, 0.6, 0.6, 0.6, 0.6, 0.6, 0.6, 0.6, 0.6, 0.6, 0.6, 0.6, 0.6, 0.6, 0.6, 0.6, 0.6, 0.6, 0.6, 0.6, 0.6, 0.6, 0.6, 0.6, 0.6, 0.6, 0.6, 0.6, 0.6, 0.6, 0.6, 0.6, 0.6, 0.6, 0.6, 0.6, 0.6, 0.6, 0.6, 0.6, 0.6, 0.6, 0.6, 0.6, 0.6, 0.6, 0.6, 0.6, 0.6, 0.6, 0.6, 0.6, 0.6, 0.6, 0.6, 0.6, 0.6, 0.6, 0.6, 0.6, 0.6, 0.6, 0.6, 0.6, 0.6, 0.6, 0.6, 0.6, 0.6, 0.6, 0.6, 0.6, 0.6, 0.6, 0.6, 0.6, 0.6, 0.6, 0.6, 0.6, 0.6, 0.6, 0.6, 0.6, 0.6, 0.6, 0.6, 0.6, 0.6, 0.6, 0.6, 0.6, 0.6, 0.6, 0.6, 0.6, 0.6, 0.6, 0.6, 0.6, 0.6, 0.6, 0.6, 0.6, 0.6, 0.6, 0.6, 0.6, 0.6, 0.6, 0.6, 0.6, 0.6, 0.6, 0.6, 0.6, 0.6, 0.6, 0.6, 0.6, 0.6, 0.6, 0.6, 0.6, 0.6, 0.6, 0.6], "NUPDOWN": -1.0, "LSORBIT": false, "SAXIS": [0.0, 0.0, 1.0], "LSPIRAL": false, "QSPIRAL": [0.0, 0.0, 0.0], "LZEROZ": false, "LASPH": false, "LMETAGGA": false, "NELM": 100, "NELMDL": -5, "NELMIN": 6, "ENINI": 520.0, "LDIAG": true, "LSUBROT": false, "WEIMIN": 0.001, "EBREAK": 0.0, "DEPER": 0.3, "NRMM": 4, "TIME": 0.4, "AMIX": 0.4, "BMIX": 1.0, "AMIN": 0.1, "AMIX_MAG": 1.6, "BMIX_MAG": 1.0, "IMIX": 4, "MIXFIRST": false, "MAXMIX": -45, "WC": 100.0, "INIMIX": 1, "MIXPRE": 1, "MREMOVE": 5, "LDIPOL": false, "LMONO": false, "IDIPOL": 0, "EPSILON": 1.0, "DIPOL": [-100.0, -100.0, -100.0], "EFIELD": 0.0, "NGX": 54, "NGY": 54, "NGZ": 180, "NGXF": 108, "NGYF": 108, "NGZF": 360, "ADDGRID": false, "NSW": 150, "IBRION": 2, "MDALGO": 0, "ISIF": 3, "PSTRESS": 0.0, "EDIFFG": -0.01, "NFREE": 1, "POTIM": 0.5, "SMASS": -3.0, "SCALEE": 1.0, "TEBEG": 0.0001, "TEEND": 0.0001, "NBLOCK": 1, "KBLOCK": 150, "NPACO": 256, "APACO": 10.0, "ISYM": 0, "SYMPREC": 1e-05, "LORBIT": 11, "RWIGS": [-1.0, -1.0, -1.0, -1.0, -1.0], "NEDOS": 301, "EMIN": 10.0, "EMAX": -10.0, "EFERMI": 0.0, "NWRITE": 2, "LWAVE": false, "LDOWNSAMPLE": false, "LCHARG": false, "LPARD": false, "LVTOT": false, "LVHAR": false, "LELF": false, "LOPTICS": false, "STM": [0.0, 0.0, 0.0, 0.0, 0.0, 0.0, 0.0], "NPAR": 2, "NSIM": 4, "NBLK": -1, "LPLANE": true, "LSCALAPACK": true, "LSCAAWARE": false, "LSCALU": false, "LASYNC": false, "LORBITALREAL": false, "IDIOT": 3, "PHON_NSTRUCT": -1, "LMUSIC": false, "POMASS": [22.99, 91.224, 28.085, 30.974, 16.0], "DARWINR": [0.0, 0.0, 0.0, 0.0, 0.0], "DARWINV": [1.0, 1.0, 1.0, 1.0, 1.0], "LCORR": true, "GGA_COMPAT": true, "LBERRY": false, "ICORELEVEL": 0, "LDAU": false, "I_CONSTRAINED_M": 0, "GGA": "--", "VOSKOWN": 0, "LHFCALC": false, "PRECFOCK": "", "LSYMGRAD": false, "LHFONE": false, "LRHFCALC": false, "LTHOMAS": false, "LMODELHF": false, "LFOCKACE": false, "ENCUT4O": -1.0, "EXXOEP": 0, "FOURORBIT": 0, "AEXX": 0.0, "HFALPHA": 0.0, "MCALPHA": 0.0, "ALDAX": 1.0, "AGGAX": 1.0, "ALDAC": 1.0, "AGGAC": 1.0, "NKREDX": 1, "NKREDY": 1, "NKREDZ": 1, "SHIFTRED": false, "ODDONLY": false, "EVENONLY": false, "LMAXFOCK": 0, "NMAXFOCKAE": 0, "LFOCKAEDFT": false, "HFSCREEN": 0.0, "HFSCREENC": 0.0, "NBANDSGWLOW": 0, "LUSE_VDW": false, "Zab_VDW": -0.8491, "PARAM1": 0.1234, "PARAM2": 1.0, "PARAM3": 0.0, "MODEL_GW": 0, "MODEL_EPS0": 8.47380696, "MODEL_ALPHA": 1.0, "LEPSILON": false, "LRPA": false, "LNABLA": false, "LVEL": false, "CSHIFT": 0.1, "OMEGAMAX": -1.0, "DEG_THRESHOLD": 0.002, "RTIME": -0.1, "WPLASMAI": 0.0, "DFIELD": [0.0, 0.0, 0.0], "WPLASMA": [0.0, 0.0, 0.0, 0.0, 0.0, 0.0, 0.0, 0.0, 0.0], "NUCIND": false, "MAGPOS": [0.0, 0.0, 0.0], "LNICSALL": true, "ORBITALMAG": false, "LMAGBLOCH": false, "LCHIMAG": false, "LGAUGE": true, "MAGATOM": 0, "MAGDIPOL": [0.0, 0.0, 0.0], "AVECCONST": [0.0, 0.0, 0.0], "LFINITE_TEMPERATURE": false, "LADDER": false, "LRPAFORCE": false, "LFXC": false, "LHARTREE": true, "IBSE": 0, "KPOINT": [-1, 0, 0, 0], "LTCTC": false, "LTCTE": false, "LTETE": false, "LTRIPLET": false, "LFXCEPS": false, "LFXHEG": false, "NATURALO": 2, "LHOLEGF": false, "L2ORDER": false, "LDMP1": false, "LMP2LT": false, "LSMP2LT": false, "LGWLF": false, "ENCUTGW": -2.0, "ENCUTGWSOFT": -2.0, "ENCUTLF": -1.0, "LESF_SPLINES": false, "LMAXMP2": -1, "SCISSOR": 0.0, "NOMEGA": 0, "NOMEGAR": 0, "NBANDSGW": -1, "NBANDSO": -1, "NBANDSV": -1, "NELMGW": 1, "NELMHF": 1, "DIM": 3, "IESPILON": 4, "ANTIRES": 0, "OMEGAMIN": -30.0, "OMEGATL": -200.0, "OMEGAGRID": 0, "LSELFENERGY": false, "LSPECTRAL": false, "LSPECTRALGW": false, "LSINGLES": false, "LFERMIGW": false, "ODDONLYGW": false, "EVENONLYGW": false, "NKREDLFX": 1, "NKREDLFY": 1, "NKREDLFZ": 1, "MAXMEM": 2800, "TELESCOPE": 0, "NTAUPAR": -1, "NOMEGAPAR": -1, "DAMP_NEWTON": 0.80000001, "LAMBDA": 1.0, "OFIELD_KAPPA": 0.0, "OFIELD_K": [0.0, 0.0, 0.0], "OFIELD_Q6_NEAR": 0.0, "OFIELD_Q6_FAR": 0.0, "OFIELD_A": 0.0, "KPOINTS_OPT_MODE": 1, "LKPOINTS_OPT": false, "@module": "pymatgen.io.vasp.inputs", "@class": "Incar"}, "relaxed_structures": {"@module": "pymatgen.core.structure", "@class": "Structure", "charge": 0, "lattice": {"matrix": [[9.132688, 0.0, 0.0], [4.435089, 8.143568, 0.0], [0.0, 0.0, 30.38323063]], "a": 9.132688, "b": 9.27295606635473, "c": 30.38323063, "alpha": 90.0, "beta": 90.0, "gamma": 61.42673605530538, "volume": 2259.681856073972}, "sites": [{"species": [{"element": "Na", "occu": 1}], "abc": [0.32262919, 0.6292165, 0.99709332], "xyz": [5.73710290973122, 5.1240673544719995, 30.29491630119239], "label": "Na", "properties": {}}, {"species": [{"element": "Na", "occu": 1}], "abc": [0.91306434, 0.0132031, 0.05944607], "xyz": [8.39728866472182, 0.1075203426608, 1.806163654857124], "label": "Na", "properties": {}}, {"species": [{"element": "Na", "occu": 1}], "abc": [0.42830595, 0.4722909, 0.11245886], "xyz": [6.0062367852837, 3.8461330599312, 3.4168634797668815], "label": "Na", "properties": {}}, {"species": [{"element": "Na", "occu": 1}], "abc": [0.36177225, 0.85678578, 0.26990406], "xyz": [7.10387427454242, 6.977293260863041, 8.200557302953358], "label": "Na", "properties": {}}, {"species": [{"element": "Na", "occu": 1}], "abc": [0.74104048, 0.97195295, 0.22623485], "xyz": [11.07838933627279, 7.9151649411256, 6.873745624093455], "label": "Na", "properties": {}}, {"species": [{"element": "Na", "occu": 1}], "abc": [0.90294145, 0.31266371, 0.15284727], "xyz": [9.63297392603779, 2.54619818351728, 4.64399385557588], "label": "Na", "properties": {}}, {"species": [{"element": "Na", "occu": 1}], "abc": [0.21277489, 0.48881606, 0.34338259], "xyz": [4.11114941533366, 3.98070682410208, 10.43307242629673], "label": "Na", "properties": {}}, {"species": [{"element": "Na", "occu": 1}], "abc": [0.3244834, 0.01869116, 0.1545874], "xyz": [3.04630261149244, 0.15221273245887998, 4.696864626692062], "label": "Na", "properties": {}}, {"species": [{"element": "Na", "occu": 1}], "abc": [0.7894966, 0.78975251, 0.34584685], "xyz": [10.71284879468419, 6.43140326835568, 10.507944606209016], "label": "Na", "properties": {}}, {"species": [{"element": "Na", "occu": 1}], "abc": [0.72213442, 0.1890653, 0.49393929], "xyz": [7.43354978423266, 1.5396661269904, 15.007471365288453], "label": "Na", "properties": {}}, {"species": [{"element": "Na", "occu": 1}], "abc": [0.22676255, 0.86895879, 0.46646829], "xyz": [5.92486119021671, 7.07642499556272, 14.172813636651723], "label": "Na", "properties": {}}, {"species": [{"element": "Na", "occu": 1}], "abc": [0.67760916, 0.32191256, 0.38780177], "xyz": [7.6161038980399205, 2.62151682241408, 11.782670616632215], "label": "Na", "properties": {}}, {"species": [{"element": "Na", "occu": 1}], "abc": [0.17561173, 0.27107037, 0.4960895], "xyz": [2.80602835544317, 2.20747999088016, 15.072801691621386], "label": "Na", "properties": {}}, {"species": [{"element": "Na", "occu": 1}], "abc": [0.58665221, 0.8880024, 0.55905119], "xyz": [9.29608127465408, 7.2315079285632, 16.98578123974595], "label": "Na", "properties": {}}, {"species": [{"element": "Na", "occu": 1}], "abc": [0.07305833, 0.4257805, 0.6122441], "xyz": [2.5555933456555397, 3.467372454824, 18.601953692156783], "label": "Na", "properties": {}}, {"species": [{"element": "Na", "occu": 1}], "abc": [0.13793096, 0.0429708, 0.76978087], "xyz": [1.45025974562168, 0.3499356318144, 23.388429707772048], "label": "Na", "properties": {}}, {"species": [{"element": "Na", "occu": 1}], "abc": [0.75860845, 0.92816122, 0.726048], "xyz": [11.04461190506218, 7.558544010032961, 22.05968383245024], "label": "Na", "properties": {}}, {"species": [{"element": "Na", "occu": 1}], "abc": [0.5979067, 0.5867844, 0.65306694], "xyz": [8.0629363820212, 4.7785186627392, 19.84228345484837], "label": "Na", "properties": {}}, {"species": [{"element": "Na", "occu": 1}], "abc": [0.28701364, 0.41074624, 0.84325372], "xyz": [4.44290215667968, 3.34493993618432, 25.620772254365445], "label": "Na", "properties": {}}, {"species": [{"element": "Na", "occu": 1}], "abc": [0.17651933, 0.88032793, 0.65422776], "xyz": [5.51642868559481, 7.16901036025424, 19.87755291662829], "label": "Na", "properties": {}}, {"species": [{"element": "Na", "occu": 1}], "abc": [0.71039593, 0.11009059, 0.84561469], "xyz": [6.97608594987235, 0.89653020582512, 25.692506150385956], "label": "Na", "properties": {}}, {"species": [{"element": "Na", "occu": 1}], "abc": [0.77883634, 0.7107623, 0.99390899], "xyz": [10.265163354626619, 5.7881411218864, 30.198166068400365], "label": "Na", "properties": {}}, {"species": [{"element": "Na", "occu": 1}], "abc": [0.27260394, 0.03093441, 0.96657722], "xyz": [2.62680359310321, 0.25191647137488, 29.367738596964248], "label": "Na", "properties": {}}, {"species": [{"element": "Na", "occu": 1}], "abc": [0.82205628, 0.57864262, 0.88769001], "xyz": [10.07391504257382, 4.71221552366816, 26.970890301777008], "label": "Na", "properties": {}}, {"species": [{"element": "Zr", "occu": 1}], "abc": [0.42061771, 0.19526462, 0.03771644], "xyz": [4.707386280955659, 1.59015071096416, 1.145947295062557], "label": "Zr", "properties": {}}, {"species": [{"element": "Zr", "occu": 1}], "abc": [0.66953089, 0.63373185, 0.10230583], "xyz": [8.92527388161697, 5.1608384142408, 3.1083816276835727], "label": "Zr", "properties": {}}, {"species": [{"element": "Zr", "occu": 1}], "abc": [0.34717369, 0.3038123, 0.21065506], "xyz": [4.518063582373419, 2.4741161242864, 6.400381271356488], "label": "Zr", "properties": {}}, {"species": [{"element": "Zr", "occu": 1}], "abc": [0.76231237, 0.50245246, 0.29031676], "xyz": [9.190382412119499, 4.09175577477728, 8.820761074834358], "label": "Zr", "properties": {}}, {"species": [{"element": "Zr", "occu": 1}], "abc": [0.08801584, 0.85089269, 0.16051055], "xyz": [4.57760601537733, 6.9293024817179205, 4.876829059198147], "label": "Zr", "properties": {}}, {"species": [{"element": "Zr", "occu": 1}], "abc": [0.02592145, 0.95087627, 0.33834484], "xyz": [4.45395340079563, 7.74352556433136, 10.280009306190449], "label": "Zr", "properties": {}}, {"species": [{"element": "Zr", "occu": 1}], "abc": [0.67901915, 0.60977479, 0.44983432], "xyz": [8.90567550658151, 4.96574246705072, 13.667419889849223], "label": "Zr", "properties": {}}, {"species": [{"element": "Zr", "occu": 1}], "abc": [0.43840079, 0.17860242, 0.40348768], "xyz": [4.7958952623389, 1.4544609522345602, 12.259259237803638], "label": "Zr", "properties": {}}, {"species": [{"element": "Zr", "occu": 1}], "abc": [0.07953615, 0.7049048, 0.53779303], "xyz": [3.8526943671983997, 5.7404401723264, 16.33988966169651], "label": "Zr", "properties": {}}, {"species": [{"element": "Zr", "occu": 1}], "abc": [0.83033479, 0.26664461, 0.60222615], "xyz": [8.76578114933581, 2.17143851336848, 18.297576006866976], "label": "Zr", "properties": {}}, {"species": [{"element": "Zr", "occu": 1}], "abc": [0.15234779, 0.59647133, 0.71051616], "xyz": [4.03674826805789, 4.85740483590544, 21.58777635562198], "label": "Zr", "properties": {}}, {"species": [{"element": "Zr", "occu": 1}], "abc": [0.73727895, 0.39727887, 0.79008313], "xyz": [8.49530576558703, 3.23526749280816, 24.005277955662272], "label": "Zr", "properties": {}}, {"species": [{"element": "Zr", "occu": 1}], "abc": [0.41170653, 0.04933913, 0.66032587], "xyz": [3.97881071878521, 0.40179656021584004, 20.062833199165397], "label": "Zr", "properties": {}}, {"species": [{"element": "Zr", "occu": 1}], "abc": [0.47415623, 0.94904361, 0.83821626], "xyz": [8.53941378707753, 7.72860117300048, 25.467717945396046], "label": "Zr", "properties": {}}, {"species": [{"element": "Zr", "occu": 1}], "abc": [0.82124381, 0.29038864, 0.94967551], "xyz": [8.78806295165024, 2.3647996362675197, 28.854210043992868], "label": "Zr", "properties": {}}, {"species": [{"element": "Zr", "occu": 1}], "abc": [0.06205491, 0.7209207, 0.90320721], "xyz": [3.7640755983403795, 5.8708667430576, 27.442352968108843], "label": "Zr", "properties": {}}, {"species": [{"element": "Si", "occu": 1}], "abc": [0.26962145, 0.90710198, 0.06539725], "xyz": [6.485446594333819, 7.38704665706464, 1.9869797293177676], "label": "Si", "properties": {}}, {"species": [{"element": "Si", "occu": 1}], "abc": [0.11598891, 0.47877165, 0.11556547], "xyz": [3.1826854049169295, 3.8989094882472, 3.511252327874346], "label": "Si", "properties": {}}, {"species": [{"element": "Si", "occu": 1}], "abc": [0.65137484, 0.01795503, 0.12944134], "xyz": [6.02843534081759, 0.14621800774704, 3.932846086276244], "label": "Si", "properties": {}}, {"species": [{"element": "Si", "occu": 1}], "abc": [0.49149205, 0.5999823, 0.19802015], "xyz": [7.1496184460551, 4.8859966588464, 6.016491886837195], "label": "Si", "properties": {}}, {"species": [{"element": "Si", "occu": 1}], "abc": [0.61914466, 0.20501726, 0.30483324], "xyz": [6.56372480128222, 1.66957199798368, 9.261818634610142], "label": "Si", "properties": {}}, {"species": [{"element": "Si", "occu": 1}], "abc": [0.45384348, 0.80663423, 0.36735659], "xyz": [7.722305504170709, 6.56888070313264, 11.16147999742035], "label": "Si", "properties": {}}, {"species": [{"element": "Si", "occu": 1}], "abc": [0.00149735, 0.31615935, 0.38295642], "xyz": [1.41586968580895, 2.5746651655608, 11.635453230099145], "label": "Si", "properties": {}}, {"species": [{"element": "Si", "occu": 1}], "abc": [0.84832174, 0.88737648, 0.43583495], "xyz": [11.68305144034384, 7.226410706480641, 13.24207380246452], "label": "Si", "properties": {}}, {"species": [{"element": "Si", "occu": 1}], "abc": [0.23023391, 0.99348447, 0.56509227], "xyz": [6.508846511617909, 8.09050833838896, 17.169328766640227], "label": "Si", "properties": {}}, {"species": [{"element": "Si", "occu": 1}], "abc": [0.38406644, 0.42182694, 0.61572105], "xyz": [5.37839898928838, 3.43517637012192, 18.707594665895762], "label": "Si", "properties": {}}, {"species": [{"element": "Si", "occu": 1}], "abc": [0.84810362, 0.88259637, 0.62924443], "xyz": [11.659859205157488, 7.187483555648161, 19.11847863933289], "label": "Si", "properties": {}}, {"species": [{"element": "Si", "occu": 1}], "abc": [0.00831497, 0.30001542, 0.69790669], "xyz": [1.4065331158117398, 2.44319597381856, 21.204659920489917], "label": "Si", "properties": {}}, {"species": [{"element": "Si", "occu": 1}], "abc": [0.88041064, 0.69465375, 0.80464082], "xyz": [11.12136689243407, 5.656960049579999, 24.447587608372316], "label": "Si", "properties": {}}, {"species": [{"element": "Si", "occu": 1}], "abc": [0.04625387, 0.09315713, 0.86710063], "xyz": [0.83558232603713, 0.7586314228398401, 26.3453184207083], "label": "Si", "properties": {}}, {"species": [{"element": "Si", "occu": 1}], "abc": [0.49867985, 0.58353649, 0.88277208], "xyz": [7.14232374983441, 4.75206908679632, 26.82146770036481], "label": "Si", "properties": {}}, {"species": [{"element": "Si", "occu": 1}], "abc": [0.65243237, 0.01258421, 0.93573583], "xyz": [6.01427336765525, 0.10248036986128001, 28.430677531644474], "label": "Si", "properties": {}}, {"species": [{"element": "P", "occu": 1}], "abc": [0.68040853, 0.38821552, 0.04099869], "xyz": [7.93572919940992, 3.1614594857753597, 1.2456726537978746], "label": "P", "properties": {}}, {"species": [{"element": "P", "occu": 1}], "abc": [0.06919012, 0.15108163, 0.23867589], "xyz": [1.30195225395763, 1.23034352745584, 7.251744611690511], "label": "P", "properties": {}}, {"species": [{"element": "P", "occu": 1}], "abc": [0.03057309, 0.66062762, 0.26011183], "xyz": [3.2091567827241, 5.3798659461481595, 7.903037720481352], "label": "P", "properties": {}}, {"species": [{"element": "P", "occu": 1}], "abc": [0.39204625, 0.45578256, 0.45879648], "xyz": [5.601872301067839, 3.71169627057408, 13.939719264072183], "label": "P", "properties": {}}, {"species": [{"element": "P", "occu": 1}], "abc": [0.82040948, 0.51175244, 0.54102497], "xyz": [9.7622114304494, 4.16749079430592, 16.438086440098832], "label": "P", "properties": {}}, {"species": [{"element": "P", "occu": 1}], "abc": [0.43025741, 0.74898308, 0.73853554], "xyz": [7.2512133045122, 6.0993946428294405, 22.43909564027159], "label": "P", "properties": {}}, {"species": [{"element": "P", "occu": 1}], "abc": [0.46895756, 0.23939283, 0.75991557], "xyz": [5.344571587733149, 1.94951178981744, 23.08869002263791], "label": "P", "properties": {}}, {"species": [{"element": "P", "occu": 1}], "abc": [0.10834613, 0.44389983, 0.95861543], "xyz": [2.95822665443231, 3.61492845079344, 29.125833695166623], "label": "P", "properties": {}}, {"species": [{"element": "O", "occu": 1}], "abc": [0.42375494, 0.73354931, 0.08393715], "xyz": [7.12337813121731, 5.97370868733808, 2.5502817868749044], "label": "O", "properties": {}}, {"species": [{"element": "O", "occu": 1}], "abc": [0.61323259, 0.11256349, 0.08178833], "xyz": [6.09969101220253, 0.91666843513232, 2.484993693232548], "label": "O", "properties": {}}, {"species": [{"element": "O", "occu": 1}], "abc": [0.83042715, 0.24387325, 0.01654774], "xyz": [8.665631636148449, 1.985998394756, 0.5027738008252761], "label": "O", "properties": {}}, {"species": [{"element": "O", "occu": 1}], "abc": [0.67598146, 0.55369957, 0.02961265], "xyz": [8.629234640176211, 4.509090099865761, 0.8997279745154695], "label": "O", "properties": {}}, {"species": [{"element": "O", "occu": 1}], "abc": [0.52050564, 0.38414036, 0.02548247], "xyz": [6.45731229745236, 3.1282731432044804, 0.7742397630320561], "label": "O", "properties": {}}, {"species": [{"element": "O", "occu": 1}], "abc": [0.7062092, 0.36933112, 0.09117514], "xyz": [8.08760467399928, 3.0076730902361604, 2.770195306342538], "label": "O", "properties": {}}, {"species": [{"element": "O", "occu": 1}], "abc": [0.33954426, 0.04212838, 0.05763205], "xyz": [3.2877949034967, 0.34307532725984, 1.7510478668296914], "label": "O", "properties": {}}, {"species": [{"element": "O", "occu": 1}], "abc": [0.13103089, 0.64671332, 0.12702363], "xyz": [4.0648953684178, 5.2665538979257605, 3.859388245749787], "label": "O", "properties": {}}, {"species": [{"element": "O", "occu": 1}], "abc": [0.63989227, 0.84975751, 0.12056844], "xyz": [9.61268664079015, 6.92005806619568, 3.6632587192193173], "label": "O", "properties": {}}, {"species": [{"element": "O", "occu": 1}], "abc": [0.25493323, 0.38257734, 0.07641019], "xyz": [4.0249902027055, 3.11554458354912, 2.32158842525212], "label": "O", "properties": {}}, {"species": [{"element": "O", "occu": 1}], "abc": [0.135021, 0.96979655, 0.10759929], "xyz": [5.53423867759095, 7.8976041510904, 3.2692140436942525], "label": "O", "properties": {}}, {"species": [{"element": "O", "occu": 1}], "abc": [0.18612596, 0.89265727, 0.01999433], "xyz": [5.65884476032751, 7.26941517893936, 0.607492339682328], "label": "O", "properties": {}}, {"species": [{"element": "O", "occu": 1}], "abc": [0.92636016, 0.52298866, 0.10164043], "xyz": [10.77965957000082, 4.25899371593888, 3.088164626022371], "label": "O", "properties": {}}, {"species": [{"element": "O", "occu": 1}], "abc": [0.32667493, 0.7779501, 0.18762599], "xyz": [6.433698144170739, 6.3352895399568, 5.700683726352073], "label": "O", "properties": {}}, {"species": [{"element": "O", "occu": 1}], "abc": [0.78299784, 0.02647023, 0.31372577], "xyz": [7.26827280329439, 0.21556211798064, 9.532002424484336], "label": "O", "properties": {}}, {"species": [{"element": "O", "occu": 1}], "abc": [0.17311172, 0.35989985, 0.15947888], "xyz": [3.17716319374001, 2.9308689016648004, 4.845483591654094], "label": "O", "properties": {}}, {"species": [{"element": "O", "occu": 1}], "abc": [0.95654948, 0.43396446, 0.33953126], "xyz": [10.66053896033918, 3.53401908959328, 10.316056578674495], "label": "O", "properties": {}}, {"species": [{"element": "O", "occu": 1}], "abc": [0.1717301, 0.48292117, 0.25379862], "xyz": [3.7101557924429303, 3.93270138653456, 7.711222005035729], "label": "O", "properties": {}}, {"species": [{"element": "O", "occu": 1}], "abc": [0.93017056, 0.33024477, 0.24424842], "xyz": [9.95962245799981, 2.6893707411393604, 7.421056075873104], "label": "O", "properties": {}}, {"species": [{"element": "O", "occu": 1}], "abc": [0.01760776, 0.77044686, 0.2203631], "xyz": [3.5778065723294197, 6.274186394796479, 6.695342889641753], "label": "O", "properties": {}}, {"species": [{"element": "O", "occu": 1}], "abc": [0.07680544, 0.04406695, 0.27833128], "xyz": [0.89688096543127, 0.3588622038776, 8.456603471783106], "label": "O", "properties": {}}, {"species": [{"element": "O", "occu": 1}], "abc": [0.24494026, 0.13931106, 0.23309432], "xyz": [2.8548199230032196, 1.13448909026208, 7.082158483103021], "label": "O", "properties": {}}, {"species": [{"element": "O", "occu": 1}], "abc": [0.85725504, 0.66939803, 0.2668833], "xyz": [10.797882656222189, 5.45128837637104, 8.10877685519548], "label": "O", "properties": {}}, {"species": [{"element": "O", "occu": 1}], "abc": [0.03086854, 0.08235025, 0.19603547], "xyz": [0.6471434327577699, 0.670624860692, 5.956190896670446], "label": "O", "properties": {}}, {"species": [{"element": "O", "occu": 1}], "abc": [0.07217797, 0.72574506, 0.30300632], "xyz": [3.8779228128936998, 5.910154246774081, 9.206310902907582], "label": "O", "properties": {}}, {"species": [{"element": "O", "occu": 1}], "abc": [0.43369411, 0.45822331, 0.19216575], "xyz": [5.9930541557922705, 3.73157268417008, 5.838616301436923], "label": "O", "properties": {}}, {"species": [{"element": "O", "occu": 1}], "abc": [0.68125013, 0.34455278, 0.30896285], "xyz": [7.749767131746859, 2.80588899351904, 9.387289527652095], "label": "O", "properties": {}}, {"species": [{"element": "O", "occu": 1}], "abc": [0.47270929, 0.9711536, 0.37511636], "xyz": [8.62425910894192, 7.9086553800448, 11.397246878966106], "label": "O", "properties": {}}, {"species": [{"element": "O", "occu": 1}], "abc": [0.98159446, 0.1529211, 0.37249852], "xyz": [9.64281463418638, 1.2453233764848, 11.317708442493668], "label": "O", "properties": {}}, {"species": [{"element": "O", "occu": 1}], "abc": [0.51725935, 0.11594372, 0.16890375], "xyz": [5.2381889758238795, 0.94419556799296, 5.131841590521862], "label": "O", "properties": {}}, {"species": [{"element": "O", "occu": 1}], "abc": [0.6100366, 0.68157699, 0.33624241], "xyz": [8.59412854738291, 5.550468565300321, 10.216130690617018], "label": "O", "properties": {}}, {"species": [{"element": "O", "occu": 1}], "abc": [0.48312743, 0.24861083, 0.34500396], "xyz": [5.5148632398457105, 2.02457919964144, 10.482334884943295], "label": "O", "properties": {}}, {"species": [{"element": "O", "occu": 1}], "abc": [0.63916085, 0.5594573, 0.16146355], "xyz": [8.318499542064501, 4.5559785656464005, 4.905784277988537], "label": "O", "properties": {}}, {"species": [{"element": "O", "occu": 1}], "abc": [0.53122798, 0.20224631, 0.25861715], "xyz": [5.74851978298183, 1.6470065782340801, 7.857624513323305], "label": "O", "properties": {}}, {"species": [{"element": "O", "occu": 1}], "abc": [0.56723839, 0.60817942, 0.24600247], "xyz": [7.877741093160699, 4.9527504629705605, 7.474349781559656], "label": "O", "properties": {}}, {"species": [{"element": "O", "occu": 1}], "abc": [0.83807508, 0.97522816, 0.14558705], "xyz": [11.97910191112128, 7.94183683647488, 4.423404916891341], "label": "O", "properties": {}}, {"species": [{"element": "O", "occu": 1}], "abc": [0.27996867, 0.84191119, 0.34468737], "xyz": [6.290817570630869, 6.85616102572592, 10.472715857958143], "label": "O", "properties": {}}, {"species": [{"element": "O", "occu": 1}], "abc": [0.68511982, 0.07242626, 0.4275348], "xyz": [6.578202467713301, 0.58980817329568, 12.989888430750923], "label": "O", "properties": {}}, {"species": [{"element": "O", "occu": 1}], "abc": [0.46532159, 0.73271382, 0.41756419], "xyz": [7.4992879043639, 5.96690481770976, 12.686949087599139], "label": "O", "properties": {}}, {"species": [{"element": "O", "occu": 1}], "abc": [0.2487469, 0.6025826, 0.4822582], "xyz": [4.9442352895186, 4.9071723787168, 14.652562113808667], "label": "O", "properties": {}}, {"species": [{"element": "O", "occu": 1}], "abc": [0.40843403, 0.28705138, 0.47390642], "xyz": [5.0031989824454595, 2.3376224325238404, 14.398808055897645], "label": "O", "properties": {}}, {"species": [{"element": "O", "occu": 1}], "abc": [0.56059021, 0.45502138, 0.46677647], "xyz": [7.1377558009873, 3.70549754948384, 14.182177140667276], "label": "O", "properties": {}}, {"species": [{"element": "O", "occu": 1}], "abc": [0.36842594, 0.45199141, 0.4083198], "xyz": [5.36934129171221, 3.6808227827508797, 12.406074654195475], "label": "O", "properties": {}}, {"species": [{"element": "O", "occu": 1}], "abc": [0.77700969, 0.75369712, 0.43374187], "xyz": [10.438900877990399, 6.13778374812416, 13.178479270097478], "label": "O", "properties": {}}, {"species": [{"element": "O", "occu": 1}], "abc": [0.85420718, 0.41196454, 0.42092785], "xyz": [9.6283070620439, 3.35486124507872, 12.789147945140046], "label": "O", "properties": {}}, {"species": [{"element": "O", "occu": 1}], "abc": [0.97556502, 0.85042998, 0.39375662], "xyz": [12.68126360094198, 6.925534371368641, 11.96359819754927], "label": "O", "properties": {}}, {"species": [{"element": "O", "occu": 1}], "abc": [0.93141854, 0.88139039, 0.48439552], "xyz": [12.415399746630229, 7.17766257551152, 14.717500800298778], "label": "O", "properties": {}}, {"species": [{"element": "O", "occu": 1}], "abc": [0.18287489, 0.26799023, 0.40491015], "xyz": [2.8586998345847903, 2.18239666134064, 12.302478471877896], "label": "O", "properties": {}}, {"species": [{"element": "O", "occu": 1}], "abc": [0.07609152, 0.1665921, 0.5838284], "xyz": [1.4337709018026599, 1.3566540946128, 17.73859292554389], "label": "O", "properties": {}}, {"species": [{"element": "O", "occu": 1}], "abc": [0.88559815, 0.78872982, 0.58146686], "xyz": [11.58597854598118, 6.423074922797761, 17.666841711081922], "label": "O", "properties": {}}, {"species": [{"element": "O", "occu": 1}], "abc": [0.67019653, 0.6561885, 0.51664844], "xyz": [9.03095020544914, 5.343715670568, 15.697448707149716], "label": "O", "properties": {}}, {"species": [{"element": "O", "occu": 1}], "abc": [0.82457854, 0.34646085, 0.52953315], "xyz": [9.06720324208117, 2.8214274913128, 16.088927822680386], "label": "O", "properties": {}}, {"species": [{"element": "O", "occu": 1}], "abc": [0.98032007, 0.51565303, 0.52546302], "xyz": [11.239924420617829, 4.19925551421104, 15.965264124196302], "label": "O", "properties": {}}, {"species": [{"element": "O", "occu": 1}], "abc": [0.79480165, 0.53031214, 0.59119088], "xyz": [9.61065703001566, 4.318632973315521, 17.962288853392653], "label": "O", "properties": {}}, {"species": [{"element": "O", "occu": 1}], "abc": [0.16086262, 0.85797121, 0.55758199], "xyz": [5.27428679511025, 6.98694689067728, 16.94114219730435], "label": "O", "properties": {}}, {"species": [{"element": "O", "occu": 1}], "abc": [0.36917858, 0.25372947, 0.62697028], "xyz": [4.49690556879587, 2.06626319254896, 19.049382615395675], "label": "O", "properties": {}}, {"species": [{"element": "O", "occu": 1}], "abc": [0.85927495, 0.05087681, 0.62035064], "xyz": [8.07313320495169, 0.41431876185808003, 18.848256566588102], "label": "O", "properties": {}}, {"species": [{"element": "O", "occu": 1}], "abc": [0.24452983, 0.51861576, 0.57674345], "xyz": [4.53332169648568, 4.22338270743168, 17.523329255691873], "label": "O", "properties": {}}, {"species": [{"element": "O", "occu": 1}], "abc": [0.36532599, 0.93116636, 0.60717183], "xyz": [7.466213965367159, 7.58301657197248, 18.447841742929153], "label": "O", "properties": {}}, {"species": [{"element": "O", "occu": 1}], "abc": [0.31279179, 0.00814022, 0.51955406], "xyz": [2.8927324272111, 0.06629043510496001, 15.78573082973286], "label": "O", "properties": {}}, {"species": [{"element": "O", "occu": 1}], "abc": [0.57348151, 0.37786138, 0.60167869], "xyz": [6.913276554561699, 3.0771398426038403, 18.280942403426273], "label": "O", "properties": {}}, {"species": [{"element": "O", "occu": 1}], "abc": [0.17303147, 0.12214406, 0.68738013], "xyz": [2.1219622066127, 0.99468845840608, 20.884829020269382], "label": "O", "properties": {}}, {"species": [{"element": "O", "occu": 1}], "abc": [0.71693467, 0.87339632, 0.81358585], "xyz": [10.42113106896544, 7.11256232286976, 24.71936651785459], "label": "O", "properties": {}}, {"species": [{"element": "O", "occu": 1}], "abc": [0.32732649, 0.54047203, 0.65965296], "xyz": [5.3864122623657895, 4.40137072840304, 20.042388019442164], "label": "O", "properties": {}}, {"species": [{"element": "O", "occu": 1}], "abc": [0.54368167, 0.46561023, 0.83938161], "xyz": [7.030297872789429, 3.79172856950064, 25.503125043210716], "label": "O", "properties": {}}, {"species": [{"element": "O", "occu": 1}], "abc": [0.32795984, 0.41706613, 0.75356401], "xyz": [4.84488030068549, 3.39640639015184, 22.895709110297624], "label": "O", "properties": {}}, {"species": [{"element": "O", "occu": 1}], "abc": [0.56935444, 0.56970208, 0.74397041], "xyz": [7.72641589021984, 4.6394076282214405, 22.604224548925657], "label": "O", "properties": {}}, {"species": [{"element": "O", "occu": 1}], "abc": [0.48179965, 0.12922589, 0.72027987], "xyz": [4.97325420521341, 1.0523598225755202, 21.884429408356418], "label": "O", "properties": {}}, {"species": [{"element": "O", "occu": 1}], "abc": [0.42360629, 0.85557995, 0.7781779], "xyz": [7.66323730627307, 6.9674735022616, 23.643558606869075], "label": "O", "properties": {}}, {"species": [{"element": "O", "occu": 1}], "abc": [0.25432357, 0.7609965, 0.73319086], "xyz": [5.697745022044659, 6.197226745512, 22.276706995188043], "label": "O", "properties": {}}, {"species": [{"element": "O", "occu": 1}], "abc": [0.64231787, 0.23056524, 0.76659598], "xyz": [6.88866606324092, 1.87762371037632, 23.291662460370866], "label": "O", "properties": {}}, {"species": [{"element": "O", "occu": 1}], "abc": [0.46790695, 0.81774646, 0.69578435], "xyz": [7.900026516916539, 6.659373903769279, 21.140176374794642], "label": "O", "properties": {}}, {"species": [{"element": "O", "occu": 1}], "abc": [0.42764019, 0.17444545, 0.80289566], "xyz": [4.679185527925769, 1.4206083843656, 24.394564009606064], "label": "O", "properties": {}}, {"species": [{"element": "O", "occu": 1}], "abc": [0.06630593, 0.44164641, 0.69205416], "xyz": [2.5642925061203297, 3.59657757179088, 21.02684115173092], "label": "O", "properties": {}}, {"species": [{"element": "O", "occu": 1}], "abc": [0.81812998, 0.55526476, 0.80882974], "xyz": [9.93437447994988, 4.52183633106368, 24.574860530822935], "label": "O", "properties": {}}, {"species": [{"element": "O", "occu": 1}], "abc": [0.02792387, 0.92831483, 0.87485176], "xyz": [4.37217888353243, 7.559794943513441, 26.580822791141408], "label": "O", "properties": {}}, {"species": [{"element": "O", "occu": 1}], "abc": [0.51816228, 0.74698841, 0.87230741], "xyz": [8.04517451692713, 6.0831509120468805, 26.503517218287968], "label": "O", "properties": {}}, {"species": [{"element": "O", "occu": 1}], "abc": [0.98268733, 0.78437004, 0.66861278], "xyz": [12.4533277227766, 6.38757075790272, 20.314616296905452], "label": "O", "properties": {}}, {"species": [{"element": "O", "occu": 1}], "abc": [0.89020443, 0.21769493, 0.83588138], "xyz": [9.095455704806609, 1.7728134657102401, 25.39677674786267], "label": "O", "properties": {}}, {"species": [{"element": "O", "occu": 1}], "abc": [0.01668453, 0.65091215, 0.84476831], "xyz": [3.03922792334799, 5.3007473555512, 25.666790391645335], "label": "O", "properties": {}}, {"species": [{"element": "O", "occu": 1}], "abc": [0.86056546, 0.34065315, 0.66140607], "xyz": [9.37010288813683, 2.7741320914392, 20.09565316489192], "label": "O", "properties": {}}, {"species": [{"element": "O", "occu": 1}], "abc": [0.96811968, 0.69744105, 0.75839922], "xyz": [11.934748113103291, 5.6796586166664005, 23.04261841087211], "label": "O", "properties": {}}, {"species": [{"element": "O", "occu": 1}], "abc": [0.9324434, 0.29161273, 0.74583165], "xyz": [9.80904306094217, 2.37476809642064, 22.660775033103437], "label": "O", "properties": {}}, {"species": [{"element": "O", "occu": 1}], "abc": [0.66177984, 0.92501788, 0.64561106], "xyz": [10.14636542780124, 7.532946006995839, 19.615749733258767], "label": "O", "properties": {}}, {"species": [{"element": "O", "occu": 1}], "abc": [0.22024165, 0.05812052, 0.84452885], "xyz": [2.26916795298148, 0.47330840681536, 25.659514823238677], "label": "O", "properties": {}}, {"species": [{"element": "O", "occu": 1}], "abc": [0.81563432, 0.82759393, 0.92745145], "xyz": [11.11938650206193, 6.7395674453422405, 28.178971303477912], "label": "O", "properties": {}}, {"species": [{"element": "O", "occu": 1}], "abc": [0.03466402, 0.16714992, 0.91730969], "xyz": [1.05790045102864, 1.3611967397145601, 27.870831870403805], "label": "O", "properties": {}}, {"species": [{"element": "O", "occu": 1}], "abc": [0.25164059, 0.29711785, 0.98210994], "xyz": [3.61589910484457, 2.4195994154888, 29.83967281103546], "label": "O", "properties": {}}, {"species": [{"element": "O", "occu": 1}], "abc": [0.09203073, 0.61258369, 0.97368832], "xyz": [3.55735112860065, 4.98861693520592, 29.583796788297242], "label": "O", "properties": {}}, {"species": [{"element": "O", "occu": 1}], "abc": [0.93978955, 0.44479049, 0.96666459], "xyz": [10.55549015531401, 3.62218160106832, 29.370393179824394], "label": "O", "properties": {}}, {"species": [{"element": "O", "occu": 1}], "abc": [0.13171337, 0.44744986, 0.90813773], "xyz": [3.1873770657761, 3.64383836150048, 27.59215809439467], "label": "O", "properties": {}}, {"species": [{"element": "O", "occu": 1}], "abc": [0.72343605, 0.14644318, 0.9335447], "xyz": [7.25640426934542, 1.19256999446624, 28.36410392351416], "label": "O", "properties": {}}, {"species": [{"element": "O", "occu": 1}], "abc": [0.64611344, 0.48804452, 0.9207182], "xyz": [8.065273342289, 3.9744237356473597, 27.974393415838467], "label": "O", "properties": {}}, {"species": [{"element": "O", "occu": 1}], "abc": [0.52512313, 0.04901971, 0.89368329], "xyz": [5.0131924844776306, 0.39919534172528004, 27.152985510247174], "label": "O", "properties": {}}, {"species": [{"element": "O", "occu": 1}], "abc": [0.5695981, 0.01891262, 0.98439085], "xyz": [5.28584088561598, 0.15401620702816002, 29.908974225611736], "label": "O", "properties": {}}, {"species": [{"element": "O", "occu": 1}], "abc": [0.31730069, 0.63122991, 0.90462793], "xyz": [5.697369034266709, 5.140463695718879, 27.485519031529495], "label": "O", "properties": {}}]}, "formula": "(Na3Zr2Si2PO12)8.0", "bandgap": 4.2902}