{"miller": "100_0.27", "final_energy": -1207.65894689, "sigma": 0.057894672344115675, "incar_parameters": {"SYSTEM": "unknown system", "LCOMPAT": false, "PREC": "normal", "ENMAX": 520.0, "ENAUG": 605.392, "EDIFF": 1e-05, "IALGO": 38, "IWAVPR": 11, "NBANDS": 624, "NBANDSLOW": -1, "NBANDSHIGH": -1, "NELECT": 1040.0, "TURBO": 0, "IRESTART": 0, "NREBOOT": 0, "NMIN": 0, "EREF": 0.0, "ISMEAR": 0, "SIGMA": 0.05, "KSPACING": 0.5, "KGAMMA": true, "KBLOWUP": true, "LREAL": true, "ROPT": [-0.0005, -0.0005, -0.0005, -0.0005, -0.0005], "LMAXPAW": -100, "LMAXMIX": 4, "NLSPLINE": false, "ISTART": 0, "ICHARG": 2, "INIWAV": 1, "ISPIN": 1, "LNONCOLLINEAR": false, "MAGMOM": [0.6, 0.6, 0.6, 0.6, 0.6, 0.6, 0.6, 0.6, 0.6, 0.6, 0.6, 0.6, 0.6, 0.6, 0.6, 0.6, 0.6, 0.6, 0.6, 0.6, 0.6, 0.6, 0.6, 0.6, 0.6, 0.6, 0.6, 0.6, 0.6, 0.6, 0.6, 0.6, 0.6, 0.6, 0.6, 0.6, 0.6, 0.6, 0.6, 0.6, 0.6, 0.6, 0.6, 0.6, 0.6, 0.6, 0.6, 0.6, 0.6, 0.6, 0.6, 0.6, 0.6, 0.6, 0.6, 0.6, 0.6, 0.6, 0.6, 0.6, 0.6, 0.6, 0.6, 0.6, 0.6, 0.6, 0.6, 0.6, 0.6, 0.6, 0.6, 0.6, 0.6, 0.6, 0.6, 0.6, 0.6, 0.6, 0.6, 0.6, 0.6, 0.6, 0.6, 0.6, 0.6, 0.6, 0.6, 0.6, 0.6, 0.6, 0.6, 0.6, 0.6, 0.6, 0.6, 0.6, 0.6, 0.6, 0.6, 0.6, 0.6, 0.6, 0.6, 0.6, 0.6, 0.6, 0.6, 0.6, 0.6, 0.6, 0.6, 0.6, 0.6, 0.6, 0.6, 0.6, 0.6, 0.6, 0.6, 0.6, 0.6, 0.6, 0.6, 0.6, 0.6, 0.6, 0.6, 0.6, 0.6, 0.6, 0.6, 0.6, 0.6, 0.6, 0.6, 0.6, 0.6, 0.6, 0.6, 0.6, 0.6, 0.6, 0.6, 0.6, 0.6, 0.6, 0.6, 0.6, 0.6, 0.6, 0.6, 0.6, 0.6, 0.6, 0.6, 0.6, 0.6, 0.6, 0.6, 0.6], "NUPDOWN": -1.0, "LSORBIT": false, "SAXIS": [0.0, 0.0, 1.0], "LSPIRAL": false, "QSPIRAL": [0.0, 0.0, 0.0], "LZEROZ": false, "LASPH": false, "LMETAGGA": false, "NELM": 100, "NELMDL": -5, "NELMIN": 6, "ENINI": 520.0, "LDIAG": true, "LSUBROT": false, "WEIMIN": 0.001, "EBREAK": 0.0, "DEPER": 0.3, "NRMM": 4, "TIME": 0.4, "AMIX": 0.4, "BMIX": 1.0, "AMIN": 0.1, "AMIX_MAG": 1.6, "BMIX_MAG": 1.0, "IMIX": 4, "MIXFIRST": false, "MAXMIX": -45, "WC": 100.0, "INIMIX": 1, "MIXPRE": 1, "MREMOVE": 5, "LDIPOL": false, "LMONO": false, "IDIPOL": 0, "EPSILON": 1.0, "DIPOL": [-100.0, -100.0, -100.0], "EFIELD": 0.0, "NGX": 54, "NGY": 54, "NGZ": 180, "NGXF": 108, "NGYF": 108, "NGZF": 360, "ADDGRID": false, "NSW": 150, "IBRION": 2, "MDALGO": 0, "ISIF": 3, "PSTRESS": 0.0, "EDIFFG": -0.01, "NFREE": 1, "POTIM": 0.5, "SMASS": -3.0, "SCALEE": 1.0, "TEBEG": 0.0001, "TEEND": 0.0001, "NBLOCK": 1, "KBLOCK": 150, "NPACO": 256, "APACO": 10.0, "ISYM": 0, "SYMPREC": 1e-05, "LORBIT": 11, "RWIGS": [-1.0, -1.0, -1.0, -1.0, -1.0], "NEDOS": 301, "EMIN": 10.0, "EMAX": -10.0, "EFERMI": 0.0, "NWRITE": 2, "LWAVE": false, "LDOWNSAMPLE": false, "LCHARG": false, "LPARD": false, "LVTOT": false, "LVHAR": false, "LELF": false, "LOPTICS": false, "STM": [0.0, 0.0, 0.0, 0.0, 0.0, 0.0, 0.0], "NPAR": 2, "NSIM": 4, "NBLK": -1, "LPLANE": true, "LSCALAPACK": true, "LSCAAWARE": false, "LSCALU": false, "LASYNC": false, "LORBITALREAL": false, "IDIOT": 3, "PHON_NSTRUCT": -1, "LMUSIC": false, "POMASS": [22.99, 91.224, 28.085, 30.974, 16.0], "DARWINR": [0.0, 0.0, 0.0, 0.0, 0.0], "DARWINV": [1.0, 1.0, 1.0, 1.0, 1.0], "LCORR": true, "GGA_COMPAT": true, "LBERRY": false, "ICORELEVEL": 0, "LDAU": false, "I_CONSTRAINED_M": 0, "GGA": "--", "VOSKOWN": 0, "LHFCALC": false, "PRECFOCK": "", "LSYMGRAD": false, "LHFONE": false, "LRHFCALC": false, "LTHOMAS": false, "LMODELHF": false, "LFOCKACE": false, "ENCUT4O": -1.0, "EXXOEP": 0, "FOURORBIT": 0, "AEXX": 0.0, "HFALPHA": 0.0, "MCALPHA": 0.0, "ALDAX": 1.0, "AGGAX": 1.0, "ALDAC": 1.0, "AGGAC": 1.0, "NKREDX": 1, "NKREDY": 1, "NKREDZ": 1, "SHIFTRED": false, "ODDONLY": false, "EVENONLY": false, "LMAXFOCK": 0, "NMAXFOCKAE": 0, "LFOCKAEDFT": false, "HFSCREEN": 0.0, "HFSCREENC": 0.0, "NBANDSGWLOW": 0, "LUSE_VDW": false, "Zab_VDW": -0.8491, "PARAM1": 0.1234, "PARAM2": 1.0, "PARAM3": 0.0, "MODEL_GW": 0, "MODEL_EPS0": 8.47029636, "MODEL_ALPHA": 1.0, "LEPSILON": false, "LRPA": false, "LNABLA": false, "LVEL": false, "CSHIFT": 0.1, "OMEGAMAX": -1.0, "DEG_THRESHOLD": 0.002, "RTIME": -0.1, "WPLASMAI": 0.0, "DFIELD": [0.0, 0.0, 0.0], "WPLASMA": [0.0, 0.0, 0.0, 0.0, 0.0, 0.0, 0.0, 0.0, 0.0], "NUCIND": false, "MAGPOS": [0.0, 0.0, 0.0], "LNICSALL": true, "ORBITALMAG": false, "LMAGBLOCH": false, "LCHIMAG": false, "LGAUGE": true, "MAGATOM": 0, "MAGDIPOL": [0.0, 0.0, 0.0], "AVECCONST": [0.0, 0.0, 0.0], "LFINITE_TEMPERATURE": false, "LADDER": false, "LRPAFORCE": false, "LFXC": false, "LHARTREE": true, "IBSE": 0, "KPOINT": [-1, 0, 0, 0], "LTCTC": false, "LTCTE": false, "LTETE": false, "LTRIPLET": false, "LFXCEPS": false, "LFXHEG": false, "NATURALO": 2, "LHOLEGF": false, "L2ORDER": false, "LDMP1": false, "LMP2LT": false, "LSMP2LT": false, "LGWLF": false, "ENCUTGW": -2.0, "ENCUTGWSOFT": -2.0, "ENCUTLF": -1.0, "LESF_SPLINES": false, "LMAXMP2": -1, "SCISSOR": 0.0, "NOMEGA": 0, "NOMEGAR": 0, "NBANDSGW": -1, "NBANDSO": -1, "NBANDSV": -1, "NELMGW": 1, "NELMHF": 1, "DIM": 3, "IESPILON": 4, "ANTIRES": 0, "OMEGAMIN": -30.0, "OMEGATL": -200.0, "OMEGAGRID": 0, "LSELFENERGY": false, "LSPECTRAL": false, "LSPECTRALGW": false, "LSINGLES": false, "LFERMIGW": false, "ODDONLYGW": false, "EVENONLYGW": false, "NKREDLFX": 1, "NKREDLFY": 1, "NKREDLFZ": 1, "MAXMEM": 2800, "TELESCOPE": 0, "NTAUPAR": -1, "NOMEGAPAR": -1, "DAMP_NEWTON": 0.80000001, "LAMBDA": 1.0, "OFIELD_KAPPA": 0.0, "OFIELD_K": [0.0, 0.0, 0.0], "OFIELD_Q6_NEAR": 0.0, "OFIELD_Q6_FAR": 0.0, "OFIELD_A": 0.0, "KPOINTS_OPT_MODE": 1, "LKPOINTS_OPT": false, "@module": "pymatgen.io.vasp.inputs", "@class": "Incar"}, "relaxed_structures": {"@module": "pymatgen.core.structure", "@class": "Structure", "charge": 0, "lattice": {"matrix": [[9.132688, 0.0, 0.0], [4.435089, 8.143568, 0.0], [0.0, 0.0, 30.3706432]], "a": 9.132688, "b": 9.27295606635473, "c": 30.3706432, "alpha": 90.0, "beta": 90.0, "gamma": 61.42673605530538, "volume": 2258.745695349921}, "sites": [{"species": [{"element": "Na", "occu": 1}], "abc": [0.2512295, 0.56563672, 0.99578827], "xyz": [4.80304983476408, 4.60630109261696, 30.242730250915265], "label": "Na", "properties": {}}, {"species": [{"element": "Na", "occu": 1}], "abc": [0.82775151, 0.24914279, 0.15280764], "xyz": [8.66456672971719, 2.02891125207472, 4.6408663126740475], "label": "Na", "properties": {}}, {"species": [{"element": "Na", "occu": 1}], "abc": [0.83999523, 0.94718655, 0.05866441], "xyz": [11.87227100593119, 7.7134780786104, 1.781675864648512], "label": "Na", "properties": {}}, {"species": [{"element": "Na", "occu": 1}], "abc": [0.24928709, 0.95623854, 0.15428506], "xyz": [6.517664245527979, 7.78719357471072, 4.685736508350592], "label": "Na", "properties": {}}, {"species": [{"element": "Na", "occu": 1}], "abc": [0.35216017, 0.41182032, 0.1122188], "xyz": [5.04262872984544, 3.35368677970176, 3.40815713513216], "label": "Na", "properties": {}}, {"species": [{"element": "Na", "occu": 1}], "abc": [0.28740315, 0.79348221, 0.26986152], "xyz": [6.1439275204338895, 6.46177633392528, 8.195867937329664], "label": "Na", "properties": {}}, {"species": [{"element": "Na", "occu": 1}], "abc": [0.66669642, 0.90837294, 0.22603951], "xyz": [10.117445228668618, 7.397396806249921, 6.864965307312832], "label": "Na", "properties": {}}, {"species": [{"element": "Na", "occu": 1}], "abc": [0.15185005, 0.80649396, 0.46652287], "xyz": [4.963671619996839, 6.56773840484928, 14.168599629409984], "label": "Na", "properties": {}}, {"species": [{"element": "Na", "occu": 1}], "abc": [0.13813446, 0.42594171, 0.34312508], "xyz": [3.1506283178906695, 3.4686852794212797, 10.420929377651456], "label": "Na", "properties": {}}, {"species": [{"element": "Na", "occu": 1}], "abc": [0.60252964, 0.25864103, 0.38784313], "xyz": [6.64981119997399, 2.10626081539504, 11.779045318801215], "label": "Na", "properties": {}}, {"species": [{"element": "Na", "occu": 1}], "abc": [0.71437075, 0.72700764, 0.34569314], "xyz": [9.74846876315596, 5.920436152859519, 10.498923011627648], "label": "Na", "properties": {}}, {"species": [{"element": "Na", "occu": 1}], "abc": [0.64622802, 0.12639637, 0.49398674], "xyz": [6.46237803374469, 1.0293174340481601, 15.002695026071168], "label": "Na", "properties": {}}, {"species": [{"element": "Na", "occu": 1}], "abc": [0.09967803, 0.20879816, 0.49597958], "xyz": [1.83636677108088, 1.70036201423488, 15.063218858665856], "label": "Na", "properties": {}}, {"species": [{"element": "Na", "occu": 1}], "abc": [0.52252562, 0.52641724, 0.65269556], "xyz": [7.10677077000092, 4.28691459031232, 19.82278397098419], "label": "Na", "properties": {}}, {"species": [{"element": "Na", "occu": 1}], "abc": [0.51066686, 0.82556428, 0.55890593], "xyz": [8.325212161340598, 6.72303885255104, 16.974332582394176], "label": "Na", "properties": {}}, {"species": [{"element": "Na", "occu": 1}], "abc": [0.10056103, 0.81874297, 0.6544053], "xyz": [4.5495904520229695, 6.66748905071696, 19.87470987448896], "label": "Na", "properties": {}}, {"species": [{"element": "Na", "occu": 1}], "abc": [0.99756453, 0.36350925, 0.61233769], "xyz": [10.72264148842989, 2.960262296004, 18.59708950090221], "label": "Na", "properties": {}}, {"species": [{"element": "Na", "occu": 1}], "abc": [0.06246637, 0.9809524, 0.76996875], "xyz": [4.921097066466159, 7.988452574163199, 23.384446181399998], "label": "Na", "properties": {}}, {"species": [{"element": "Na", "occu": 1}], "abc": [0.68394148, 0.8667883, 0.7259867], "xyz": [10.09050740175694, 7.0587494626544, 22.04868303364544], "label": "Na", "properties": {}}, {"species": [{"element": "Na", "occu": 1}], "abc": [0.19851109, 0.96874115, 0.96640463], "xyz": [6.10939306772227, 7.889009429423201, 29.350330204558016], "label": "Na", "properties": {}}, {"species": [{"element": "Na", "occu": 1}], "abc": [0.21210085, 0.34921606, 0.84332616], "xyz": [3.48585519391414, 2.84386473130208, 25.612357906586112], "label": "Na", "properties": {}}, {"species": [{"element": "Na", "occu": 1}], "abc": [0.74748865, 0.51624691, 0.88776764], "xyz": [9.11618161581619, 4.20409181637488, 26.962074238946048], "label": "Na", "properties": {}}, {"species": [{"element": "Na", "occu": 1}], "abc": [0.63549715, 0.04823193, 0.84579094], "xyz": [6.017710098030969, 0.39278000172624, 25.687214860532606], "label": "Na", "properties": {}}, {"species": [{"element": "Na", "occu": 1}], "abc": [0.70244841, 0.64857959, 0.99388331], "xyz": [9.291750369859589, 5.28175199457712, 30.18487539044499], "label": "Na", "properties": {}}, {"species": [{"element": "Zr", "occu": 1}], "abc": [0.34627088, 0.13213027, 0.03781883], "xyz": [3.7483934175694698, 1.07601183860336, 1.1485821921714559], "label": "Zr", "properties": {}}, {"species": [{"element": "Zr", "occu": 1}], "abc": [0.01376721, 0.78768096, 0.16034542], "xyz": [3.6191667947659196, 6.41453346006528, 4.869793539574144], "label": "Zr", "properties": {}}, {"species": [{"element": "Zr", "occu": 1}], "abc": [0.59550693, 0.57007739, 0.10231873], "xyz": [7.9669229550655505, 4.64246399072752, 3.107485641507136], "label": "Zr", "properties": {}}, {"species": [{"element": "Zr", "occu": 1}], "abc": [0.27314064, 0.2405986, 0.2105157], "xyz": [3.5615844495157196, 1.9593310598048, 6.39349721269824], "label": "Zr", "properties": {}}, {"species": [{"element": "Zr", "occu": 1}], "abc": [0.68828443, 0.43927723, 0.29023468], "xyz": [8.23412056517131, 3.57728399335664, 8.814613910546177], "label": "Zr", "properties": {}}, {"species": [{"element": "Zr", "occu": 1}], "abc": [0.36280879, 0.11583109, 0.40321892], "xyz": [3.8271406758445297, 0.94327835792912, 12.246017950809343], "label": "Zr", "properties": {}}, {"species": [{"element": "Zr", "occu": 1}], "abc": [0.95103891, 0.88771222, 0.33825925], "xyz": [12.622624342977659, 7.229144828000961, 10.2731509908496], "label": "Zr", "properties": {}}, {"species": [{"element": "Zr", "occu": 1}], "abc": [0.60367592, 0.54659109, 0.44976399], "xyz": [7.93736396122997, 4.451201709609119, 13.659621664498369], "label": "Zr", "properties": {}}, {"species": [{"element": "Zr", "occu": 1}], "abc": [0.00383478, 0.64278787, 0.53766599], "xyz": [2.88584326085907, 5.23458672892016, 16.32926194306477], "label": "Zr", "properties": {}}, {"species": [{"element": "Zr", "occu": 1}], "abc": [0.33635056, 0.98742569, 0.66040617], "xyz": [7.45110553914169, 8.04116825146192, 20.056960156148545], "label": "Zr", "properties": {}}, {"species": [{"element": "Zr", "occu": 1}], "abc": [0.75441707, 0.20466959, 0.60238085], "xyz": [7.797583569427671, 1.6667407236971201, 18.29469386586272], "label": "Zr", "properties": {}}, {"species": [{"element": "Zr", "occu": 1}], "abc": [0.07697261, 0.53455396, 0.71058006], "xyz": [3.0737612195781194, 4.35317652292928, 21.58077346729459], "label": "Zr", "properties": {}}, {"species": [{"element": "Zr", "occu": 1}], "abc": [0.66190451, 0.33605492, 0.79040846], "xyz": [7.535400854710759, 2.7366860927545598, 24.00521332092147], "label": "Zr", "properties": {}}, {"species": [{"element": "Zr", "occu": 1}], "abc": [0.98678843, 0.65943423, 0.9034864], "xyz": [11.93668035289631, 5.37014749353264, 27.43946309045248], "label": "Zr", "properties": {}}, {"species": [{"element": "Zr", "occu": 1}], "abc": [0.39880045, 0.88743652, 0.83827057], "xyz": [7.5779800321598785, 7.22689964630336, 25.458816386530625], "label": "Zr", "properties": {}}, {"species": [{"element": "Zr", "occu": 1}], "abc": [0.746251, 0.22840561, 0.94994727], "xyz": [7.828276761137291, 1.8600366166164801, 28.850509595984065], "label": "Zr", "properties": {}}, {"species": [{"element": "Si", "occu": 1}], "abc": [0.41735428, 0.53681689, 0.19798485], "xyz": [6.19239710855785, 4.37160484726352, 6.01292723835552], "label": "Si", "properties": {}}, {"species": [{"element": "Si", "occu": 1}], "abc": [0.19587743, 0.84326031, 0.06507258], "xyz": [5.52882197944943, 6.867147676186081, 1.9762961092834561], "label": "Si", "properties": {}}, {"species": [{"element": "Si", "occu": 1}], "abc": [0.0414011, 0.41517351, 0.11572428], "xyz": [2.21943479644919, 3.3809937104836805, 3.514620817456896], "label": "Si", "properties": {}}, {"species": [{"element": "Si", "occu": 1}], "abc": [0.57767657, 0.95434875, 0.12921674], "xyz": [9.508361522008908, 7.77180394134, 3.924395506007168], "label": "Si", "properties": {}}, {"species": [{"element": "Si", "occu": 1}], "abc": [0.77232893, 0.82472129, 0.43575562], "xyz": [10.71115147240865, 6.71617390616272, 13.234178457414785], "label": "Si", "properties": {}}, {"species": [{"element": "Si", "occu": 1}], "abc": [0.54494883, 0.14223684, 0.30468815], "xyz": [5.6076806848338006, 1.1583153786451201, 9.25357509091808], "label": "Si", "properties": {}}, {"species": [{"element": "Si", "occu": 1}], "abc": [0.37873297, 0.74319082, 0.36722205], "xyz": [6.754967481006339, 6.052224979645761, 11.15276985572256], "label": "Si", "properties": {}}, {"species": [{"element": "Si", "occu": 1}], "abc": [0.92645973, 0.25330863, 0.38295641], "xyz": [9.58451397717231, 2.0628360533918397, 11.630632489262913], "label": "Si", "properties": {}}, {"species": [{"element": "Si", "occu": 1}], "abc": [0.93257579, 0.23817225, 0.69812743], "xyz": [9.57323885250377, 1.939571913588, 21.202579084662975], "label": "Si", "properties": {}}, {"species": [{"element": "Si", "occu": 1}], "abc": [0.154112, 0.9316116, 0.56530947], "xyz": [5.5392371724883995, 7.5866424141888, 17.168812210951103], "label": "Si", "properties": {}}, {"species": [{"element": "Si", "occu": 1}], "abc": [0.30832411, 0.36018191, 0.61566943], "xyz": [4.41326672654767, 2.93316587645488, 18.698276587677373], "label": "Si", "properties": {}}, {"species": [{"element": "Si", "occu": 1}], "abc": [0.7724518, 0.82022769, 0.6291669], "xyz": [10.69234408985281, 6.67957996899792, 19.10820343315008], "label": "Si", "properties": {}}, {"species": [{"element": "Si", "occu": 1}], "abc": [0.57699051, 0.95082016, 0.93580003], "xyz": [9.48644633938512, 7.743068628730881, 28.420848817679296], "label": "Si", "properties": {}}, {"species": [{"element": "Si", "occu": 1}], "abc": [0.80555613, 0.63331977, 0.80478729], "xyz": [10.16572234718697, 5.15748261273936, 24.44190763648493], "label": "Si", "properties": {}}, {"species": [{"element": "Si", "occu": 1}], "abc": [0.9710221, 0.03167737, 0.86737906], "xyz": [9.00853383564073, 0.25796681665616006, 26.34285995041139], "label": "Si", "properties": {}}, {"species": [{"element": "Si", "occu": 1}], "abc": [0.42344875, 0.52229147, 0.8832011], "xyz": [6.18363447113083, 4.25331610176496, 26.82338548194752], "label": "Si", "properties": {}}, {"species": [{"element": "P", "occu": 1}], "abc": [0.60555097, 0.32461297, 0.04114], "xyz": [6.969995489611691, 2.64350779487696, 1.249448261248], "label": "P", "properties": {}}, {"species": [{"element": "P", "occu": 1}], "abc": [0.99556376, 0.08756826, 0.23859858], "xyz": [9.48054623086202, 0.71311807995168, 7.246392341206656], "label": "P", "properties": {}}, {"species": [{"element": "P", "occu": 1}], "abc": [0.9563375, 0.5973872, 0.25994922], "xyz": [11.3833974096608, 4.864863285529601, 7.894825010738304], "label": "P", "properties": {}}, {"species": [{"element": "P", "occu": 1}], "abc": [0.31631561, 0.39307904, 0.45862183], "xyz": [4.63215230209424, 3.20106589161472, 13.928639962661057], "label": "P", "properties": {}}, {"species": [{"element": "P", "occu": 1}], "abc": [0.74452576, 0.44923393, 0.54096599], "xyz": [8.79191393541265, 3.65836705686224, 16.429485065624768], "label": "P", "properties": {}}, {"species": [{"element": "P", "occu": 1}], "abc": [0.35487004, 0.68729065, 0.73866247], "xyz": [6.289112557485369, 5.5969981440392, 22.433654321600702], "label": "P", "properties": {}}, {"species": [{"element": "P", "occu": 1}], "abc": [0.39406058, 0.17776521, 0.75998903], "xyz": [4.38723685769273, 1.4476430756692802, 23.081355666044093], "label": "P", "properties": {}}, {"species": [{"element": "P", "occu": 1}], "abc": [0.03343857, 0.38205091, 0.95884148], "xyz": [1.99981381535715, 3.11125756504688, 29.120632474439937], "label": "P", "properties": {}}, {"species": [{"element": "O", "occu": 1}], "abc": [0.25266854, 0.71477703, 0.18743605], "xyz": [5.47764268644119, 5.82083534864304, 5.69255339736736], "label": "O", "properties": {}}, {"species": [{"element": "O", "occu": 1}], "abc": [0.34992595, 0.67002697, 0.08382437], "xyz": [6.1673937688039295, 5.45641019202896, 2.545800032734784], "label": "O", "properties": {}}, {"species": [{"element": "O", "occu": 1}], "abc": [0.09763936, 0.29712749, 0.15979104], "xyz": [2.2094966738962896, 2.41967791948432, 4.852956662396928], "label": "O", "properties": {}}, {"species": [{"element": "O", "occu": 1}], "abc": [0.54079167, 0.04736928, 0.08131934], "xyz": [5.1489685677748795, 0.38575495279104, 2.469720660399488], "label": "O", "properties": {}}, {"species": [{"element": "O", "occu": 1}], "abc": [0.7558573, 0.18033827, 0.01674408], "xyz": [7.7028251709784294, 1.46859696474736, 0.5085284793922561], "label": "O", "properties": {}}, {"species": [{"element": "O", "occu": 1}], "abc": [0.60127406, 0.48990595, 0.02955388], "xyz": [7.66402488235283, 3.9895824174295997, 0.897570344655616], "label": "O", "properties": {}}, {"species": [{"element": "O", "occu": 1}], "abc": [0.44568045, 0.32072342, 0.02554192], "xyz": [5.49269740963398, 2.6118329799625597, 0.775724538962944], "label": "O", "properties": {}}, {"species": [{"element": "O", "occu": 1}], "abc": [0.63088382, 0.30637003, 0.09132867], "xyz": [7.12044344229083, 2.49494517246704, 2.773710450500544], "label": "O", "properties": {}}, {"species": [{"element": "O", "occu": 1}], "abc": [0.35896109, 0.39549174, 0.19199259], "xyz": [5.032320704774779, 3.2207138781283198, 5.830938447933888], "label": "O", "properties": {}}, {"species": [{"element": "O", "occu": 1}], "abc": [0.265245, 0.97874817, 0.05765008], "xyz": [6.76323507109713, 7.97050227727056, 1.750870010131456], "label": "O", "properties": {}}, {"species": [{"element": "O", "occu": 1}], "abc": [0.05577945, 0.58365474, 0.1268822], "xyz": [3.0979770308334595, 4.75303206371232, 3.85349402463104], "label": "O", "properties": {}}, {"species": [{"element": "O", "occu": 1}], "abc": [0.56710421, 0.7855994, 0.12052943], "xyz": [8.66338907076308, 6.3975821346592, 3.6605563136293764], "label": "O", "properties": {}}, {"species": [{"element": "O", "occu": 1}], "abc": [0.44242427, 0.05303283, 0.16843539], "xyz": [4.27572814250963, 0.43187645733744, 5.115491131942847], "label": "O", "properties": {}}, {"species": [{"element": "O", "occu": 1}], "abc": [0.18148494, 0.3181677, 0.07688243], "xyz": [3.06854740014402, 2.5910203003536, 2.334968849878976], "label": "O", "properties": {}}, {"species": [{"element": "O", "occu": 1}], "abc": [0.06049357, 0.9053574, 0.10711031], "xyz": [4.56780954662476, 7.3728395512032, 3.253009008051392], "label": "O", "properties": {}}, {"species": [{"element": "O", "occu": 1}], "abc": [0.56541299, 0.49616412, 0.16155299], "xyz": [7.3642724596238, 4.04054625038016, 4.906468217183169], "label": "O", "properties": {}}, {"species": [{"element": "O", "occu": 1}], "abc": [0.11358508, 0.8284936, 0.01948234], "xyz": [4.7117799490254395, 6.746893969164801, 0.5916911968410881], "label": "O", "properties": {}}, {"species": [{"element": "O", "occu": 1}], "abc": [0.76365901, 0.91255837, 0.14578242], "xyz": [11.021537065363809, 7.43148114006416, 4.427505862652544], "label": "O", "properties": {}}, {"species": [{"element": "O", "occu": 1}], "abc": [0.85231129, 0.45859087, 0.10150208], "xyz": [9.81778441348495, 3.73456593402416, 3.0826834557378557], "label": "O", "properties": {}}, {"species": [{"element": "O", "occu": 1}], "abc": [0.60898119, 0.00960699, 0.4274743], "xyz": [5.60424306181083, 0.07823517634032, 12.98266944246976], "label": "O", "properties": {}}, {"species": [{"element": "O", "occu": 1}], "abc": [0.70834256, 0.96342672, 0.313655], "xyz": [10.741954845779357, 7.84573100733696, 9.525904092896], "label": "O", "properties": {}}, {"species": [{"element": "O", "occu": 1}], "abc": [0.3901269, 0.66965551, 0.41748505], "xyz": [6.53288904429759, 5.45338518225968, 12.679289494884161], "label": "O", "properties": {}}, {"species": [{"element": "O", "occu": 1}], "abc": [0.88182855, 0.37151983, 0.33960233], "xyz": [9.701188527957271, 3.02549699895344, 10.313941194318657], "label": "O", "properties": {}}, {"species": [{"element": "O", "occu": 1}], "abc": [0.09762539, 0.41969983, 0.25373958], "xyz": [2.75298832708319, 3.41785410519344, 7.706234249897856], "label": "O", "properties": {}}, {"species": [{"element": "O", "occu": 1}], "abc": [0.85618907, 0.26663198, 0.24420926], "xyz": [9.00184420686638, 2.17133566010464, 7.416792301596033], "label": "O", "properties": {}}, {"species": [{"element": "O", "occu": 1}], "abc": [0.94355423, 0.70735517, 0.22024082], "xyz": [11.75436952723037, 5.76039492704656, 6.688855362295424], "label": "O", "properties": {}}, {"species": [{"element": "O", "occu": 1}], "abc": [0.00223769, 0.98033886, 0.27811659], "xyz": [4.36832621886926, 7.983456169452481, 8.446579722890688], "label": "O", "properties": {}}, {"species": [{"element": "O", "occu": 1}], "abc": [0.1713686, 0.07586581, 0.23332189], "xyz": [1.9015275762038901, 0.61781838261008, 7.086135871939648], "label": "O", "properties": {}}, {"species": [{"element": "O", "occu": 1}], "abc": [0.78301624, 0.60603415, 0.26663911], "xyz": [9.838858411142471, 4.9352803108472, 8.098001272975552], "label": "O", "properties": {}}, {"species": [{"element": "O", "occu": 1}], "abc": [0.958178, 0.01923394, 0.19570959], "xyz": [8.83604495818466, 0.15663289829792001, 5.943826128708288], "label": "O", "properties": {}}, {"species": [{"element": "O", "occu": 1}], "abc": [0.99722206, 0.66267349, 0.30293503], "xyz": [12.04633384678789, 5.39652662761232, 9.200331708911296], "label": "O", "properties": {}}, {"species": [{"element": "O", "occu": 1}], "abc": [0.70128477, 0.69085266, 0.43369894], "xyz": [9.4686080365485, 5.626005614690881, 13.171715762958208], "label": "O", "properties": {}}, {"species": [{"element": "O", "occu": 1}], "abc": [0.60723208, 0.28151327, 0.30909324], "xyz": [6.794197537362069, 2.29252245714736, 9.387360507571968], "label": "O", "properties": {}}, {"species": [{"element": "O", "occu": 1}], "abc": [0.39656843, 0.908404, 0.37490861], "xyz": [7.65058832979584, 7.397649745472, 11.38621562691795], "label": "O", "properties": {}}, {"species": [{"element": "O", "occu": 1}], "abc": [0.90738184, 0.08979572, 0.37230777], "xyz": [8.685087251605, 0.73125755192896, 11.307226443257663], "label": "O", "properties": {}}, {"species": [{"element": "O", "occu": 1}], "abc": [0.77900824, 0.34857947, 0.42092715], "xyz": [8.66042017837195, 2.83868061734896, 12.783828285842882], "label": "O", "properties": {}}, {"species": [{"element": "O", "occu": 1}], "abc": [0.53517461, 0.61847989, 0.33613779], "xyz": [7.630596095511889, 5.03663304084752, 10.208720886126528], "label": "O", "properties": {}}, {"species": [{"element": "O", "occu": 1}], "abc": [0.40819169, 0.18542847, 0.34470598], "xyz": [4.55027911654655, 1.5100493545809601, 10.468942327486337], "label": "O", "properties": {}}, {"species": [{"element": "O", "occu": 1}], "abc": [0.89963189, 0.78799614, 0.39369497], "xyz": [11.710890378776778, 6.41710014982752, 11.956769463504703], "label": "O", "properties": {}}, {"species": [{"element": "O", "occu": 1}], "abc": [0.45781174, 0.13950906, 0.25832134], "xyz": [4.79978688156346, 1.13610151672608, 7.845385248085888], "label": "O", "properties": {}}, {"species": [{"element": "O", "occu": 1}], "abc": [0.49291965, 0.54482304, 0.2460121], "xyz": [6.91802004416976, 4.43680347420672, 7.471545711982721], "label": "O", "properties": {}}, {"species": [{"element": "O", "occu": 1}], "abc": [0.10760333, 0.20529378, 0.40500922], "xyz": [1.89320382609746, 1.67182385740704, 12.300390513330305], "label": "O", "properties": {}}, {"species": [{"element": "O", "occu": 1}], "abc": [0.20509135, 0.77752963, 0.34456876], "xyz": [5.321448420235869, 6.33186541391984, 10.464774867826431], "label": "O", "properties": {}}, {"species": [{"element": "O", "occu": 1}], "abc": [0.17332935, 0.54018244, 0.48212789], "xyz": [3.97872007242996, 4.399012432545921, 14.642534123958848], "label": "O", "properties": {}}, {"species": [{"element": "O", "occu": 1}], "abc": [0.33222949, 0.2246167, 0.47372928], "xyz": [4.03034333195542, 1.8291813703856001, 14.387462936272895], "label": "O", "properties": {}}, {"species": [{"element": "O", "occu": 1}], "abc": [0.48517813, 0.39178897, 0.46658746], "xyz": [6.16859943688177, 3.19056011884496, 14.170561269254272], "label": "O", "properties": {}}, {"species": [{"element": "O", "occu": 1}], "abc": [0.29282923, 0.38949398, 0.408113], "xyz": [4.40175846113446, 3.1718707117206404, 12.3946543082816], "label": "O", "properties": {}}, {"species": [{"element": "O", "occu": 1}], "abc": [0.85547837, 0.81880575, 0.48433313], "xyz": [11.44429341892031, 6.668000303916, 14.709508681169217], "label": "O", "properties": {}}, {"species": [{"element": "O", "occu": 1}], "abc": [0.09767302, 0.0605083, 0.68757157], "xyz": [1.16037691341646, 0.49275345561440004, 20.881990826933826], "label": "O", "properties": {}}, {"species": [{"element": "O", "occu": 1}], "abc": [0.00031353, 0.10476831, 0.58412778], "xyz": [0.46752015089822996, 0.85318785673008, 17.740336389588094], "label": "O", "properties": {}}, {"species": [{"element": "O", "occu": 1}], "abc": [0.25140159, 0.47874852, 0.65962974], "xyz": [4.4192645789922, 3.89872112751936, 20.03337947764877], "label": "O", "properties": {}}, {"species": [{"element": "O", "occu": 1}], "abc": [0.81000085, 0.72636283, 0.58137853], "xyz": [10.61896884012667, 5.915185098777441, 17.656839898770496], "label": "O", "properties": {}}, {"species": [{"element": "O", "occu": 1}], "abc": [0.59375225, 0.59323994, 0.51663039], "xyz": [8.05362598080266, 4.83108979170592, 15.690397240966847], "label": "O", "properties": {}}, {"species": [{"element": "O", "occu": 1}], "abc": [0.74910454, 0.28365969, 0.52960197], "xyz": [8.09939401406593, 2.3100019743739204, 16.084352468887104], "label": "O", "properties": {}}, {"species": [{"element": "O", "occu": 1}], "abc": [0.90393693, 0.45378404, 0.52523674], "xyz": [10.2679465575474, 3.6954211870547202, 15.951777626071168], "label": "O", "properties": {}}, {"species": [{"element": "O", "occu": 1}], "abc": [0.71935736, 0.4680192, 0.59117131], "xyz": [8.645373135092479, 3.8113461805056, 17.954252926086593], "label": "O", "properties": {}}, {"species": [{"element": "O", "occu": 1}], "abc": [0.99009219, 0.38022864, 0.69227916], "xyz": [10.72855092125568, 3.09641778538752, 21.024963363155713], "label": "O", "properties": {}}, {"species": [{"element": "O", "occu": 1}], "abc": [0.0847606, 0.79610812, 0.55758057], "xyz": [4.304902480315479, 6.48316061057216, 16.934080546722626], "label": "O", "properties": {}}, {"species": [{"element": "O", "occu": 1}], "abc": [0.29372125, 0.19183341, 0.62702852], "xyz": [3.53326278174349, 1.5622084190068801, 19.043259457144064], "label": "O", "properties": {}}, {"species": [{"element": "O", "occu": 1}], "abc": [0.78294035, 0.98890461, 0.62028472], "xyz": [11.536229897021089, 8.05321193704848, 18.838445913531903], "label": "O", "properties": {}}, {"species": [{"element": "O", "occu": 1}], "abc": [0.90717327, 0.7221985, 0.66853962], "xyz": [11.48794506001626, 5.881272594248, 20.303978264083582], "label": "O", "properties": {}}, {"species": [{"element": "O", "occu": 1}], "abc": [0.1688952, 0.45643707, 0.57664232], "xyz": [3.56680619464683, 3.71702631726576, 17.512998154740224], "label": "O", "properties": {}}, {"species": [{"element": "O", "occu": 1}], "abc": [0.28946252, 0.86882463, 0.60736925], "xyz": [6.496885442295829, 7.07533245447984, 18.446194782401598], "label": "O", "properties": {}}, {"species": [{"element": "O", "occu": 1}], "abc": [0.78483482, 0.27847752, 0.6616152], "xyz": [8.40272412829544, 2.26780062059136, 20.09367917489664], "label": "O", "properties": {}}, {"species": [{"element": "O", "occu": 1}], "abc": [0.2367535, 0.94635547, 0.51977718], "xyz": [6.359366583494829, 7.70671012211696, 15.785967277282175], "label": "O", "properties": {}}, {"species": [{"element": "O", "occu": 1}], "abc": [0.58623986, 0.86231649, 0.64558759], "xyz": [9.17839611386129, 7.0223329738363205, 19.606910350237886], "label": "O", "properties": {}}, {"species": [{"element": "O", "occu": 1}], "abc": [0.49765058, 0.31642867, 0.6016443], "xyz": [5.9482767937606695, 2.5768583912945604, 18.27232436861376], "label": "O", "properties": {}}, {"species": [{"element": "O", "occu": 1}], "abc": [0.7403903, 0.76579958, 0.92757396], "xyz": [10.15814290158902, 6.236340954101441, 28.171017780771074], "label": "O", "properties": {}}, {"species": [{"element": "O", "occu": 1}], "abc": [0.64171987, 0.81183272, 0.81371466], "xyz": [9.46117772242264, 6.6112149599449594, 24.713037605469314], "label": "O", "properties": {}}, {"species": [{"element": "O", "occu": 1}], "abc": [0.95984088, 0.10515364, 0.91765021], "xyz": [9.2322930387594, 0.85632581778752, 27.869627110315072], "label": "O", "properties": {}}, {"species": [{"element": "O", "occu": 1}], "abc": [0.4680077, 0.40431569, 0.83978218], "xyz": [6.06734437494401, 3.29257231498192, 25.504724954498176], "label": "O", "properties": {}}, {"species": [{"element": "O", "occu": 1}], "abc": [0.25289531, 0.35543161, 0.7536346], "xyz": [3.8859847866565698, 2.89448148538448, 22.88836753977472], "label": "O", "properties": {}}, {"species": [{"element": "O", "occu": 1}], "abc": [0.49386383, 0.5081469, 0.7443168], "xyz": [6.763981000449139, 4.1381288341391995, 22.60537996056576], "label": "O", "properties": {}}, {"species": [{"element": "O", "occu": 1}], "abc": [0.40739142, 0.06779353, 0.7202328], "xyz": [4.0212490719111305, 0.55208122151504, 21.873933389736962], "label": "O", "properties": {}}, {"species": [{"element": "O", "occu": 1}], "abc": [0.34793255, 0.79431553, 0.77826626], "xyz": [6.700419493826569, 6.46856253201104, 23.63644689705843], "label": "O", "properties": {}}, {"species": [{"element": "O", "occu": 1}], "abc": [0.1789866, 0.69929419, 0.73320684], "xyz": [4.7360607438137095, 5.69474978826992, 22.26796332943949], "label": "O", "properties": {}}, {"species": [{"element": "O", "occu": 1}], "abc": [0.56719049, 0.16924932, 0.76691338], "xyz": [5.9306095791266, 1.37829334637376, 23.291652629286016], "label": "O", "properties": {}}, {"species": [{"element": "O", "occu": 1}], "abc": [0.39295104, 0.75569814, 0.69590229], "xyz": [6.94028775562998, 6.15407919056352, 21.13500015165293], "label": "O", "properties": {}}, {"species": [{"element": "O", "occu": 1}], "abc": [0.35219497, 0.11264735, 0.80286055], "xyz": [3.71608779904351, 0.9173513547448, 24.38339130340576], "label": "O", "properties": {}}, {"species": [{"element": "O", "occu": 1}], "abc": [0.64802627, 0.08473568, 0.93370966], "xyz": [6.29403202198928, 0.69005077210624, 28.357362936253313], "label": "O", "properties": {}}, {"species": [{"element": "O", "occu": 1}], "abc": [0.74340409, 0.49378802, 0.80894588], "xyz": [8.9792714277277, 4.02119631845536, 24.568206689590017], "label": "O", "properties": {}}, {"species": [{"element": "O", "occu": 1}], "abc": [0.95265403, 0.86673891, 0.87498372], "xyz": [12.54435623354563, 7.05834725183088, 26.573818365928705], "label": "O", "properties": {}}, {"species": [{"element": "O", "occu": 1}], "abc": [0.44339216, 0.68535413, 0.87248922], "xyz": [7.0889688219936495, 5.5812279617358405, 26.498058796466303], "label": "O", "properties": {}}, {"species": [{"element": "O", "occu": 1}], "abc": [0.57078092, 0.42665027, 0.92118079], "xyz": [7.10499597803699, 3.47445548596336, 27.976853095784126], "label": "O", "properties": {}}, {"species": [{"element": "O", "occu": 1}], "abc": [0.8144592, 0.15700476, 0.83639868], "xyz": [8.13453184635324, 1.27857893938368, 25.401965883230975], "label": "O", "properties": {}}, {"species": [{"element": "O", "occu": 1}], "abc": [0.94177146, 0.58950945, 0.84496055], "xyz": [11.21543178857553, 4.8007102927176, 25.66199538212576], "label": "O", "properties": {}}, {"species": [{"element": "O", "occu": 1}], "abc": [0.44981883, 0.98759667, 0.89369848], "xyz": [8.488134158468668, 8.04256063871856, 27.142197664462334], "label": "O", "properties": {}}, {"species": [{"element": "O", "occu": 1}], "abc": [0.89315192, 0.63658095, 0.7585496], "xyz": [10.980170990915509, 5.1840402538296, 23.03763925110272], "label": "O", "properties": {}}, {"species": [{"element": "O", "occu": 1}], "abc": [0.85711662, 0.22968423, 0.74614244], "xyz": [8.84644867202103, 1.87044914553264, 22.660825821617408], "label": "O", "properties": {}}, {"species": [{"element": "O", "occu": 1}], "abc": [0.24214947, 0.57076407, 0.90527191], "xyz": [4.742865007327589, 4.648056016001759, 27.493690177592512], "label": "O", "properties": {}}, {"species": [{"element": "O", "occu": 1}], "abc": [0.14476474, 0.99683061, 0.84466275], "xyz": [5.74312367709541, 8.11775785701648, 25.6529510045808], "label": "O", "properties": {}}, {"species": [{"element": "O", "occu": 1}], "abc": [0.17654404, 0.23511472, 0.98231914], "xyz": [2.6550763439895997, 1.91467271012096, 29.83366410947085], "label": "O", "properties": {}}, {"species": [{"element": "O", "occu": 1}], "abc": [0.01708641, 0.55067411, 0.97399568], "xyz": [2.5983335394158695, 4.48445206062448, 29.580875275621377], "label": "O", "properties": {}}, {"species": [{"element": "O", "occu": 1}], "abc": [0.86470767, 0.38301559, 0.96673736], "xyz": [9.59581359135447, 3.11911350222512, 29.360435428669952], "label": "O", "properties": {}}, {"species": [{"element": "O", "occu": 1}], "abc": [0.05711244, 0.38582076, 0.90833767], "xyz": [2.23273950408636, 3.14195759487168, 27.586799280689345], "label": "O", "properties": {}}, {"species": [{"element": "O", "occu": 1}], "abc": [0.49401085, 0.95645859, 0.98437913], "xyz": [8.75362593312931, 7.78898556684912, 29.896227330756414], "label": "O", "properties": {}}]}, "formula": "(Na3Zr2Si2PO12)8.0", "bandgap": 4.2919}