{"miller": "100_0.20", "final_energy": -1207.65868399, "sigma": 0.057896439794543675, "incar_parameters": {"SYSTEM": "unknown system", "LCOMPAT": false, "PREC": "normal", "ENMAX": 520.0, "ENAUG": 605.392, "EDIFF": 1e-05, "IALGO": 38, "IWAVPR": 11, "NBANDS": 624, "NBANDSLOW": -1, "NBANDSHIGH": -1, "NELECT": 1040.0, "TURBO": 0, "IRESTART": 0, "NREBOOT": 0, "NMIN": 0, "EREF": 0.0, "ISMEAR": 0, "SIGMA": 0.05, "KSPACING": 0.5, "KGAMMA": true, "KBLOWUP": true, "LREAL": true, "ROPT": [-0.0005, -0.0005, -0.0005, -0.0005, -0.0005], "LMAXPAW": -100, "LMAXMIX": 4, "NLSPLINE": false, "ISTART": 0, "ICHARG": 2, "INIWAV": 1, "ISPIN": 1, "LNONCOLLINEAR": false, "MAGMOM": [0.6, 0.6, 0.6, 0.6, 0.6, 0.6, 0.6, 0.6, 0.6, 0.6, 0.6, 0.6, 0.6, 0.6, 0.6, 0.6, 0.6, 0.6, 0.6, 0.6, 0.6, 0.6, 0.6, 0.6, 0.6, 0.6, 0.6, 0.6, 0.6, 0.6, 0.6, 0.6, 0.6, 0.6, 0.6, 0.6, 0.6, 0.6, 0.6, 0.6, 0.6, 0.6, 0.6, 0.6, 0.6, 0.6, 0.6, 0.6, 0.6, 0.6, 0.6, 0.6, 0.6, 0.6, 0.6, 0.6, 0.6, 0.6, 0.6, 0.6, 0.6, 0.6, 0.6, 0.6, 0.6, 0.6, 0.6, 0.6, 0.6, 0.6, 0.6, 0.6, 0.6, 0.6, 0.6, 0.6, 0.6, 0.6, 0.6, 0.6, 0.6, 0.6, 0.6, 0.6, 0.6, 0.6, 0.6, 0.6, 0.6, 0.6, 0.6, 0.6, 0.6, 0.6, 0.6, 0.6, 0.6, 0.6, 0.6, 0.6, 0.6, 0.6, 0.6, 0.6, 0.6, 0.6, 0.6, 0.6, 0.6, 0.6, 0.6, 0.6, 0.6, 0.6, 0.6, 0.6, 0.6, 0.6, 0.6, 0.6, 0.6, 0.6, 0.6, 0.6, 0.6, 0.6, 0.6, 0.6, 0.6, 0.6, 0.6, 0.6, 0.6, 0.6, 0.6, 0.6, 0.6, 0.6, 0.6, 0.6, 0.6, 0.6, 0.6, 0.6, 0.6, 0.6, 0.6, 0.6, 0.6, 0.6, 0.6, 0.6, 0.6, 0.6, 0.6, 0.6, 0.6, 0.6, 0.6, 0.6], "NUPDOWN": -1.0, "LSORBIT": false, "SAXIS": [0.0, 0.0, 1.0], "LSPIRAL": false, "QSPIRAL": [0.0, 0.0, 0.0], "LZEROZ": false, "LASPH": false, "LMETAGGA": false, "NELM": 100, "NELMDL": -5, "NELMIN": 6, "ENINI": 520.0, "LDIAG": true, "LSUBROT": false, "WEIMIN": 0.001, "EBREAK": 0.0, "DEPER": 0.3, "NRMM": 4, "TIME": 0.4, "AMIX": 0.4, "BMIX": 1.0, "AMIN": 0.1, "AMIX_MAG": 1.6, "BMIX_MAG": 1.0, "IMIX": 4, "MIXFIRST": false, "MAXMIX": -45, "WC": 100.0, "INIMIX": 1, "MIXPRE": 1, "MREMOVE": 5, "LDIPOL": false, "LMONO": false, "IDIPOL": 0, "EPSILON": 1.0, "DIPOL": [-100.0, -100.0, -100.0], "EFIELD": 0.0, "NGX": 54, "NGY": 54, "NGZ": 180, "NGXF": 108, "NGYF": 108, "NGZF": 360, "ADDGRID": false, "NSW": 150, "IBRION": 2, "MDALGO": 0, "ISIF": 3, "PSTRESS": 0.0, "EDIFFG": -0.01, "NFREE": 1, "POTIM": 0.5, "SMASS": -3.0, "SCALEE": 1.0, "TEBEG": 0.0001, "TEEND": 0.0001, "NBLOCK": 1, "KBLOCK": 150, "NPACO": 256, "APACO": 10.0, "ISYM": 0, "SYMPREC": 1e-05, "LORBIT": 11, "RWIGS": [-1.0, -1.0, -1.0, -1.0, -1.0], "NEDOS": 301, "EMIN": 10.0, "EMAX": -10.0, "EFERMI": 0.0, "NWRITE": 2, "LWAVE": false, "LDOWNSAMPLE": false, "LCHARG": false, "LPARD": false, "LVTOT": false, "LVHAR": false, "LELF": false, "LOPTICS": false, "STM": [0.0, 0.0, 0.0, 0.0, 0.0, 0.0, 0.0], "NPAR": 2, "NSIM": 4, "NBLK": -1, "LPLANE": true, "LSCALAPACK": true, "LSCAAWARE": false, "LSCALU": false, "LASYNC": false, "LORBITALREAL": false, "IDIOT": 3, "PHON_NSTRUCT": -1, "LMUSIC": false, "POMASS": [22.99, 91.224, 28.085, 30.974, 16.0], "DARWINR": [0.0, 0.0, 0.0, 0.0, 0.0], "DARWINV": [1.0, 1.0, 1.0, 1.0, 1.0], "LCORR": true, "GGA_COMPAT": true, "LBERRY": false, "ICORELEVEL": 0, "LDAU": false, "I_CONSTRAINED_M": 0, "GGA": "--", "VOSKOWN": 0, "LHFCALC": false, "PRECFOCK": "", "LSYMGRAD": false, "LHFONE": false, "LRHFCALC": false, "LTHOMAS": false, "LMODELHF": false, "LFOCKACE": false, "ENCUT4O": -1.0, "EXXOEP": 0, "FOURORBIT": 0, "AEXX": 0.0, "HFALPHA": 0.0, "MCALPHA": 0.0, "ALDAX": 1.0, "AGGAX": 1.0, "ALDAC": 1.0, "AGGAC": 1.0, "NKREDX": 1, "NKREDY": 1, "NKREDZ": 1, "SHIFTRED": false, "ODDONLY": false, "EVENONLY": false, "LMAXFOCK": 0, "NMAXFOCKAE": 0, "LFOCKAEDFT": false, "HFSCREEN": 0.0, "HFSCREENC": 0.0, "NBANDSGWLOW": 0, "LUSE_VDW": false, "Zab_VDW": -0.8491, "PARAM1": 0.1234, "PARAM2": 1.0, "PARAM3": 0.0, "MODEL_GW": 0, "MODEL_EPS0": 8.47079431, "MODEL_ALPHA": 1.0, "LEPSILON": false, "LRPA": false, "LNABLA": false, "LVEL": false, "CSHIFT": 0.1, "OMEGAMAX": -1.0, "DEG_THRESHOLD": 0.002, "RTIME": -0.1, "WPLASMAI": 0.0, "DFIELD": [0.0, 0.0, 0.0], "WPLASMA": [0.0, 0.0, 0.0, 0.0, 0.0, 0.0, 0.0, 0.0, 0.0], "NUCIND": false, "MAGPOS": [0.0, 0.0, 0.0], "LNICSALL": true, "ORBITALMAG": false, "LMAGBLOCH": false, "LCHIMAG": false, "LGAUGE": true, "MAGATOM": 0, "MAGDIPOL": [0.0, 0.0, 0.0], "AVECCONST": [0.0, 0.0, 0.0], "LFINITE_TEMPERATURE": false, "LADDER": false, "LRPAFORCE": false, "LFXC": false, "LHARTREE": true, "IBSE": 0, "KPOINT": [-1, 0, 0, 0], "LTCTC": false, "LTCTE": false, "LTETE": false, "LTRIPLET": false, "LFXCEPS": false, "LFXHEG": false, "NATURALO": 2, "LHOLEGF": false, "L2ORDER": false, "LDMP1": false, "LMP2LT": false, "LSMP2LT": false, "LGWLF": false, "ENCUTGW": -2.0, "ENCUTGWSOFT": -2.0, "ENCUTLF": -1.0, "LESF_SPLINES": false, "LMAXMP2": -1, "SCISSOR": 0.0, "NOMEGA": 0, "NOMEGAR": 0, "NBANDSGW": -1, "NBANDSO": -1, "NBANDSV": -1, "NELMGW": 1, "NELMHF": 1, "DIM": 3, "IESPILON": 4, "ANTIRES": 0, "OMEGAMIN": -30.0, "OMEGATL": -200.0, "OMEGAGRID": 0, "LSELFENERGY": false, "LSPECTRAL": false, "LSPECTRALGW": false, "LSINGLES": false, "LFERMIGW": false, "ODDONLYGW": false, "EVENONLYGW": false, "NKREDLFX": 1, "NKREDLFY": 1, "NKREDLFZ": 1, "MAXMEM": 2800, "TELESCOPE": 0, "NTAUPAR": -1, "NOMEGAPAR": -1, "DAMP_NEWTON": 0.80000001, "LAMBDA": 1.0, "OFIELD_KAPPA": 0.0, "OFIELD_K": [0.0, 0.0, 0.0], "OFIELD_Q6_NEAR": 0.0, "OFIELD_Q6_FAR": 0.0, "OFIELD_A": 0.0, "KPOINTS_OPT_MODE": 1, "LKPOINTS_OPT": false, "@module": "pymatgen.io.vasp.inputs", "@class": "Incar"}, "relaxed_structures": {"@module": "pymatgen.core.structure", "@class": "Structure", "charge": 0, "lattice": {"matrix": [[9.132688, 0.0, 0.0], [4.435089, 8.143568, 0.0], [0.0, 0.0, 30.37242862]], "a": 9.132688, "b": 9.27295606635473, "c": 30.37242862, "alpha": 90.0, "beta": 90.0, "gamma": 61.42673605530538, "volume": 2258.878481794806}, "sites": [{"species": [{"element": "Na", "occu": 1}], "abc": [0.27380424, 0.57909647, 0.99634485], "xyz": [5.0689130810329495, 4.71591148200496, 30.261412837529605], "label": "Na", "properties": {}}, {"species": [{"element": "Na", "occu": 1}], "abc": [0.85200882, 0.26210195, 0.1528232], "xyz": [8.943576201631709, 2.1344450527576, 4.641611733479984], "label": "Na", "properties": {}}, {"species": [{"element": "Na", "occu": 1}], "abc": [0.86332811, 0.96188814, 0.05903734], "xyz": [12.15056577920414, 7.83320147648352, 1.7931073950646708], "label": "Na", "properties": {}}, {"species": [{"element": "Na", "occu": 1}], "abc": [0.27382104, 0.96912117, 0.15440874], "xyz": [6.79886076688965, 7.8921041481345595, 4.689768433954138], "label": "Na", "properties": {}}, {"species": [{"element": "Na", "occu": 1}], "abc": [0.37686741, 0.42386191, 0.11237672], "xyz": [5.32167776745807, 3.45174828669488, 3.4131539067497263], "label": "Na", "properties": {}}, {"species": [{"element": "Na", "occu": 1}], "abc": [0.31197392, 0.80712308, 0.26983852], "xyz": [6.42882316925108, 6.57286168634944, 8.195651187626444], "label": "Na", "properties": {}}, {"species": [{"element": "Na", "occu": 1}], "abc": [0.6914716, 0.92057815, 0.22612693], "xyz": [10.39784041036615, 7.4967907638392, 6.868024040484737], "label": "Na", "properties": {}}, {"species": [{"element": "Na", "occu": 1}], "abc": [0.17703025, 0.81894823, 0.46644376], "xyz": [5.24887032625447, 6.66916059948464, 14.167029805844411], "label": "Na", "properties": {}}, {"species": [{"element": "Na", "occu": 1}], "abc": [0.16405658, 0.43915618, 0.34324955], "xyz": [3.44597430268706, 3.57629821445024, 10.425322456222121], "label": "Na", "properties": {}}, {"species": [{"element": "Na", "occu": 1}], "abc": [0.62827672, 0.27092984, 0.38770442], "xyz": [6.93945321457912, 2.20633557526912, 11.775524822108501], "label": "Na", "properties": {}}, {"species": [{"element": "Na", "occu": 1}], "abc": [0.74027191, 0.7390498, 0.34579069], "xyz": [10.038424027626279, 6.0185023016864, 10.502503049485549], "label": "Na", "properties": {}}, {"species": [{"element": "Na", "occu": 1}], "abc": [0.67209329, 0.13905231, 0.49391793], "xyz": [6.75472769496911, 1.1323819420420802, 15.001487073063156], "label": "Na", "properties": {}}, {"species": [{"element": "Na", "occu": 1}], "abc": [0.12598934, 0.22081851, 0.49592169], "xyz": [2.12997107824331, 1.79825055184368, 15.062346130634769], "label": "Na", "properties": {}}, {"species": [{"element": "Na", "occu": 1}], "abc": [0.54835412, 0.53861722, 0.65259988], "xyz": [7.396762399107139, 4.38626595704096, 19.821043272720566], "label": "Na", "properties": {}}, {"species": [{"element": "Na", "occu": 1}], "abc": [0.53685221, 0.83839151, 0.55883733], "xyz": [8.62124469973487, 6.82749827230768, 16.973246915616386], "label": "Na", "properties": {}}, {"species": [{"element": "Na", "occu": 1}], "abc": [0.12627218, 0.83107339, 0.65430259], "xyz": [4.8390888732015505, 6.76790266445552, 19.872758710656125], "label": "Na", "properties": {}}, {"species": [{"element": "Na", "occu": 1}], "abc": [0.02355266, 0.37605368, 0.61224351], "xyz": [1.8829306349275998, 3.06241871473024, 18.595322305533255], "label": "Na", "properties": {}}, {"species": [{"element": "Na", "occu": 1}], "abc": [0.08757041, 0.99347823, 0.76992475], "xyz": [5.20591760217455, 8.090457522524641, 23.384484512146347], "label": "Na", "properties": {}}, {"species": [{"element": "Na", "occu": 1}], "abc": [0.70905168, 0.87888012, 0.72603798], "xyz": [10.37345932184652, 7.15722002106816, 22.05153672295899], "label": "Na", "properties": {}}, {"species": [{"element": "Na", "occu": 1}], "abc": [0.22270641, 0.9811363, 0.96661726], "xyz": [6.3853349697607795, 7.9899501763184, 29.358513732209982], "label": "Na", "properties": {}}, {"species": [{"element": "Na", "occu": 1}], "abc": [0.23623707, 0.3609841, 0.84336547], "xyz": [3.7584760654290594, 2.9396985652687997, 25.615057538147752], "label": "Na", "properties": {}}, {"species": [{"element": "Na", "occu": 1}], "abc": [0.77167888, 0.52898265, 0.8878348], "xyz": [9.39358757943529, 4.3078061810952, 26.96569908935198], "label": "Na", "properties": {}}, {"species": [{"element": "Na", "occu": 1}], "abc": [0.65968451, 0.06094746, 0.84584434], "xyz": [6.29500021768682, 0.49632978493728, 25.69034684028101], "label": "Na", "properties": {}}, {"species": [{"element": "Na", "occu": 1}], "abc": [0.7278735, 0.66099127, 0.99407305], "xyz": [9.578996689641029, 5.3828273546513605, 30.19241275419069], "label": "Na", "properties": {}}, {"species": [{"element": "Zr", "occu": 1}], "abc": [0.37032034, 0.14505417, 0.03786098], "xyz": [4.02534827904505, 1.18125849707856, 1.1499299125332476], "label": "Zr", "properties": {}}, {"species": [{"element": "Zr", "occu": 1}], "abc": [0.03815804, 0.80045886, 0.16042498], "xyz": [3.89859175895006, 6.51859115761248, 4.872496253914927], "label": "Zr", "properties": {}}, {"species": [{"element": "Zr", "occu": 1}], "abc": [0.61933964, 0.58342163, 0.10239407], "xyz": [8.24376255172739, 4.751133716575841, 3.1099565821862836], "label": "Zr", "properties": {}}, {"species": [{"element": "Zr", "occu": 1}], "abc": [0.29769037, 0.25335364, 0.21065295], "xyz": [3.8423592116885197, 2.06320259538752, 6.39804168746743], "label": "Zr", "properties": {}}, {"species": [{"element": "Zr", "occu": 1}], "abc": [0.71296956, 0.45221408, 0.29023321], "xyz": [8.5169382368304, 3.68263611103744, 8.815087453878471], "label": "Zr", "properties": {}}, {"species": [{"element": "Zr", "occu": 1}], "abc": [0.38837984, 0.1286192, 0.40329216], "xyz": [4.117389503318719, 1.0474192013055998, 12.24896234260562], "label": "Zr", "properties": {}}, {"species": [{"element": "Zr", "occu": 1}], "abc": [0.97618087, 0.9007291, 0.3382614], "xyz": [12.909969040668459, 7.335148675428799, 10.273820226401268], "label": "Zr", "properties": {}}, {"species": [{"element": "Zr", "occu": 1}], "abc": [0.62890776, 0.55948746, 0.44973274], "xyz": [8.22499503234282, 4.55622417565728, 13.65947554372702], "label": "Zr", "properties": {}}, {"species": [{"element": "Zr", "occu": 1}], "abc": [0.02996149, 0.6547594, 0.53763945], "xyz": [3.1775451527717196, 5.3320776975392, 16.32941581842106], "label": "Zr", "properties": {}}, {"species": [{"element": "Zr", "occu": 1}], "abc": [0.36201519, 0.9995063, 0.66029705], "xyz": [7.73907117809142, 8.1395475204784, 20.054825019121573], "label": "Zr", "properties": {}}, {"species": [{"element": "Zr", "occu": 1}], "abc": [0.78052727, 0.21671631, 0.60214592], "xyz": [8.089468155003349, 1.76484400719408, 18.28863397402423], "label": "Zr", "properties": {}}, {"species": [{"element": "Zr", "occu": 1}], "abc": [0.10220042, 0.54670357, 0.71053601], "xyz": [3.3580435388966903, 4.45211769813776, 21.580704245664606], "label": "Zr", "properties": {}}, {"species": [{"element": "Zr", "occu": 1}], "abc": [0.68714358, 0.34777258, 0.79026489], "xyz": [7.8178702714026596, 2.83210965376544, 24.002263962417153], "label": "Zr", "properties": {}}, {"species": [{"element": "Zr", "occu": 1}], "abc": [0.01159071, 0.67138995, 0.90344378], "xyz": [3.08352852008403, 5.4675097123416005, 27.439781720232986], "label": "Zr", "properties": {}}, {"species": [{"element": "Zr", "occu": 1}], "abc": [0.42373277, 0.89940936, 0.83834201], "xyz": [7.8587797428187995, 7.32440128299648, 25.462482857872327], "label": "Zr", "properties": {}}, {"species": [{"element": "Zr", "occu": 1}], "abc": [0.7708416, 0.24054117, 0.94987746], "xyz": [8.10667732733493, 1.95886337469456, 28.850085351596906], "label": "Zr", "properties": {}}, {"species": [{"element": "Si", "occu": 1}], "abc": [0.21969511, 0.85641461, 0.06530816], "xyz": [5.80468191100597, 6.97427061272848, 1.9835674279035393], "label": "Si", "properties": {}}, {"species": [{"element": "Si", "occu": 1}], "abc": [0.06573034, 0.42817981, 0.1158151], "xyz": [2.49931025270701, 3.48691139896208, 3.5175858578681622], "label": "Si", "properties": {}}, {"species": [{"element": "Si", "occu": 1}], "abc": [0.60164323, 0.96758179, 0.12932298], "xyz": [9.785931260331548, 7.87956810242672, 3.9278529789756877], "label": "Si", "properties": {}}, {"species": [{"element": "Si", "occu": 1}], "abc": [0.44152715, 0.55005874, 0.1981138], "xyz": [6.47188917160706, 4.47944075318432, 6.017197249136957], "label": "Si", "properties": {}}, {"species": [{"element": "Si", "occu": 1}], "abc": [0.57001015, 0.15451535, 0.30466368], "xyz": [5.891014185899349, 1.2583062597688, 9.253375873906522], "label": "Si", "properties": {}}, {"species": [{"element": "Si", "occu": 1}], "abc": [0.40375238, 0.7562476, 0.36726296], "xyz": [7.0413699278338395, 6.158553755436801, 11.154668037369916], "label": "Si", "properties": {}}, {"species": [{"element": "Si", "occu": 1}], "abc": [0.95171332, 0.26636882, 0.38286437], "xyz": [9.87307024052914, 2.1691925987497602, 11.62852074896627], "label": "Si", "properties": {}}, {"species": [{"element": "Si", "occu": 1}], "abc": [0.79793411, 0.83731165, 0.43575982], "xyz": [11.00083495967453, 6.818704358967199, 13.235084028414049], "label": "Si", "properties": {}}, {"species": [{"element": "Si", "occu": 1}], "abc": [0.18069159, 0.9433692, 0.56511059], "xyz": [5.83412627755272, 7.6823912293056, 17.163781057181087], "label": "Si", "properties": {}}, {"species": [{"element": "Si", "occu": 1}], "abc": [0.33438655, 0.37185864, 0.61551153], "xyz": [4.70307419636536, 3.0282561212275203, 18.69458000971199], "label": "Si", "properties": {}}, {"species": [{"element": "Si", "occu": 1}], "abc": [0.79828225, 0.83236576, 0.62917225], "xyz": [10.98207895134064, 6.77842716743168, 19.109489252809794], "label": "Si", "properties": {}}, {"species": [{"element": "Si", "occu": 1}], "abc": [0.95804987, 0.25026671, 0.69795317], "xyz": [9.85952568373775, 2.03806397102128, 21.198532835927725], "label": "Si", "properties": {}}, {"species": [{"element": "Si", "occu": 1}], "abc": [0.83024298, 0.64522915, 0.80478395], "xyz": [10.443998806174589, 5.2544674586072, 24.44324307589665], "label": "Si", "properties": {}}, {"species": [{"element": "Si", "occu": 1}], "abc": [0.99607147, 0.04372646, 0.86736404], "xyz": [9.2907407029663, 0.35608940040928, 26.343952392454824], "label": "Si", "properties": {}}, {"species": [{"element": "Si", "occu": 1}], "abc": [0.44829318, 0.53368305, 0.88297809], "xyz": [6.461053570009289, 4.3460842081224005, 26.818189011548938], "label": "Si", "properties": {}}, {"species": [{"element": "Si", "occu": 1}], "abc": [0.60177274, 0.96273313, 0.93591479], "xyz": [9.765609796123691, 7.840082710007841, 28.42600515367729], "label": "Si", "properties": {}}, {"species": [{"element": "P", "occu": 1}], "abc": [0.62916155, 0.338411, 0.041097], "xyz": [7.2468190413253994, 2.755872990448, 1.2482156989961402], "label": "P", "properties": {}}, {"species": [{"element": "P", "occu": 1}], "abc": [0.01975558, 0.10086201, 0.23859589], "xyz": [0.62775353946793, 0.8213766370516801, 7.246736638050372], "label": "P", "properties": {}}, {"species": [{"element": "P", "occu": 1}], "abc": [0.9812904, 0.60992657, 0.26001333], "xyz": [11.66689768200993, 4.96697849780176, 7.897236305673505], "label": "P", "properties": {}}, {"species": [{"element": "P", "occu": 1}], "abc": [0.3422185, 0.40570299, 0.45871828], "xyz": [4.924703656544109, 3.30386988686832, 13.932388215989173], "label": "P", "properties": {}}, {"species": [{"element": "P", "occu": 1}], "abc": [0.77167292, 0.46137137, 0.54082563], "xyz": [9.09367110441089, 3.7572091248481603, 16.42618784304153], "label": "P", "properties": {}}, {"species": [{"element": "P", "occu": 1}], "abc": [0.3800138, 0.69940323, 0.73864839], "xyz": [6.5724630430318705, 5.69563776292464, 22.434545500552925], "label": "P", "properties": {}}, {"species": [{"element": "P", "occu": 1}], "abc": [0.41895169, 0.18972195, 0.75995886], "xyz": [4.66758880534627, 1.5450136009176, 23.081796229486574], "label": "P", "properties": {}}, {"species": [{"element": "P", "occu": 1}], "abc": [0.0575247, 0.3942837, 0.95890937], "xyz": [2.2740384381428997, 3.2108761222416002, 29.12440639337417], "label": "P", "properties": {}}, {"species": [{"element": "O", "occu": 1}], "abc": [0.37353689, 0.68308039, 0.08400517], "xyz": [6.44091819666503, 5.56271160543152, 2.5514410295359657], "label": "O", "properties": {}}, {"species": [{"element": "O", "occu": 1}], "abc": [0.12271407, 0.30979366, 0.15979143], "xyz": [2.4946717682559, 2.52282573617888, 4.853253801762727], "label": "O", "properties": {}}, {"species": [{"element": "O", "occu": 1}], "abc": [0.56422864, 0.06156524, 0.08156325], "xyz": [5.42597144849068, 0.50136071837632, 2.4772739886402153], "label": "O", "properties": {}}, {"species": [{"element": "O", "occu": 1}], "abc": [0.77929685, 0.19396179, 0.01670408], "xyz": [7.9773127916821105, 1.57954102626672, 0.5073434774627696], "label": "O", "properties": {}}, {"species": [{"element": "O", "occu": 1}], "abc": [0.62492686, 0.50375139, 0.02961193], "xyz": [7.941444283723389, 4.10233369955952, 0.8993862302254366], "label": "O", "properties": {}}, {"species": [{"element": "O", "occu": 1}], "abc": [0.46926185, 0.33438177, 0.02560723], "xyz": [5.76863497628033, 2.7230606819553604, 0.7777537653309227], "label": "O", "properties": {}}, {"species": [{"element": "O", "occu": 1}], "abc": [0.65490441, 0.31985422, 0.09128429], "xyz": [7.39961957907966, 2.60475459065696, 2.77252558215238], "label": "O", "properties": {}}, {"species": [{"element": "O", "occu": 1}], "abc": [0.28963878, 0.99142857, 0.05765516], "xyz": [7.042254555533368, 8.073765976937759, 1.751127231674679], "label": "O", "properties": {}}, {"species": [{"element": "O", "occu": 1}], "abc": [0.08075023, 0.59637352, 0.12689867], "xyz": [3.38243629496152, 4.85660831351936, 3.8542207965479354], "label": "O", "properties": {}}, {"species": [{"element": "O", "occu": 1}], "abc": [0.58999898, 0.79948064, 0.12042669], "xyz": [8.9340443968352, 6.51062495652352, 3.657651045967868], "label": "O", "properties": {}}, {"species": [{"element": "O", "occu": 1}], "abc": [0.20500118, 0.33118582, 0.0767999], "xyz": [3.34105040380982, 2.69703424580576, 2.3325994807731383], "label": "O", "properties": {}}, {"species": [{"element": "O", "occu": 1}], "abc": [0.08459928, 0.9191915, 0.10739506], "xyz": [4.849314939808139, 7.485498485272, 3.2618487939906173], "label": "O", "properties": {}}, {"species": [{"element": "O", "occu": 1}], "abc": [0.58925628, 0.50933863, 0.16158491], "xyz": [7.64045591246871, 4.14783376843184, 4.9077261450441245], "label": "O", "properties": {}}, {"species": [{"element": "O", "occu": 1}], "abc": [0.13650595, 0.84199341, 0.01982226], "xyz": [4.98098196225709, 6.85683058988688, 0.6020501769370813], "label": "O", "properties": {}}, {"species": [{"element": "O", "occu": 1}], "abc": [0.788028, 0.92485918, 0.14574311], "xyz": [11.29864663503102, 7.5316536227542406, 4.426572205331809], "label": "O", "properties": {}}, {"species": [{"element": "O", "occu": 1}], "abc": [0.87617338, 0.47216605, 0.10189576], "xyz": [10.09591656797389, 3.8451163354664, 3.0948216972806515], "label": "O", "properties": {}}, {"species": [{"element": "O", "occu": 1}], "abc": [0.27676869, 0.72790731, 0.18758396], "xyz": [5.755975797539309, 5.92776267668208, 5.697380435356935], "label": "O", "properties": {}}, {"species": [{"element": "O", "occu": 1}], "abc": [0.73344517, 0.97579841, 0.31365075], "xyz": [11.026078697125449, 7.94648070612688, 9.526335015984465], "label": "O", "properties": {}}, {"species": [{"element": "O", "occu": 1}], "abc": [0.4150676, 0.68253808, 0.41750782], "xyz": [6.81780002039792, 5.5582952670694405, 12.680726461241807], "label": "O", "properties": {}}, {"species": [{"element": "O", "occu": 1}], "abc": [0.90699452, 0.38407127, 0.33941421], "xyz": [9.98668823366279, 3.12771050409136, 10.30883386583869], "label": "O", "properties": {}}, {"species": [{"element": "O", "occu": 1}], "abc": [0.12238995, 0.43212377, 0.25390369], "xyz": [3.03425660665113, 3.5190293054113604, 7.7116717008796085], "label": "O", "properties": {}}, {"species": [{"element": "O", "occu": 1}], "abc": [0.88093409, 0.28020387, 0.2440833], "xyz": [9.28802529412835, 2.28185926920816, 7.413402606584047], "label": "O", "properties": {}}, {"species": [{"element": "O", "occu": 1}], "abc": [0.9685975, 0.71945088, 0.22021428], "xyz": [12.03672744900832, 5.85889716393984, 6.688442500404694], "label": "O", "properties": {}}, {"species": [{"element": "O", "occu": 1}], "abc": [0.02644565, 0.99422525, 0.27825973], "xyz": [4.650997340204449, 8.096540930691999, 8.451423787245472], "label": "O", "properties": {}}, {"species": [{"element": "O", "occu": 1}], "abc": [0.19583062, 0.08851241, 0.23321609], "xyz": [2.1810203692610504, 0.72080682967888, 7.0833390465604955], "label": "O", "properties": {}}, {"species": [{"element": "O", "occu": 1}], "abc": [0.80787981, 0.61890987, 0.26671856], "xyz": [10.12303460265771, 5.04013461221616, 8.100890425229187], "label": "O", "properties": {}}, {"species": [{"element": "O", "occu": 1}], "abc": [0.98174977, 0.03219747, 0.19587728], "xyz": [9.108812988506589, 0.26220228637296, 5.949268705079754], "label": "O", "properties": {}}, {"species": [{"element": "O", "occu": 1}], "abc": [0.02268738, 0.67543809, 0.30288401], "xyz": [3.20282480621745, 5.50047601570512, 9.199322973864366], "label": "O", "properties": {}}, {"species": [{"element": "O", "occu": 1}], "abc": [0.38349668, 0.40841479, 0.19225447], "xyz": [5.31371147004215, 3.3259536145707203, 5.839235166950932], "label": "O", "properties": {}}, {"species": [{"element": "O", "occu": 1}], "abc": [0.63253469, 0.29371102, 0.30885483], "xyz": [7.079376486927499, 2.39185566371936, 9.380671278117235], "label": "O", "properties": {}}, {"species": [{"element": "O", "occu": 1}], "abc": [0.42140825, 0.92149361, 0.37500602], "xyz": [7.935496241157289, 7.50424587460048, 11.389843574520292], "label": "O", "properties": {}}, {"species": [{"element": "O", "occu": 1}], "abc": [0.93253561, 0.10273667, 0.37237035], "xyz": [8.97220305003331, 0.83664305823856, 11.309791875579418], "label": "O", "properties": {}}, {"species": [{"element": "O", "occu": 1}], "abc": [0.46718382, 0.06575204, 0.16871563], "xyz": [4.55826021603972, 0.53545620887872, 5.124303429253331], "label": "O", "properties": {}}, {"species": [{"element": "O", "occu": 1}], "abc": [0.56046832, 0.63134996, 0.33624064], "xyz": [7.9186755631906, 5.14144133105728, 10.212444837543117], "label": "O", "properties": {}}, {"species": [{"element": "O", "occu": 1}], "abc": [0.43358565, 0.19833329, 0.34478675], "xyz": [4.83942825554001, 1.61514063377872, 10.472010953496785], "label": "O", "properties": {}}, {"species": [{"element": "O", "occu": 1}], "abc": [0.92545136, 0.80068097, 0.39375087], "xyz": [12.002949892612008, 6.520399925500961, 11.959170193137899], "label": "O", "properties": {}}, {"species": [{"element": "O", "occu": 1}], "abc": [0.48233165, 0.15152305, 0.25842576], "xyz": [5.07700268427665, 1.2339382612424, 7.8490179491692516], "label": "O", "properties": {}}, {"species": [{"element": "O", "occu": 1}], "abc": [0.51733954, 0.55839626, 0.24607085], "xyz": [7.20123771925066, 4.54733791425568, 7.4737693270877275], "label": "O", "properties": {}}, {"species": [{"element": "O", "occu": 1}], "abc": [0.13265719, 0.21896348, 0.40497133], "xyz": [2.18263924877644, 1.7831439888966398, 12.299962813571465], "label": "O", "properties": {}}, {"species": [{"element": "O", "occu": 1}], "abc": [0.23022796, 0.79075306, 0.34450486], "xyz": [5.60966032567882, 6.43955131531808, 10.463449269593093], "label": "O", "properties": {}}, {"species": [{"element": "O", "occu": 1}], "abc": [0.63474551, 0.02237394, 0.42742157], "xyz": [5.89616311741154, 0.18220370181791998, 12.981831125473333], "label": "O", "properties": {}}, {"species": [{"element": "O", "occu": 1}], "abc": [0.19845517, 0.55278398, 0.48197801], "xyz": [4.264075298671179, 4.50163393044064, 14.638842705134646], "label": "O", "properties": {}}, {"species": [{"element": "O", "occu": 1}], "abc": [0.35839036, 0.23714781, 0.47384772], "xyz": [4.32483898359277, 1.93122931678608, 14.391906052449746], "label": "O", "properties": {}}, {"species": [{"element": "O", "occu": 1}], "abc": [0.51054763, 0.4051665, 0.46690321], "xyz": [6.45962170124794, 3.299500944072, 14.180984418173871], "label": "O", "properties": {}}, {"species": [{"element": "O", "occu": 1}], "abc": [0.3196916, 0.40152058, 0.40818182], "xyz": [4.70042314665242, 3.2698101466294403, 12.397473191931688], "label": "O", "properties": {}}, {"species": [{"element": "O", "occu": 1}], "abc": [0.72656591, 0.7036888, 0.43349721], "xyz": [9.756422223769281, 5.7305375936384, 13.166363067694151], "label": "O", "properties": {}}, {"species": [{"element": "O", "occu": 1}], "abc": [0.80386423, 0.36191218, 0.42072718], "xyz": [8.94655393543426, 2.94725644785824, 12.778506243043891], "label": "O", "properties": {}}, {"species": [{"element": "O", "occu": 1}], "abc": [0.88071809, 0.8311753, 0.48439857], "xyz": [11.729659962027618, 6.768732575470399, 14.712360990955073], "label": "O", "properties": {}}, {"species": [{"element": "O", "occu": 1}], "abc": [0.02644237, 0.11631399, 0.58389691], "xyz": [0.7573528127856699, 0.94721088691632, 17.734367220413564], "label": "O", "properties": {}}, {"species": [{"element": "O", "occu": 1}], "abc": [0.27669631, 0.49034991, 0.65950412], "xyz": [4.70172656197327, 3.99319783587888, 20.030741809295915], "label": "O", "properties": {}}, {"species": [{"element": "O", "occu": 1}], "abc": [0.8366957, 0.73754322, 0.58152723], "xyz": [10.91235060108818, 6.006233365008961, 17.662394283761323], "label": "O", "properties": {}}, {"species": [{"element": "O", "occu": 1}], "abc": [0.62141369, 0.60615979, 0.51655768], "xyz": [8.36354996657003, 4.93630346873072, 15.689111263912803], "label": "O", "properties": {}}, {"species": [{"element": "O", "occu": 1}], "abc": [0.77571634, 0.29622967, 0.52920147], "xyz": [8.39818026061255, 2.41236646126256, 16.073133873174072], "label": "O", "properties": {}}, {"species": [{"element": "O", "occu": 1}], "abc": [0.93155671, 0.46535375, 0.52535273], "xyz": [10.571502084470229, 3.78963990718, 15.956238292247134], "label": "O", "properties": {}}, {"species": [{"element": "O", "occu": 1}], "abc": [0.74606017, 0.47944285, 0.59104091], "xyz": [8.93990647200061, 3.9043754510888, 17.951347850474846], "label": "O", "properties": {}}, {"species": [{"element": "O", "occu": 1}], "abc": [0.11125311, 0.80800332, 0.55737903], "xyz": [4.59960657915516, 6.58002998064576, 16.92895480295984], "label": "O", "properties": {}}, {"species": [{"element": "O", "occu": 1}], "abc": [0.31975038, 0.20351762, 0.6267859], "xyz": [3.8227992161896203, 1.6573595776681602, 19.03701000777246], "label": "O", "properties": {}}, {"species": [{"element": "O", "occu": 1}], "abc": [0.8084729, 0.00105485, 0.6200642], "xyz": [7.388209105786851, 0.0085902427048, 18.832855654317402], "label": "O", "properties": {}}, {"species": [{"element": "O", "occu": 1}], "abc": [0.19536972, 0.46825522, 0.57642319], "xyz": [3.86100427282194, 3.8132682254249604, 17.5073721931877], "label": "O", "properties": {}}, {"species": [{"element": "O", "occu": 1}], "abc": [0.31577417, 0.880659, 0.60721857], "xyz": [6.7896680167199595, 7.171706451312, 18.442702674063476], "label": "O", "properties": {}}, {"species": [{"element": "O", "occu": 1}], "abc": [0.81026561, 0.2903417, 0.66146449], "xyz": [8.68759429317098, 2.3644173771856, 20.090283007189704], "label": "O", "properties": {}}, {"species": [{"element": "O", "occu": 1}], "abc": [0.26346069, 0.95819705, 0.51960895], "xyz": [6.6557934783221695, 7.8031428340744, 15.781785744188149], "label": "O", "properties": {}}, {"species": [{"element": "O", "occu": 1}], "abc": [0.61198715, 0.87438183, 0.64551738], "xyz": [9.46704893699207, 7.12058789056944, 19.605930547019415], "label": "O", "properties": {}}, {"species": [{"element": "O", "occu": 1}], "abc": [0.52365957, 0.32849406, 0.60149973], "xyz": [6.239319863095499, 2.6751137152060798, 18.269007614374274], "label": "O", "properties": {}}, {"species": [{"element": "O", "occu": 1}], "abc": [0.12309607, 0.07263414, 0.68738258], "xyz": [1.44633687667462, 0.59150105821152, 20.87747834568144], "label": "O", "properties": {}}, {"species": [{"element": "O", "occu": 1}], "abc": [0.66656258, 0.823887, 0.81372666], "xyz": [9.74152024655804, 6.709379808816, 24.71485489704101], "label": "O", "properties": {}}, {"species": [{"element": "O", "occu": 1}], "abc": [0.98448225, 0.11743444, 0.91762126], "xyz": [9.51180142385316, 0.9563353476819201, 27.87038621954446], "label": "O", "properties": {}}, {"species": [{"element": "O", "occu": 1}], "abc": [0.49328733, 0.41569611, 0.8395627], "xyz": [6.34868852404683, 3.38524953912048, 25.499558177764474], "label": "O", "properties": {}}, {"species": [{"element": "O", "occu": 1}], "abc": [0.27763449, 0.36728183, 0.7536445], "xyz": [4.16447677934199, 2.99098455776944, 22.89001378110559], "label": "O", "properties": {}}, {"species": [{"element": "O", "occu": 1}], "abc": [0.51895302, 0.52022382, 0.74428032], "xyz": [7.046674959937739, 4.23647805338976, 22.605600892470758], "label": "O", "properties": {}}, {"species": [{"element": "O", "occu": 1}], "abc": [0.43216552, 0.07973306, 0.72019738], "xyz": [4.3004560758601, 0.64931159595808, 21.874143516361016], "label": "O", "properties": {}}, {"species": [{"element": "O", "occu": 1}], "abc": [0.37269902, 0.80650065, 0.77827549], "xyz": [6.980646028873609, 6.5677928853192, 23.638116766720522], "label": "O", "properties": {}}, {"species": [{"element": "O", "occu": 1}], "abc": [0.20422078, 0.71116522, 0.73315507], "xyz": [5.01916571126122, 5.791422328304961, 22.267700030966104], "label": "O", "properties": {}}, {"species": [{"element": "O", "occu": 1}], "abc": [0.59215942, 0.18115251, 0.76673025], "xyz": [6.211434733544349, 1.47522778355568, 23.287459788919755], "label": "O", "properties": {}}, {"species": [{"element": "O", "occu": 1}], "abc": [0.41807453, 0.76795956, 0.69590435], "xyz": [7.22411324023748, 6.25393089811008, 21.136305196722496], "label": "O", "properties": {}}, {"species": [{"element": "O", "occu": 1}], "abc": [0.37744306, 0.12457511, 0.80288636], "xyz": [3.99957140478007, 1.01448587939248, 24.385608659071625], "label": "O", "properties": {}}, {"species": [{"element": "O", "occu": 1}], "abc": [0.01537079, 0.39244836, 0.69205709], "xyz": [1.8809200338875598, 3.19592990614848, 21.019454566989918], "label": "O", "properties": {}}, {"species": [{"element": "O", "occu": 1}], "abc": [0.76796171, 0.5058221, 0.8090218], "xyz": [9.25692072504338, 4.1191966672528, 24.571956872523916], "label": "O", "properties": {}}, {"species": [{"element": "O", "occu": 1}], "abc": [0.97803145, 0.87867553, 0.87512569], "xyz": [12.829060264709769, 7.15555392849104, 26.579692553053246], "label": "O", "properties": {}}, {"species": [{"element": "O", "occu": 1}], "abc": [0.46725129, 0.69742433, 0.87243196], "xyz": [7.36039922348289, 5.67952245620944, 26.497877430906698], "label": "O", "properties": {}}, {"species": [{"element": "O", "occu": 1}], "abc": [0.9326383, 0.73505102, 0.66867931], "xyz": [11.77751130399118, 5.98593796483936, 20.309414612645853], "label": "O", "properties": {}}, {"species": [{"element": "O", "occu": 1}], "abc": [0.83971403, 0.16849017, 0.83623673], "xyz": [8.416115144787769, 1.37211115672656, 25.39854039134721], "label": "O", "properties": {}}, {"species": [{"element": "O", "occu": 1}], "abc": [0.96654393, 0.60175696, 0.8449151], "xyz": [11.49598982495328, 4.90044872323328, 25.662123564710164], "label": "O", "properties": {}}, {"species": [{"element": "O", "occu": 1}], "abc": [0.47458704, 0.99952769, 0.89380139], "xyz": [8.76724962827793, 8.13972171139792, 27.146918918231783], "label": "O", "properties": {}}, {"species": [{"element": "O", "occu": 1}], "abc": [0.91787354, 0.64814981, 0.7585037], "xyz": [11.25725475695861, 5.27825205192208, 23.037599486255896], "label": "O", "properties": {}}, {"species": [{"element": "O", "occu": 1}], "abc": [0.88236984, 0.24205454, 0.74596734], "xyz": [9.131941877083978, 1.9711876061987201, 22.65683978700127], "label": "O", "properties": {}}, {"species": [{"element": "O", "occu": 1}], "abc": [0.26713177, 0.58128871, 0.90498728], "xyz": [5.017698273842949, 4.73376413751728, 27.486661563807953], "label": "O", "properties": {}}, {"species": [{"element": "O", "occu": 1}], "abc": [0.16970452, 0.00922177, 0.84467504], "xyz": [1.59075780403729, 0.07509811107536, 25.654832359495646], "label": "O", "properties": {}}, {"species": [{"element": "O", "occu": 1}], "abc": [0.76502984, 0.77776309, 0.92758849], "xyz": [10.436227364474929, 6.33376661130512, 28.173115201258586], "label": "O", "properties": {}}, {"species": [{"element": "O", "occu": 1}], "abc": [0.20115534, 0.24737673, 0.98227362], "xyz": [2.93422677383289, 2.01452922237264, 29.834035408759004], "label": "O", "properties": {}}, {"species": [{"element": "O", "occu": 1}], "abc": [0.04143323, 0.56287977, 0.97401097], "xyz": [2.8748186386717696, 4.58384968281936, 29.583078661421965], "label": "O", "properties": {}}, {"species": [{"element": "O", "occu": 1}], "abc": [0.88914374, 0.39488218, 0.96702786], "xyz": [9.87160997738714, 3.21574988481824, 29.370984651401354], "label": "O", "properties": {}}, {"species": [{"element": "O", "occu": 1}], "abc": [0.08015814, 0.39830088, 0.90836851], "xyz": [2.49855913485864, 3.2435903007398403, 27.589357730630756], "label": "O", "properties": {}}, {"species": [{"element": "O", "occu": 1}], "abc": [0.67288366, 0.096572, 0.93377122], "xyz": [6.57354194198608, 0.7864406488960001, 28.360899726860318], "label": "O", "properties": {}}, {"species": [{"element": "O", "occu": 1}], "abc": [0.59592311, 0.43839704, 0.9209046], "xyz": [7.38670972535624, 3.57011610623872, 27.97010922932965], "label": "O", "properties": {}}, {"species": [{"element": "O", "occu": 1}], "abc": [0.51875859, 0.96872458, 0.98450226], "xyz": [9.03404007857754, 7.88887449050144, 29.90172461807868], "label": "O", "properties": {}}]}, "formula": "(Na3Zr2Si2PO12)8.0", "bandgap": 4.294499999999999}