{"miller": "100_0.31", "final_energy": -1207.65918253, "sigma": 0.0578930881599423, "incar_parameters": {"SYSTEM": "unknown system", "LCOMPAT": false, "PREC": "normal", "ENMAX": 520.0, "ENAUG": 605.392, "EDIFF": 1e-05, "IALGO": 38, "IWAVPR": 11, "NBANDS": 624, "NBANDSLOW": -1, "NBANDSHIGH": -1, "NELECT": 1040.0, "TURBO": 0, "IRESTART": 0, "NREBOOT": 0, "NMIN": 0, "EREF": 0.0, "ISMEAR": 0, "SIGMA": 0.05, "KSPACING": 0.5, "KGAMMA": true, "KBLOWUP": true, "LREAL": true, "ROPT": [-0.0005, -0.0005, -0.0005, -0.0005, -0.0005], "LMAXPAW": -100, "LMAXMIX": 4, "NLSPLINE": false, "ISTART": 0, "ICHARG": 2, "INIWAV": 1, "ISPIN": 1, "LNONCOLLINEAR": false, "MAGMOM": [0.6, 0.6, 0.6, 0.6, 0.6, 0.6, 0.6, 0.6, 0.6, 0.6, 0.6, 0.6, 0.6, 0.6, 0.6, 0.6, 0.6, 0.6, 0.6, 0.6, 0.6, 0.6, 0.6, 0.6, 0.6, 0.6, 0.6, 0.6, 0.6, 0.6, 0.6, 0.6, 0.6, 0.6, 0.6, 0.6, 0.6, 0.6, 0.6, 0.6, 0.6, 0.6, 0.6, 0.6, 0.6, 0.6, 0.6, 0.6, 0.6, 0.6, 0.6, 0.6, 0.6, 0.6, 0.6, 0.6, 0.6, 0.6, 0.6, 0.6, 0.6, 0.6, 0.6, 0.6, 0.6, 0.6, 0.6, 0.6, 0.6, 0.6, 0.6, 0.6, 0.6, 0.6, 0.6, 0.6, 0.6, 0.6, 0.6, 0.6, 0.6, 0.6, 0.6, 0.6, 0.6, 0.6, 0.6, 0.6, 0.6, 0.6, 0.6, 0.6, 0.6, 0.6, 0.6, 0.6, 0.6, 0.6, 0.6, 0.6, 0.6, 0.6, 0.6, 0.6, 0.6, 0.6, 0.6, 0.6, 0.6, 0.6, 0.6, 0.6, 0.6, 0.6, 0.6, 0.6, 0.6, 0.6, 0.6, 0.6, 0.6, 0.6, 0.6, 0.6, 0.6, 0.6, 0.6, 0.6, 0.6, 0.6, 0.6, 0.6, 0.6, 0.6, 0.6, 0.6, 0.6, 0.6, 0.6, 0.6, 0.6, 0.6, 0.6, 0.6, 0.6, 0.6, 0.6, 0.6, 0.6, 0.6, 0.6, 0.6, 0.6, 0.6, 0.6, 0.6, 0.6, 0.6, 0.6, 0.6], "NUPDOWN": -1.0, "LSORBIT": false, "SAXIS": [0.0, 0.0, 1.0], "LSPIRAL": false, "QSPIRAL": [0.0, 0.0, 0.0], "LZEROZ": false, "LASPH": false, "LMETAGGA": false, "NELM": 100, "NELMDL": -5, "NELMIN": 6, "ENINI": 520.0, "LDIAG": true, "LSUBROT": false, "WEIMIN": 0.001, "EBREAK": 0.0, "DEPER": 0.3, "NRMM": 4, "TIME": 0.4, "AMIX": 0.4, "BMIX": 1.0, "AMIN": 0.1, "AMIX_MAG": 1.6, "BMIX_MAG": 1.0, "IMIX": 4, "MIXFIRST": false, "MAXMIX": -45, "WC": 100.0, "INIMIX": 1, "MIXPRE": 1, "MREMOVE": 5, "LDIPOL": false, "LMONO": false, "IDIPOL": 0, "EPSILON": 1.0, "DIPOL": [-100.0, -100.0, -100.0], "EFIELD": 0.0, "NGX": 54, "NGY": 54, "NGZ": 180, "NGXF": 108, "NGYF": 108, "NGZF": 360, "ADDGRID": false, "NSW": 150, "IBRION": 2, "MDALGO": 0, "ISIF": 3, "PSTRESS": 0.0, "EDIFFG": -0.01, "NFREE": 1, "POTIM": 0.5, "SMASS": -3.0, "SCALEE": 1.0, "TEBEG": 0.0001, "TEEND": 0.0001, "NBLOCK": 1, "KBLOCK": 150, "NPACO": 256, "APACO": 10.0, "ISYM": 0, "SYMPREC": 1e-05, "LORBIT": 11, "RWIGS": [-1.0, -1.0, -1.0, -1.0, -1.0], "NEDOS": 301, "EMIN": 10.0, "EMAX": -10.0, "EFERMI": 0.0, "NWRITE": 2, "LWAVE": false, "LDOWNSAMPLE": false, "LCHARG": false, "LPARD": false, "LVTOT": false, "LVHAR": false, "LELF": false, "LOPTICS": false, "STM": [0.0, 0.0, 0.0, 0.0, 0.0, 0.0, 0.0], "NPAR": 2, "NSIM": 4, "NBLK": -1, "LPLANE": true, "LSCALAPACK": true, "LSCAAWARE": false, "LSCALU": false, "LASYNC": false, "LORBITALREAL": false, "IDIOT": 3, "PHON_NSTRUCT": -1, "LMUSIC": false, "POMASS": [22.99, 91.224, 28.085, 30.974, 16.0], "DARWINR": [0.0, 0.0, 0.0, 0.0, 0.0], "DARWINV": [1.0, 1.0, 1.0, 1.0, 1.0], "LCORR": true, "GGA_COMPAT": true, "LBERRY": false, "ICORELEVEL": 0, "LDAU": false, "I_CONSTRAINED_M": 0, "GGA": "--", "VOSKOWN": 0, "LHFCALC": false, "PRECFOCK": "", "LSYMGRAD": false, "LHFONE": false, "LRHFCALC": false, "LTHOMAS": false, "LMODELHF": false, "LFOCKACE": false, "ENCUT4O": -1.0, "EXXOEP": 0, "FOURORBIT": 0, "AEXX": 0.0, "HFALPHA": 0.0, "MCALPHA": 0.0, "ALDAX": 1.0, "AGGAX": 1.0, "ALDAC": 1.0, "AGGAC": 1.0, "NKREDX": 1, "NKREDY": 1, "NKREDZ": 1, "SHIFTRED": false, "ODDONLY": false, "EVENONLY": false, "LMAXFOCK": 0, "NMAXFOCKAE": 0, "LFOCKAEDFT": false, "HFSCREEN": 0.0, "HFSCREENC": 0.0, "NBANDSGWLOW": 0, "LUSE_VDW": false, "Zab_VDW": -0.8491, "PARAM1": 0.1234, "PARAM2": 1.0, "PARAM3": 0.0, "MODEL_GW": 0, "MODEL_EPS0": 8.47093768, "MODEL_ALPHA": 1.0, "LEPSILON": false, "LRPA": false, "LNABLA": false, "LVEL": false, "CSHIFT": 0.1, "OMEGAMAX": -1.0, "DEG_THRESHOLD": 0.002, "RTIME": -0.1, "WPLASMAI": 0.0, "DFIELD": [0.0, 0.0, 0.0], "WPLASMA": [0.0, 0.0, 0.0, 0.0, 0.0, 0.0, 0.0, 0.0, 0.0], "NUCIND": false, "MAGPOS": [0.0, 0.0, 0.0], "LNICSALL": true, "ORBITALMAG": false, "LMAGBLOCH": false, "LCHIMAG": false, "LGAUGE": true, "MAGATOM": 0, "MAGDIPOL": [0.0, 0.0, 0.0], "AVECCONST": [0.0, 0.0, 0.0], "LFINITE_TEMPERATURE": false, "LADDER": false, "LRPAFORCE": false, "LFXC": false, "LHARTREE": true, "IBSE": 0, "KPOINT": [-1, 0, 0, 0], "LTCTC": false, "LTCTE": false, "LTETE": false, "LTRIPLET": false, "LFXCEPS": false, "LFXHEG": false, "NATURALO": 2, "LHOLEGF": false, "L2ORDER": false, "LDMP1": false, "LMP2LT": false, "LSMP2LT": false, "LGWLF": false, "ENCUTGW": -2.0, "ENCUTGWSOFT": -2.0, "ENCUTLF": -1.0, "LESF_SPLINES": false, "LMAXMP2": -1, "SCISSOR": 0.0, "NOMEGA": 0, "NOMEGAR": 0, "NBANDSGW": -1, "NBANDSO": -1, "NBANDSV": -1, "NELMGW": 1, "NELMHF": 1, "DIM": 3, "IESPILON": 4, "ANTIRES": 0, "OMEGAMIN": -30.0, "OMEGATL": -200.0, "OMEGAGRID": 0, "LSELFENERGY": false, "LSPECTRAL": false, "LSPECTRALGW": false, "LSINGLES": false, "LFERMIGW": false, "ODDONLYGW": false, "EVENONLYGW": false, "NKREDLFX": 1, "NKREDLFY": 1, "NKREDLFZ": 1, "MAXMEM": 2800, "TELESCOPE": 0, "NTAUPAR": -1, "NOMEGAPAR": -1, "DAMP_NEWTON": 0.80000001, "LAMBDA": 1.0, "OFIELD_KAPPA": 0.0, "OFIELD_K": [0.0, 0.0, 0.0], "OFIELD_Q6_NEAR": 0.0, "OFIELD_Q6_FAR": 0.0, "OFIELD_A": 0.0, "KPOINTS_OPT_MODE": 1, "LKPOINTS_OPT": false, "@module": "pymatgen.io.vasp.inputs", "@class": "Incar"}, "relaxed_structures": {"@module": "pymatgen.core.structure", "@class": "Structure", "charge": 0, "lattice": {"matrix": [[9.132688, 0.0, 0.0], [4.435089, 8.143568, 0.0], [0.0, 0.0, 30.37294269]], "a": 9.132688, "b": 9.27295606635473, "c": 30.37294269, "alpha": 90.0, "beta": 90.0, "gamma": 61.42673605530538, "volume": 2258.916714551088}, "sites": [{"species": [{"element": "Na", "occu": 1}], "abc": [0.18999183, 0.62350454, 0.00603346], "xyz": [4.5004342327431, 5.0775516197987205, 0.1832539348024074], "label": "Na", "properties": {}}, {"species": [{"element": "Na", "occu": 1}], "abc": [0.69903548, 0.32352816, 0.15666498], "xyz": [7.81894912337648, 2.63467357087488, 4.758376459069996], "label": "Na", "properties": {}}, {"species": [{"element": "Na", "occu": 1}], "abc": [0.68540319, 0.94367631, 0.0334883], "xyz": [10.444861910516309, 7.68489220047408, 1.017138216685527], "label": "Na", "properties": {}}, {"species": [{"element": "Na", "occu": 1}], "abc": [0.12256723, 0.02324102, 0.15422537], "xyz": [1.22244426276502, 0.18926482675936002, 4.684278324354045], "label": "Na", "properties": {}}, {"species": [{"element": "Na", "occu": 1}], "abc": [0.23423205, 0.49148595, 0.11219468], "xyz": [4.31895216274995, 4.0024492548696005, 3.407682585762889], "label": "Na", "properties": {}}, {"species": [{"element": "Na", "occu": 1}], "abc": [0.17138128, 0.84113336, 0.27396458], "xyz": [5.29567307174968, 6.84982671422848, 8.32111048742992], "label": "Na", "properties": {}}, {"species": [{"element": "Na", "occu": 1}], "abc": [0.55040442, 0.95629973, 0.23013467], "xyz": [9.26794625490693, 7.787691879636641, 6.989867142892062], "label": "Na", "properties": {}}, {"species": [{"element": "Na", "occu": 1}], "abc": [0.9993266, 0.80102688, 0.44114206], "xyz": [12.679163552093119, 6.52321686710784, 13.39878250652854], "label": "Na", "properties": {}}, {"species": [{"element": "Na", "occu": 1}], "abc": [0.01084294, 0.50117865, 0.34743753], "xyz": [2.32179710567257, 4.0813824164231995, 10.552700187045154], "label": "Na", "properties": {}}, {"species": [{"element": "Na", "occu": 1}], "abc": [0.48610376, 0.33877694, 0.38773346], "xyz": [5.94193985575454, 2.7588530477219204, 11.776606159575406], "label": "Na", "properties": {}}, {"species": [{"element": "Na", "occu": 1}], "abc": [0.58875911, 0.7938204, 0.34558967], "xyz": [8.89761738280328, 6.4645304071872, 10.496575241166012], "label": "Na", "properties": {}}, {"species": [{"element": "Na", "occu": 1}], "abc": [0.5882628, 0.18324793, 0.50385806], "xyz": [6.1851414930221695, 1.4922919788142401, 15.30365198027458], "label": "Na", "properties": {}}, {"species": [{"element": "Na", "occu": 1}], "abc": [0.13500585, 0.10120537, 0.50607234], "xyz": [1.68182112945273, 0.8241728125601601, 15.370906179814193], "label": "Na", "properties": {}}, {"species": [{"element": "Na", "occu": 1}], "abc": [0.62628115, 0.40132403, 0.65667617], "xyz": [7.499538134119869, 3.26820952833904, 19.945187677298698], "label": "Na", "properties": {}}, {"species": [{"element": "Na", "occu": 1}], "abc": [0.63978071, 0.78124512, 0.5335004], "xyz": [9.30780925086416, 6.362122759388161, 16.203977074292077], "label": "Na", "properties": {}}, {"species": [{"element": "Na", "occu": 1}], "abc": [0.20250483, 0.70167693, 0.65422494], "xyz": [4.961413064679809, 5.71415379348624, 19.870736608988686], "label": "Na", "properties": {}}, {"species": [{"element": "Na", "occu": 1}], "abc": [0.09042749, 0.23374879, 0.61235467], "xyz": [1.86254274008543, 1.9035491662827202, 18.599013297863863], "label": "Na", "properties": {}}, {"species": [{"element": "Na", "occu": 1}], "abc": [0.15360334, 0.88259755, 0.77391028], "xyz": [5.317210065409869, 7.1874931650584, 23.50593258164185], "label": "Na", "properties": {}}, {"species": [{"element": "Na", "occu": 1}], "abc": [0.77399956, 0.76935014, 0.73013804], "xyz": [10.48083283667974, 6.26525518089952, 22.176440844708928], "label": "Na", "properties": {}}, {"species": [{"element": "Na", "occu": 1}], "abc": [0.32579004, 0.92438105, 0.94104025], "xyz": [7.0750510154909705, 7.5277599385864, 28.582161582233272], "label": "Na", "properties": {}}, {"species": [{"element": "Na", "occu": 1}], "abc": [0.31426271, 0.22456211, 0.84713051], "xyz": [3.86601622434227, 1.82873681300848, 25.72984643118047], "label": "Na", "properties": {}}, {"species": [{"element": "Na", "occu": 1}], "abc": [0.83913054, 0.38654802, 0.88759439], "xyz": [9.3778922845653, 3.14788008613536, 26.958853539435506], "label": "Na", "properties": {}}, {"species": [{"element": "Na", "occu": 1}], "abc": [0.73606756, 0.93180819, 0.84559772], "xyz": [10.854927625980189, 7.588243358221921, 25.683291088354665], "label": "Na", "properties": {}}, {"species": [{"element": "Na", "occu": 1}], "abc": [0.7362231, 0.54171746, 0.00371256], "xyz": [9.12626101864674, 4.41151297229728, 0.1127613721131864], "label": "Na", "properties": {}}, {"species": [{"element": "Zr", "occu": 1}], "abc": [0.23348077, 0.20300093, 0.05014712], "xyz": [3.03263421804253, 1.6531518775182399, 1.5231156018285528], "label": "Zr", "properties": {}}, {"species": [{"element": "Zr", "occu": 1}], "abc": [0.88639519, 0.8618976, 0.16170255], "xyz": [11.91776327985712, 7.0189217146368, 4.9113822839768595], "label": "Zr", "properties": {}}, {"species": [{"element": "Zr", "occu": 1}], "abc": [0.4741173, 0.63396001, 0.09661383], "xyz": [7.14163444309329, 5.16269645071568, 2.9344463216514023], "label": "Zr", "properties": {}}, {"species": [{"element": "Zr", "occu": 1}], "abc": [0.14965567, 0.31036114, 0.20978711], "xyz": [2.74323781958242, 2.5274470481475197, 6.371851869130726], "label": "Zr", "properties": {}}, {"species": [{"element": "Zr", "occu": 1}], "abc": [0.56482165, 0.50941306, 0.28947619], "xyz": [7.417632163957539, 4.14843989419808, 8.79224372898955], "label": "Zr", "properties": {}}, {"species": [{"element": "Zr", "occu": 1}], "abc": [0.24321885, 0.17933994, 0.39781869], "xyz": [3.01663046792346, 1.46046699650592, 12.082924272380875], "label": "Zr", "properties": {}}, {"species": [{"element": "Zr", "occu": 1}], "abc": [0.82461104, 0.96213568, 0.33967494], "xyz": [11.79807272055104, 7.835217335306241, 10.316927485849188], "label": "Zr", "properties": {}}, {"species": [{"element": "Zr", "occu": 1}], "abc": [0.49237088, 0.61725724, 0.46235699], "xyz": [7.2342604226198, 5.026676307432321, 14.043142359590902], "label": "Zr", "properties": {}}, {"species": [{"element": "Zr", "occu": 1}], "abc": [0.09131856, 0.52150712, 0.55017865], "xyz": [3.1469144084229597, 4.24692869420416, 16.71054460571157], "label": "Zr", "properties": {}}, {"species": [{"element": "Zr", "occu": 1}], "abc": [0.4386862, 0.8630186, 0.66165682], "xyz": [7.833948494161, 7.0280506543648, 20.096464674307647], "label": "Zr", "properties": {}}, {"species": [{"element": "Zr", "occu": 1}], "abc": [0.85086197, 0.09084396, 0.59667936], "xyz": [8.1735579507878, 0.73979396564928, 18.122908005585877], "label": "Zr", "properties": {}}, {"species": [{"element": "Zr", "occu": 1}], "abc": [0.17532602, 0.41469845, 0.70978027], "xyz": [3.44042237285381, 3.3771250270696, 21.558115463202725], "label": "Zr", "properties": {}}, {"species": [{"element": "Zr", "occu": 1}], "abc": [0.76009103, 0.21584892, 0.78933621], "xyz": [7.89898339934252, 1.75778035774656, 23.974463469471804], "label": "Zr", "properties": {}}, {"species": [{"element": "Zr", "occu": 1}], "abc": [0.08171697, 0.54591603, 0.89759467], "xyz": [3.1674817708920298, 4.44570431259504, 27.262591470759464], "label": "Zr", "properties": {}}, {"species": [{"element": "Zr", "occu": 1}], "abc": [0.50051417, 0.76297319, 0.83958791], "xyz": [7.9548937564528694, 6.2133240549419195, 25.500755473646876], "label": "Zr", "properties": {}}, {"species": [{"element": "Zr", "occu": 1}], "abc": [0.83279154, 0.1075684, 0.96217009], "xyz": [8.082700731447119, 0.8759905800512, 29.223937001602142], "label": "Zr", "properties": {}}, {"species": [{"element": "Si", "occu": 1}], "abc": [0.29273208, 0.60770427, 0.19523301], "xyz": [5.36865327736107, 4.9488810466353605, 5.929801023926197], "label": "Si", "properties": {}}, {"species": [{"element": "Si", "occu": 1}], "abc": [0.06438654, 0.92526905, 0.06415096], "xyz": [4.691672766914969, 7.5349914269704, 1.9484534315884825], "label": "Si", "properties": {}}, {"species": [{"element": "Si", "occu": 1}], "abc": [0.91081502, 0.49632065, 0.11702932], "xyz": [10.51941565866161, 4.0418209630792, 3.554524829409671], "label": "Si", "properties": {}}, {"species": [{"element": "Si", "occu": 1}], "abc": [0.45869289, 0.00617096, 0.13273338], "xyz": [4.21646780900376, 0.050253632385279995, 4.031503343789993], "label": "Si", "properties": {}}, {"species": [{"element": "Si", "occu": 1}], "abc": [0.64326082, 0.90571222, 0.43480663], "xyz": [9.89161467577174, 7.37572905200096, 13.206356854222035], "label": "Si", "properties": {}}, {"species": [{"element": "Si", "occu": 1}], "abc": [0.42071256, 0.21310754, 0.30204828], "xyz": [4.78738745463234, 1.7354557433027202, 9.174095098053073], "label": "Si", "properties": {}}, {"species": [{"element": "Si", "occu": 1}], "abc": [0.26086215, 0.79512608, 0.37082114], "xyz": [5.90882755798032, 6.47516330105344, 11.262929233460467], "label": "Si", "properties": {}}, {"species": [{"element": "Si", "occu": 1}], "abc": [0.79694996, 0.33448118, 0.38448594], "xyz": [8.7617491384175, 2.72387023405024, 11.67796942073078], "label": "Si", "properties": {}}, {"species": [{"element": "Si", "occu": 1}], "abc": [0.03261521, 0.11686375, 0.69533493], "xyz": [0.81616566910823, 0.95168789486, 21.119367979245162], "label": "Si", "properties": {}}, {"species": [{"element": "Si", "occu": 1}], "abc": [0.26022003, 0.79932164, 0.56415058], "xyz": [5.921570958366599, 6.509330129211521, 17.134913234870258], "label": "Si", "properties": {}}, {"species": [{"element": "Si", "occu": 1}], "abc": [0.41418904, 0.22886826, 0.61715607], "xyz": [4.79771037771466, 1.86380423835168, 18.744845944895626], "label": "Si", "properties": {}}, {"species": [{"element": "Si", "occu": 1}], "abc": [0.86633691, 0.71838608, 0.63271031], "xyz": [11.0980909030752, 5.85022589273344, 19.217273985002134], "label": "Si", "properties": {}}, {"species": [{"element": "Si", "occu": 1}], "abc": [0.68200876, 0.81901195, 0.9347413], "xyz": [9.86096410866043, 6.669679507637601, 28.390843934876095], "label": "Si", "properties": {}}, {"species": [{"element": "Si", "occu": 1}], "abc": [0.90390082, 0.51254476, 0.80189065], "xyz": [10.5282257990878, 4.17394310610368, 24.35577875609685], "label": "Si", "properties": {}}, {"species": [{"element": "Si", "occu": 1}], "abc": [0.06402174, 0.93007917, 0.87070676], "xyz": [4.70967447263325, 7.57416296627856, 26.445926521275585], "label": "Si", "properties": {}}, {"species": [{"element": "Si", "occu": 1}], "abc": [0.52816166, 0.39054949, 0.88419997], "xyz": [6.555657401396689, 3.18046632918032, 26.855755015309715], "label": "Si", "properties": {}}, {"species": [{"element": "P", "occu": 1}], "abc": [0.52009989, 0.35685336, 0.04114119], "xyz": [6.33258643575336, 2.90605960318848, 1.249579006068401], "label": "P", "properties": {}}, {"species": [{"element": "P", "occu": 1}], "abc": [0.88156909, 0.15240473, 0.2400442], "xyz": [8.727023990984891, 1.24111828227664, 7.290848729666898], "label": "P", "properties": {}}, {"species": [{"element": "P", "occu": 1}], "abc": [0.84269962, 0.66204464, 0.26141103], "xyz": [10.632339607551518, 5.39140554487552, 7.93982223272387], "label": "P", "properties": {}}, {"species": [{"element": "P", "occu": 1}], "abc": [0.23397678, 0.42406476, 0.45912142], "xyz": [4.01760188334828, 3.45340020946368, 13.94486857741142], "label": "P", "properties": {}}, {"species": [{"element": "P", "occu": 1}], "abc": [0.80459272, 0.36784633, 0.54120968], "xyz": [8.97952549070473, 2.99558160190544, 16.43813059391324], "label": "P", "properties": {}}, {"species": [{"element": "P", "occu": 1}], "abc": [0.44373227, 0.57256134, 0.73994509], "xyz": [6.59182887830102, 4.66269220646112, 22.47430981231689], "label": "P", "properties": {}}, {"species": [{"element": "P", "occu": 1}], "abc": [0.48217497, 0.06341702, 0.76136819], "xyz": [4.684813690234139, 0.51644081472736, 23.12499240085903], "label": "P", "properties": {}}, {"species": [{"element": "P", "occu": 1}], "abc": [0.09165039, 0.30095008, 0.95888871], "xyz": [2.17175480630544, 2.45080744108544, 29.124271834918027], "label": "P", "properties": {}}, {"species": [{"element": "O", "occu": 1}], "abc": [0.12914967, 0.78642803, 0.18631242], "xyz": [4.667361946557629, 6.40433013941104, 5.65885645509521], "label": "O", "properties": {}}, {"species": [{"element": "O", "occu": 1}], "abc": [0.22755623, 0.74029199, 0.07248937], "xyz": [5.36146091268335, 6.02861816042032, 2.201715480644205], "label": "O", "properties": {}}, {"species": [{"element": "O", "occu": 1}], "abc": [0.95579759, 0.37843859, 0.16045894], "xyz": [10.40741000830643, 3.0818403914891204, 4.873610188718148], "label": "O", "properties": {}}, {"species": [{"element": "O", "occu": 1}], "abc": [0.44698947, 0.07982696, 0.08246734], "xyz": [4.4362550409948005, 0.6500762769932801, 2.5047757916167446], "label": "O", "properties": {}}, {"species": [{"element": "O", "occu": 1}], "abc": [0.66361413, 0.20988313, 0.01776943], "xyz": [6.99143116283001, 1.70919754120784, 0.5397098790239666], "label": "O", "properties": {}}, {"species": [{"element": "O", "occu": 1}], "abc": [0.50387043, 0.5254565, 0.02601317], "xyz": [6.932137772744339, 4.279090738792, 0.7900965215952273], "label": "O", "properties": {}}, {"species": [{"element": "O", "occu": 1}], "abc": [0.35168388, 0.35744991, 0.0330679], "xyz": [4.797141314561429, 2.91091764867888, 1.0043694315786509], "label": "O", "properties": {}}, {"species": [{"element": "O", "occu": 1}], "abc": [0.84002444, 0.08719588, 0.19713619], "xyz": [8.05840261112804, 0.7100855780998401, 5.987606200994951], "label": "O", "properties": {}}, {"species": [{"element": "O", "occu": 1}], "abc": [0.54309116, 0.36082687, 0.09166574], "xyz": [6.56018140187951, 2.93841815207216, 2.7841582676564403], "label": "O", "properties": {}}, {"species": [{"element": "O", "occu": 1}], "abc": [0.23029538, 0.46844116, 0.19099932], "xyz": [4.18079408924468, 3.81478244045888, 5.80121140018897], "label": "O", "properties": {}}, {"species": [{"element": "O", "occu": 1}], "abc": [0.13559007, 0.05903283, 0.06625747], "xyz": [1.5001176601800301, 0.48073786533744, 2.012434339094394], "label": "O", "properties": {}}, {"species": [{"element": "O", "occu": 1}], "abc": [0.93005322, 0.65993099, 0.12755425], "xyz": [11.420738556163471, 5.37419289237232, 3.8741979251159324], "label": "O", "properties": {}}, {"species": [{"element": "O", "occu": 1}], "abc": [0.44060059, 0.84111851, 0.12502023], "xyz": [7.75430317248331, 6.849705782243681, 3.797232280880619], "label": "O", "properties": {}}, {"species": [{"element": "O", "occu": 1}], "abc": [0.30240371, 0.130922, 0.16387774], "xyz": [3.34240945553048, 1.066172209696, 4.97744920518672], "label": "O", "properties": {}}, {"species": [{"element": "O", "occu": 1}], "abc": [0.05847644, 0.40081786, 0.07911153], "xyz": [2.3117099637602596, 3.2640874985244803, 2.4028499668082155], "label": "O", "properties": {}}, {"species": [{"element": "O", "occu": 1}], "abc": [0.93721786, 0.96208459, 0.10627061], "xyz": [12.826249085586188, 7.83480128041712, 3.227751147161341], "label": "O", "properties": {}}, {"species": [{"element": "O", "occu": 1}], "abc": [0.42903995, 0.56405174, 0.15509133], "xyz": [6.41990767039046, 4.5933937002083205, 4.7105800778058775], "label": "O", "properties": {}}, {"species": [{"element": "O", "occu": 1}], "abc": [0.98124258, 0.93125595, 0.01558814], "xyz": [13.09158535548459, 7.5837461542296, 0.4734576828636966], "label": "O", "properties": {}}, {"species": [{"element": "O", "occu": 1}], "abc": [0.63237794, 0.97170673, 0.15537359], "xyz": [10.08491625355169, 7.9131598318126395, 4.719153144609557], "label": "O", "properties": {}}, {"species": [{"element": "O", "occu": 1}], "abc": [0.72965732, 0.54399426, 0.09501236], "xyz": [9.076395609065301, 4.43005424791968, 2.885804965121648], "label": "O", "properties": {}}, {"species": [{"element": "O", "occu": 1}], "abc": [0.48911577, 0.07888989, 0.41608369], "xyz": [4.81682540663997, 0.64244518372752, 12.637686070613725], "label": "O", "properties": {}}, {"species": [{"element": "O", "occu": 1}], "abc": [0.58571552, 0.03534377, 0.31254778], "xyz": [5.50590986646329, 0.28782439437136, 9.492995809826727], "label": "O", "properties": {}}, {"species": [{"element": "O", "occu": 1}], "abc": [0.29911891, 0.70033081, 0.41846447], "xyz": [5.83778915172217, 5.70319157373008, 12.709997365111223], "label": "O", "properties": {}}, {"species": [{"element": "O", "occu": 1}], "abc": [0.73910608, 0.45315711, 0.34052094], "xyz": [8.75981734137583, 3.69031573996848, 10.342622995364929], "label": "O", "properties": {}}, {"species": [{"element": "O", "occu": 1}], "abc": [0.98148381, 0.48280393, 0.25579716], "xyz": [11.10486381288105, 3.93174663462224, 7.769312480944761], "label": "O", "properties": {}}, {"species": [{"element": "O", "occu": 1}], "abc": [0.7403728, 0.33004206, 0.24635636], "xyz": [8.225359695929741, 2.68771995847008, 7.482567603597008], "label": "O", "properties": {}}, {"species": [{"element": "O", "occu": 1}], "abc": [0.83549802, 0.76902455, 0.22177024], "xyz": [11.041035063712709, 6.2626037165944, 6.735814789867545], "label": "O", "properties": {}}, {"species": [{"element": "O", "occu": 1}], "abc": [0.89471585, 0.04250529, 0.27980737], "xyz": [8.35967545082561, 0.34614471947472003, 8.498573213249625], "label": "O", "properties": {}}, {"species": [{"element": "O", "occu": 1}], "abc": [0.05484212, 0.1437049, 0.23327786], "xyz": [1.13819999245466, 1.1702706250832, 7.085335072625843], "label": "O", "properties": {}}, {"species": [{"element": "O", "occu": 1}], "abc": [0.66683203, 0.67402294, 0.26692839], "xyz": [9.0793206053383, 5.488951645449919, 8.107400691803969], "label": "O", "properties": {}}, {"species": [{"element": "O", "occu": 1}], "abc": [0.20854937, 0.44210075, 0.40891461], "xyz": [3.86537250202331, 3.600277520476, 12.419940014633701], "label": "O", "properties": {}}, {"species": [{"element": "O", "occu": 1}], "abc": [0.88106294, 0.73051996, 0.3041147], "xyz": [11.28639397825916, 5.94903896961728, 9.236858354286543], "label": "O", "properties": {}}, {"species": [{"element": "O", "occu": 1}], "abc": [0.57362648, 0.77051919, 0.44259866], "xyz": [8.65607285423615, 6.27477541906992, 13.443023734850794], "label": "O", "properties": {}}, {"species": [{"element": "O", "occu": 1}], "abc": [0.47808801, 0.35518962, 0.30799909], "xyz": [5.941526208447059, 2.89251082336416, 9.35483870914215], "label": "O", "properties": {}}, {"species": [{"element": "O", "occu": 1}], "abc": [0.27132511, 0.96366352, 0.3799097], "xyz": [6.75186105344896, 7.84765940423936, 11.538975545475093], "label": "O", "properties": {}}, {"species": [{"element": "O", "occu": 1}], "abc": [0.78230052, 0.1662011, 0.37314419], "xyz": [7.88162324179566, 1.3534699595247999, 11.33348709797647], "label": "O", "properties": {}}, {"species": [{"element": "O", "occu": 1}], "abc": [0.65801587, 0.43058001, 0.42359974], "xyz": [7.919114305729449, 3.50645759087568, 12.8659706265189], "label": "O", "properties": {}}, {"species": [{"element": "O", "occu": 1}], "abc": [0.39503022, 0.69778409, 0.33129096], "xyz": [6.7024222917653695, 5.68245218623312, 10.062281341795083], "label": "O", "properties": {}}, {"species": [{"element": "O", "occu": 1}], "abc": [0.27304097, 0.25315626, 0.33855413], "xyz": [3.6163685342344998, 2.0615952179356802, 10.28288518795281], "label": "O", "properties": {}}, {"species": [{"element": "O", "occu": 1}], "abc": [0.77821178, 0.84313461, 0.3926904], "xyz": [10.846542418994929, 6.86612402968848, 11.927163014113175], "label": "O", "properties": {}}, {"species": [{"element": "O", "occu": 1}], "abc": [0.34501535, 0.2049912, 0.25403908], "xyz": [4.0600717629776, 1.6693597766016002, 7.715914417860324], "label": "O", "properties": {}}, {"species": [{"element": "O", "occu": 1}], "abc": [0.38058028, 0.61046292, 0.24148346], "xyz": [6.18317833759252, 4.97134630049856, 7.334563291162907], "label": "O", "properties": {}}, {"species": [{"element": "O", "occu": 1}], "abc": [0.9863091, 0.29101696, 0.39840921], "xyz": [10.29833939997024, 2.36991640291328, 12.100860102498174], "label": "O", "properties": {}}, {"species": [{"element": "O", "occu": 1}], "abc": [0.07448122, 0.83723938, 0.35453233], "xyz": [4.393444908724179, 6.81811582330784, 10.768190140842167], "label": "O", "properties": {}}, {"species": [{"element": "O", "occu": 1}], "abc": [0.08342104, 0.5686386, 0.48336607], "xyz": [3.28382113079092, 4.6307471065248, 14.681249942400527], "label": "O", "properties": {}}, {"species": [{"element": "O", "occu": 1}], "abc": [0.23846094, 0.25873362, 0.47076651], "xyz": [3.3252959971989, 2.10701482835616, 14.298564228601313], "label": "O", "properties": {}}, {"species": [{"element": "O", "occu": 1}], "abc": [0.39366916, 0.42836354, 0.47465213], "xyz": [5.49508803775714, 3.48840761671072, 14.41658194217643], "label": "O", "properties": {}}, {"species": [{"element": "O", "occu": 1}], "abc": [0.7261882, 0.92041797, 0.48029266], "xyz": [10.714185874030928, 7.495486327116961, 14.587901436607654], "label": "O", "properties": {}}, {"species": [{"element": "O", "occu": 1}], "abc": [0.19611025, 0.9382178, 0.68631794], "xyz": [5.9520931712362, 7.6404404531104, 20.845495458738856], "label": "O", "properties": {}}, {"species": [{"element": "O", "occu": 1}], "abc": [0.09692625, 0.98434848, 0.57242539], "xyz": [5.25087031607472, 8.016108782576639, 17.3862435647709], "label": "O", "properties": {}}, {"species": [{"element": "O", "occu": 1}], "abc": [0.36936338, 0.34665739, 0.66058323], "xyz": [4.91073688532315, 2.82302802816752, 20.063856586765088], "label": "O", "properties": {}}, {"species": [{"element": "O", "occu": 1}], "abc": [0.87767693, 0.64460842, 0.58247264], "xyz": [10.87444527933722, 5.24941250164256, 17.691408113213], "label": "O", "properties": {}}, {"species": [{"element": "O", "occu": 1}], "abc": [0.66065169, 0.51509316, 0.51805557], "xyz": [8.31800976933396, 4.19469617479488, 15.734872137845283], "label": "O", "properties": {}}, {"species": [{"element": "O", "occu": 1}], "abc": [0.82046152, 0.19942865, 0.52610897], "xyz": [8.37750289006561, 1.6240607724232001, 15.979477594504928], "label": "O", "properties": {}}, {"species": [{"element": "O", "occu": 1}], "abc": [0.97286334, 0.36737628, 0.5329148], "xyz": [10.514203849146838, 2.99175371776704, 16.18619067905281], "label": "O", "properties": {}}, {"species": [{"element": "O", "occu": 1}], "abc": [0.48522337, 0.63777337, 0.6970317], "xyz": [7.2599753062984895, 5.19375080718416, 21.170903877213274], "label": "O", "properties": {}}, {"species": [{"element": "O", "occu": 1}], "abc": [0.78266455, 0.36350891, 0.59177626], "xyz": [8.76002551195339, 2.96025952719088, 17.97398643028254], "label": "O", "properties": {}}, {"species": [{"element": "O", "occu": 1}], "abc": [0.09506824, 0.25614531, 0.69113766], "xyz": [2.00425582141171, 2.08593674986608, 20.991884538080704], "label": "O", "properties": {}}, {"species": [{"element": "O", "occu": 1}], "abc": [0.18897554, 0.66569, 0.56634786], "xyz": [4.67824904286152, 5.42109178192, 17.201651094384143], "label": "O", "properties": {}}, {"species": [{"element": "O", "occu": 1}], "abc": [0.39515485, 0.06513644, 0.62763104], "xyz": [3.89771186527996, 0.53044302841792, 19.063001608385097], "label": "O", "properties": {}}, {"species": [{"element": "O", "occu": 1}], "abc": [0.88372081, 0.88377938, 0.62498056], "xyz": [11.9903866435021, 7.19711747802784, 18.982498731244107], "label": "O", "properties": {}}, {"species": [{"element": "O", "occu": 1}], "abc": [0.02305018, 0.5936049, 0.66373528], "xyz": [2.8432006646199395, 4.8340618682832, 20.159593620771105], "label": "O", "properties": {}}, {"species": [{"element": "O", "occu": 1}], "abc": [0.26638928, 0.32415846, 0.57925922], "xyz": [3.8705218009875795, 2.63980646178528, 17.5938070917141], "label": "O", "properties": {}}, {"species": [{"element": "O", "occu": 1}], "abc": [0.38751988, 0.76294318, 0.60620394], "xyz": [6.92281906308046, 6.213079666466241, 18.4121975280722], "label": "O", "properties": {}}, {"species": [{"element": "O", "occu": 1}], "abc": [0.89631876, 0.16049168, 0.65519036], "xyz": [8.8975944681864, 1.30697490951424, 19.900059255320468], "label": "O", "properties": {}}, {"species": [{"element": "O", "occu": 1}], "abc": [0.34320252, 0.79347313, 0.51555259], "xyz": [6.65348548663233, 6.46170239032784, 15.658849269751066], "label": "O", "properties": {}}, {"species": [{"element": "O", "occu": 1}], "abc": [0.69275204, 0.75287212, 0.65542821], "xyz": [9.665743100502201, 6.13106530452416, 19.907283459739283], "label": "O", "properties": {}}, {"species": [{"element": "O", "occu": 1}], "abc": [0.59514691, 0.18161123, 0.59508737], "xyz": [6.24075301164355, 1.47896340106864, 18.074554584552825], "label": "O", "properties": {}}, {"species": [{"element": "O", "occu": 1}], "abc": [0.83591478, 0.645676, 0.91605141], "xyz": [10.49777940549264, 5.258106411968, 27.823176977023692], "label": "O", "properties": {}}, {"species": [{"element": "O", "occu": 1}], "abc": [0.73925215, 0.69042571, 0.81245442], "xyz": [9.81345871101739, 5.62252871833328, 24.67663153689719], "label": "O", "properties": {}}, {"species": [{"element": "O", "occu": 1}], "abc": [0.02675187, 0.02384997, 0.91849606], "xyz": [0.35009322172389, 0.19422385249296, 27.8974281913708], "label": "O", "properties": {}}, {"species": [{"element": "O", "occu": 1}], "abc": [0.58526196, 0.27211265, 0.84023735], "xyz": [6.551858699724329, 2.2159678689352003, 25.52048087754747], "label": "O", "properties": {}}, {"species": [{"element": "O", "occu": 1}], "abc": [0.34323242, 0.24273715, 0.75593962], "xyz": [4.21119546720131, 1.9767464871512002, 22.96011075536038], "label": "O", "properties": {}}, {"species": [{"element": "O", "occu": 1}], "abc": [0.58478388, 0.39477109, 0.74612202], "xyz": [7.0914936422464505, 3.21484521584912, 22.661921353207035], "label": "O", "properties": {}}, {"species": [{"element": "O", "occu": 1}], "abc": [0.4889107, 0.95678676, 0.72169171], "xyz": [8.70850331758324, 7.79165804155968, 21.919900947678098], "label": "O", "properties": {}}, {"species": [{"element": "O", "occu": 1}], "abc": [0.43110993, 0.6821988, 0.77971167], "xyz": [6.96280487808504, 5.5555323173184, 23.68213786763419], "label": "O", "properties": {}}, {"species": [{"element": "O", "occu": 1}], "abc": [0.27024127, 0.581648, 0.73325851], "xyz": [5.04768985030576, 4.736690040064, 22.27121870118479], "label": "O", "properties": {}}, {"species": [{"element": "O", "occu": 1}], "abc": [0.65819057, 0.05122274, 0.7667458], "xyz": [6.23822653107602, 0.41713586633632005, 23.288326241198202], "label": "O", "properties": {}}, {"species": [{"element": "O", "occu": 1}], "abc": [0.11726764, 0.28236147, 0.90869588], "xyz": [2.32326701823715, 2.29942983152496, 27.599767885879118], "label": "O", "properties": {}}, {"species": [{"element": "O", "occu": 1}], "abc": [0.4444061, 0.99459961, 0.80410259], "xyz": [8.46976004631209, 8.09958955680848, 24.422961882950563], "label": "O", "properties": {}}, {"species": [{"element": "O", "occu": 1}], "abc": [0.75193326, 0.95412275, 0.94240056], "xyz": [11.09879117357763, 7.769963494972, 28.623478199903907], "label": "O", "properties": {}}, {"species": [{"element": "O", "occu": 1}], "abc": [0.84587093, 0.37093162, 0.80772141], "xyz": [9.37019003957402, 3.02070687082016, 24.53287609541599], "label": "O", "properties": {}}, {"species": [{"element": "O", "occu": 1}], "abc": [0.05246184, 0.76191653, 0.87950474], "xyz": [3.85828523774709, 6.20471907237904, 26.71314706360335], "label": "O", "properties": {}}, {"species": [{"element": "O", "occu": 1}], "abc": [0.5431702, 0.55875151, 0.87305882], "xyz": [7.43871664323199, 4.55023091678768, 26.517365504859026], "label": "O", "properties": {}}, {"species": [{"element": "O", "occu": 1}], "abc": [0.66747223, 0.29369836, 0.92321813], "xyz": [7.39839399100828, 2.39175256614848, 28.04085135285897], "label": "O", "properties": {}}, {"species": [{"element": "O", "occu": 1}], "abc": [0.92956216, 0.02844417, 0.83134569], "xyz": [8.615553609367211, 0.23163703259856003, 25.250414997948507], "label": "O", "properties": {}}, {"species": [{"element": "O", "occu": 1}], "abc": [0.0517106, 0.47166867, 0.83840762], "xyz": [2.56414930605443, 3.84106588761456, 25.4649065931193], "label": "O", "properties": {}}, {"species": [{"element": "O", "occu": 1}], "abc": [0.54692508, 0.88168678, 0.89265419], "xyz": [8.90525545443846, 7.18007624763104, 27.11253455485837], "label": "O", "properties": {}}, {"species": [{"element": "O", "occu": 1}], "abc": [0.97962569, 0.5208432, 0.75391164], "xyz": [11.256601730599519, 4.2415220165375995, 22.89851503504391], "label": "O", "properties": {}}, {"species": [{"element": "O", "occu": 1}], "abc": [0.94495662, 0.11403563, 0.7415856], "xyz": [9.135752152215629, 0.92865690732784, 22.524136928529263], "label": "O", "properties": {}}, {"species": [{"element": "O", "occu": 1}], "abc": [0.33856366, 0.43461186, 0.89807402], "xyz": [5.01953855447362, 3.53929123551648, 27.277150740837914], "label": "O", "properties": {}}, {"species": [{"element": "O", "occu": 1}], "abc": [0.25045589, 0.88727521, 0.85426989], "xyz": [6.22248002497601, 7.22558600734928, 25.946690410762603], "label": "O", "properties": {}}, {"species": [{"element": "O", "occu": 1}], "abc": [0.24180134, 0.15657878, 0.98329689], "xyz": [2.9027370210133396, 1.27510994228704, 29.86562008722523], "label": "O", "properties": {}}, {"species": [{"element": "O", "occu": 1}], "abc": [0.08751459, 0.4662934, 0.97033776], "xyz": [2.86729617503052, 3.7972920108512, 29.472013174422976], "label": "O", "properties": {}}, {"species": [{"element": "O", "occu": 1}], "abc": [0.93178754, 0.29697194, 0.97443867], "xyz": [9.82682186951018, 2.41841118748192, 29.59656987882982], "label": "O", "properties": {}}, {"species": [{"element": "O", "occu": 1}], "abc": [0.59898799, 0.80468414, 0.98026857], "xyz": [9.03921620620558, 6.55300001261152, 29.773641097418253], "label": "O", "properties": {}}]}, "formula": "(Na3Zr2Si2PO12)8.0", "bandgap": 4.293900000000001}