{"miller": "001_0.12", "final_energy": -228.87686772, "gamma": 0.01618221832131616, "work_function": "Not calculated", "ionization_potentail": "Not calculated", "electron_affinity": "Not calculated", "is_stochiometric": true, "incar_parameters": {"SYSTEM": "unknown system", "LCOMPAT": false, "PREC": "normal", "ENMAX": 520.0, "ENAUG": 368.056, "EDIFF": 1e-05, "IALGO": 38, "IWAVPR": 11, "NBANDS": 210, "NBANDSLOW": -1, "NBANDSHIGH": -1, "NELECT": 350.0, "TURBO": 0, "IRESTART": 0, "NREBOOT": 0, "NMIN": 0, "EREF": 0.0, "ISMEAR": 0, "SIGMA": 0.05, "KSPACING": 0.5, "KGAMMA": true, "KBLOWUP": true, "LREAL": true, "ROPT": [-0.0005, -0.0005, -0.0005], "LMAXPAW": -100, "LMAXMIX": 2, "NLSPLINE": false, "ISTART": 0, "ICHARG": 2, "INIWAV": 1, "ISPIN": 1, "LNONCOLLINEAR": false, "MAGMOM": [0.6, 0.6, 0.6, 0.6, 0.6, 0.6, 0.6, 0.6, 0.6, 0.6, 0.6, 0.6, 0.6, 0.6, 0.6, 0.6, 0.6, 0.6, 0.6, 0.6, 0.6, 0.6, 0.6, 0.6, 0.6, 0.6, 0.6, 0.6, 0.6, 0.6, 0.6, 0.6, 0.6, 0.6, 0.6, 0.6, 0.6, 0.6, 0.6, 0.6, 0.6, 0.6, 0.6, 0.6, 0.6, 0.6, 0.6, 0.6, 0.6, 0.6, 0.6, 0.6, 0.6, 0.6, 0.6, 0.6], "NUPDOWN": -1.0, "LSORBIT": false, "SAXIS": [0.0, 0.0, 1.0], "LSPIRAL": false, "QSPIRAL": [0.0, 0.0, 0.0], "LZEROZ": false, "LASPH": false, "LMETAGGA": false, "NELM": 100, "NELMDL": -5, "NELMIN": 6, "ENINI": 520.0, "LDIAG": true, "LSUBROT": false, "WEIMIN": 0.001, "EBREAK": 1e-08, "DEPER": 0.3, "NRMM": 4, "TIME": 0.4, "AMIX": 0.4, "BMIX": 1.0, "AMIN": 0.1, "AMIX_MAG": 1.6, "BMIX_MAG": 1.0, "IMIX": 4, "MIXFIRST": false, "MAXMIX": -45, "WC": 100.0, "INIMIX": 1, "MIXPRE": 1, "MREMOVE": 5, "LDIPOL": false, "LMONO": false, "IDIPOL": 0, "EPSILON": 1.0, "DIPOL": [-100.0, -100.0, -100.0], "EFIELD": 0.0, "NGX": 40, "NGY": 40, "NGZ": 280, "NGXF": 80, "NGYF": 80, "NGZF": 560, "ADDGRID": false, "NSW": 150, "IBRION": 2, "MDALGO": 0, "ISIF": 2, "PSTRESS": 0.0, "EDIFFG": -0.01, "NFREE": 1, "POTIM": 0.5, "SMASS": -3.0, "SCALEE": 1.0, "TEBEG": 0.0001, "TEEND": 0.0001, "NBLOCK": 1, "KBLOCK": 150, "NPACO": 256, "APACO": 10.0, "ISYM": 0, "SYMPREC": 1e-05, "LORBIT": 11, "RWIGS": [-1.0, -1.0, -1.0], "NEDOS": 301, "EMIN": 10.0, "EMAX": -10.0, "EFERMI": 0.0, "NWRITE": 2, "LWAVE": false, "LDOWNSAMPLE": false, "LCHARG": false, "LPARD": false, "LVTOT": false, "LVHAR": false, "LELF": false, "LOPTICS": false, "STM": [0.0, 0.0, 0.0, 0.0, 0.0, 0.0, 0.0], "NPAR": 1, "NSIM": 4, "NBLK": -1, "LPLANE": true, "LSCALAPACK": true, "LSCAAWARE": false, "LSCALU": false, "LASYNC": false, "LORBITALREAL": false, "IDIOT": 3, "PHON_NSTRUCT": -1, "LMUSIC": false, "POMASS": [22.99, 30.974, 32.066], "DARWINR": [0.0, 0.0, 0.0], "DARWINV": [1.0, 1.0, 1.0], "LCORR": true, "GGA_COMPAT": true, "LBERRY": false, "ICORELEVEL": 0, "LDAU": false, "I_CONSTRAINED_M": 0, "GGA": "--", "VOSKOWN": 0, "LHFCALC": false, "PRECFOCK": "", "LSYMGRAD": false, "LHFONE": false, "LRHFCALC": false, "LTHOMAS": false, "LMODELHF": false, "LFOCKACE": false, "ENCUT4O": -1.0, "EXXOEP": 0, "FOURORBIT": 0, "AEXX": 0.0, "HFALPHA": 0.0, "MCALPHA": 0.0, "ALDAX": 1.0, "AGGAX": 1.0, "ALDAC": 1.0, "AGGAC": 1.0, "NKREDX": 1, "NKREDY": 1, "NKREDZ": 1, "SHIFTRED": false, "ODDONLY": false, "EVENONLY": false, "LMAXFOCK": 0, "NMAXFOCKAE": 0, "LFOCKAEDFT": false, "HFSCREEN": 0.0, "HFSCREENC": 0.0, "NBANDSGWLOW": 0, "LUSE_VDW": false, "Zab_VDW": -0.8491, "PARAM1": 0.1234, "PARAM2": 1.0, "PARAM3": 0.0, "MODEL_GW": 0, "MODEL_EPS0": 26.39742296, "MODEL_ALPHA": 1.0, "LEPSILON": false, "LRPA": false, "LNABLA": false, "LVEL": false, "CSHIFT": 0.1, "OMEGAMAX": -1.0, "DEG_THRESHOLD": 0.002, "RTIME": -0.1, "WPLASMAI": 0.0, "DFIELD": [0.0, 0.0, 0.0], "WPLASMA": [0.0, 0.0, 0.0, 0.0, 0.0, 0.0, 0.0, 0.0, 0.0], "NUCIND": false, "MAGPOS": [0.0, 0.0, 0.0], "LNICSALL": true, "ORBITALMAG": false, "LMAGBLOCH": false, "LCHIMAG": false, "LGAUGE": true, "MAGATOM": 0, "MAGDIPOL": [0.0, 0.0, 0.0], "AVECCONST": [0.0, 0.0, 0.0], "LFINITE_TEMPERATURE": false, "LADDER": false, "LRPAFORCE": false, "LFXC": false, "LHARTREE": true, "IBSE": 0, "KPOINT": [-1, 0, 0, 0], "LTCTC": false, "LTCTE": false, "LTETE": false, "LTRIPLET": false, "LFXCEPS": false, "LFXHEG": false, "NATURALO": 2, "LHOLEGF": false, "L2ORDER": false, "LDMP1": false, "LMP2LT": false, "LSMP2LT": false, "LGWLF": false, "ENCUTGW": -2.0, "ENCUTGWSOFT": -2.0, "ENCUTLF": -1.0, "LESF_SPLINES": false, "LMAXMP2": -1, "SCISSOR": 0.0, "NOMEGA": 0, "NOMEGAR": 0, "NBANDSGW": -1, "NBANDSO": -1, "NBANDSV": -1, "NELMGW": 1, "NELMHF": 1, "DIM": 3, "IESPILON": 4, "ANTIRES": 0, "OMEGAMIN": -30.0, "OMEGATL": -200.0, "OMEGAGRID": 0, "LSELFENERGY": false, "LSPECTRAL": false, "LSPECTRALGW": false, "LSINGLES": false, "LFERMIGW": false, "ODDONLYGW": false, "EVENONLYGW": false, "NKREDLFX": 1, "NKREDLFY": 1, "NKREDLFZ": 1, "MAXMEM": 2800, "TELESCOPE": 0, "NTAUPAR": -1, "NOMEGAPAR": -1, "DAMP_NEWTON": 0.80000001, "LAMBDA": 1.0, "OFIELD_KAPPA": 0.0, "OFIELD_K": [0.0, 0.0, 0.0], "OFIELD_Q6_NEAR": 0.0, "OFIELD_Q6_FAR": 0.0, "OFIELD_A": 0.0, "KPOINTS_OPT_MODE": 1, "LKPOINTS_OPT": false, "@module": "pymatgen.io.vasp.inputs", "@class": "Incar"}, "relaxed_structures": {"@module": "pymatgen.core.structure", "@class": "Structure", "charge": 0, "lattice": {"matrix": [[7.00642, 0.0, 0.0], [0.000173, 7.00642, 0.0], [0.0, 0.0, 50.188703]], "a": 7.00642, "b": 7.006420002135827, "c": 50.188703, "alpha": 90.0, "beta": 90.0, "gamma": 89.99858527324173, "volume": 2463.7594762232984}, "sites": [{"species": [{"element": "Na", "occu": 1}], "abc": [0.47140228, 0.49210765, 0.01339334], "xyz": [3.30292749726105, 3.4479128811130004, 0.67219436343802], "label": "Na", "properties": {}}, {"species": [{"element": "Na", "occu": 1}], "abc": [0.49390469, 0.48634312, 0.08459495], "xyz": [3.46058783546956, 3.4075241628304003, 4.24571082084985], "label": "Na", "properties": {}}, {"species": [{"element": "Na", "occu": 1}], "abc": [0.51345478, 0.98282258, 0.09593031], "xyz": [3.5976498679939404, 6.8860677809636, 4.81461783728793], "label": "Na", "properties": {}}, {"species": [{"element": "Na", "occu": 1}], "abc": [0.95423281, 0.52473075, 0.031601370000000004], "xyz": [6.685846623059951, 3.6764840214150003, 1.5860317733231102], "label": "Na", "properties": {}}, {"species": [{"element": "Na", "occu": 1}], "abc": [0.99471357, 0.01042231, 0.032663410000000004], "xyz": [6.96938285417903, 0.0730230812302, 1.6393341834572301], "label": "Na", "properties": {}}, {"species": [{"element": "Na", "occu": 1}], "abc": [0.00787183, 0.99882895, 0.10880558000000001], "xyz": [0.05532614455695, 6.998215131859, 5.46081093936274], "label": "Na", "properties": {}}, {"species": [{"element": "Na", "occu": 1}], "abc": [0.49679447, 0.50096306, 0.15653242], "xyz": [3.48083737710678, 3.5099576028452004, 7.85615913725126], "label": "Na", "properties": {}}, {"species": [{"element": "Na", "occu": 1}], "abc": [0.50204987, 0.50549219, 0.22786868], "xyz": [3.51765970031427, 3.5416905898598, 11.43643350352204], "label": "Na", "properties": {}}, {"species": [{"element": "Na", "occu": 1}], "abc": [0.50580051, 0.00510319, 0.24001636999999998], "xyz": [3.5438516921260703, 0.0357550924798, 12.046110309068109], "label": "Na", "properties": {}}, {"species": [{"element": "Na", "occu": 1}], "abc": [0.99178234, 0.51238816, 0.16889727000000002], "xyz": [6.948932265774481, 3.5900066519872, 8.47673492154081], "label": "Na", "properties": {}}, {"species": [{"element": "Na", "occu": 1}], "abc": [0.00230255, 0.00951205, 0.18044119], "xyz": [0.01613427795565, 0.06664541736099999, 9.056109293876569], "label": "Na", "properties": {}}, {"species": [{"element": "Na", "occu": 1}], "abc": [0.00305982, 0.0045452, 0.25222717], "xyz": [0.021439170364, 0.031845580184, 12.658954523660508], "label": "Na", "properties": {}}, {"species": [{"element": "Na", "occu": 1}], "abc": [0.49264401, 0.50151089, 0.29985677], "xyz": [3.4517576059281705, 3.5137959299138006, 15.049422372069309], "label": "Na", "properties": {}}, {"species": [{"element": "Na", "occu": 1}], "abc": [0.49757482, 0.49343601, 0.37206192], "xyz": [3.48630353477413, 3.4572199291842, 18.673305200489757], "label": "Na", "properties": {}}, {"species": [{"element": "Na", "occu": 1}], "abc": [0.53894726, 0.99396205, 0.38406384], "xyz": [3.7762628168438503, 6.964115586361, 19.275665998799518], "label": "Na", "properties": {}}, {"species": [{"element": "Na", "occu": 1}], "abc": [0.98753404, 0.49291341, 0.31117454], "xyz": [6.9191635225567305, 3.4535583740922, 15.617446569221618], "label": "Na", "properties": {}}, {"species": [{"element": "Na", "occu": 1}], "abc": [0.00563233, 0.99508306, 0.32365986], "xyz": [0.03963461892798, 6.9719698532452, 16.24406858656158], "label": "Na", "properties": {}}, {"species": [{"element": "Na", "occu": 1}], "abc": [0.02743105, 0.00266382, 0.39558867000000003], "xyz": [0.19219391818186, 0.0186638417244, 19.85408226879501], "label": "Na", "properties": {}}, {"species": [{"element": "Na", "occu": 1}], "abc": [0.46325001, 0.48654631, 0.44991048], "xyz": [3.24580830757583, 3.4089477973102, 22.58042345730744], "label": "Na", "properties": {}}, {"species": [{"element": "Na", "occu": 1}], "abc": [0.9252782, 0.50713944, 0.44880016], "xyz": [6.482975421167121, 3.5532319152048, 22.524697936592478], "label": "Na", "properties": {}}, {"species": [{"element": "Na", "occu": 1}], "abc": [0.0239802, 0.9990674, 0.46695655], "xyz": [0.1681881915442, 6.999885812708, 23.43594360185465], "label": "Na", "properties": {}}, {"species": [{"element": "P", "occu": 1}], "abc": [0.4944904, 0.99537952, 0.02267348], "xyz": [3.46477962902496, 6.9740469765184, 1.1379525536964399], "label": "P", "properties": {}}, {"species": [{"element": "P", "occu": 1}], "abc": [0.99634507, 0.49924149, 0.09802446000000001], "xyz": [6.980898394127171, 3.4978955603658, 4.91972050967538], "label": "P", "properties": {}}, {"species": [{"element": "P", "occu": 1}], "abc": [0.50285465, 0.00281392, 0.16829065], "xyz": [3.5232113636611597, 0.019715505366400002, 8.446289450526951], "label": "P", "properties": {}}, {"species": [{"element": "P", "occu": 1}], "abc": [0.00178579, 0.50528184, 0.24000651], "xyz": [0.012599408530120001, 3.5402167894128, 12.04561544845653], "label": "P", "properties": {}}, {"species": [{"element": "P", "occu": 1}], "abc": [0.50473181, 0.00061217, 0.31171685], "xyz": [3.53636315412561, 0.0042891201314, 15.644664404745548], "label": "P", "properties": {}}, {"species": [{"element": "P", "occu": 1}], "abc": [0.99679332, 0.50500153, 0.38220411], "xyz": [6.9840400183790905, 3.5382528198226004, 19.182328562169328], "label": "P", "properties": {}}, {"species": [{"element": "P", "occu": 1}], "abc": [0.52184341, 0.99136753, 0.45802657], "xyz": [3.6564256112748903, 6.9459372895426, 22.98775948783871], "label": "P", "properties": {}}, {"species": [{"element": "S", "occu": 1}], "abc": [0.68063985, 0.15678764, 0.0004857100000000003], "xyz": [4.76887578209872, 1.0985200566488, 0.024377154934130014], "label": "S", "properties": {}}, {"species": [{"element": "S", "occu": 1}], "abc": [0.14867289, 0.68676926, 0.07424265000000001], "xyz": [1.0417835210357802, 4.8117938786492, 3.7261423107829503], "label": "S", "properties": {}}, {"species": [{"element": "S", "occu": 1}], "abc": [0.34396297, 0.17670683, 0.04825217], "xyz": [2.40997960254899, 1.2380822678486, 2.4217138292355096], "label": "S", "properties": {}}, {"species": [{"element": "S", "occu": 1}], "abc": [0.6533763, 0.80064098, 0.045626490000000006], "xyz": [4.57796728673554, 5.6096269750916, 2.2899343555424703], "label": "S", "properties": {}}, {"species": [{"element": "S", "occu": 1}], "abc": [0.30134914, 0.84595687, 9.99999999999994e-05], "xyz": [2.1115249920173103, 5.9271291331054, 0.005018870299999969], "label": "S", "properties": {}}, {"species": [{"element": "S", "occu": 1}], "abc": [0.84779862, 0.30460515, 0.07472091], "xyz": [5.94008590383135, 2.134191615063, 3.75014555987973], "label": "S", "properties": {}}, {"species": [{"element": "S", "occu": 1}], "abc": [0.6905429, 0.15253542, 0.14449535], "xyz": [4.83825997404566, 1.0687272173964, 7.252034206031049], "label": "S", "properties": {}}, {"species": [{"element": "S", "occu": 1}], "abc": [0.15219843, 0.6946993, 0.21647085], "xyz": [1.0664863068994999, 4.867355069506, 10.86439119880755], "label": "S", "properties": {}}, {"species": [{"element": "S", "occu": 1}], "abc": [0.35382904, 0.19192265, 0.19209757], "xyz": [2.47910806505525, 1.344690693413, 9.64112788775171], "label": "S", "properties": {}}, {"species": [{"element": "S", "occu": 1}], "abc": [0.18374801, 0.35143425, 0.12199353000000002], "xyz": [1.28747653034945, 2.4622959578850003, 6.1226970450915905], "label": "S", "properties": {}}, {"species": [{"element": "S", "occu": 1}], "abc": [0.65426095, 0.81342941, 0.19182725], "xyz": [4.58416772858693, 5.699228086812201, 9.62756087755675], "label": "S", "properties": {}}, {"species": [{"element": "S", "occu": 1}], "abc": [0.80279731, 0.65378029, 0.12035575000000001], "xyz": [5.62484823272037, 4.5806592994618, 6.04049899109225], "label": "S", "properties": {}}, {"species": [{"element": "S", "occu": 1}], "abc": [0.31227044, 0.85171942, 0.14490423], "xyz": [2.1880452036844598, 5.9675039786764, 7.272555362913689], "label": "S", "properties": {}}, {"species": [{"element": "S", "occu": 1}], "abc": [0.85145395, 0.31458184, 0.21656725000000002], "xyz": [5.965698407017321, 2.2040924954128003, 10.86922938977675], "label": "S", "properties": {}}, {"species": [{"element": "S", "occu": 1}], "abc": [0.6930738, 0.15622461, 0.28852453], "xyz": [4.855993160653529, 1.0945752319962, 14.48067194438459], "label": "S", "properties": {}}, {"species": [{"element": "S", "occu": 1}], "abc": [0.15648363, 0.68259966, 0.35830435], "xyz": [1.0965081246457802, 4.7825799098172, 17.98283060575805], "label": "S", "properties": {}}, {"species": [{"element": "S", "occu": 1}], "abc": [0.35426237, 0.18435342, 0.33620878], "xyz": [2.48214284755706, 1.2916574889564, 16.873882605412337], "label": "S", "properties": {}}, {"species": [{"element": "S", "occu": 1}], "abc": [0.1913893, 0.35423522, 0.26354943000000003], "xyz": [1.3410151019990602, 2.4819207301124004, 13.227204068089291], "label": "S", "properties": {}}, {"species": [{"element": "S", "occu": 1}], "abc": [0.65495775, 0.80644007, 0.33446178], "xyz": [4.58904859288711, 5.6502578352494, 16.786202941271338], "label": "S", "properties": {}}, {"species": [{"element": "S", "occu": 1}], "abc": [0.81137239, 0.65490154, 0.26348919], "xyz": [5.684929038710221, 4.5885152478868, 13.224180700620568], "label": "S", "properties": {}}, {"species": [{"element": "S", "occu": 1}], "abc": [0.31463264, 0.855169, 0.2876627], "xyz": [2.2045963657858, 5.99167318498, 14.4374178144781], "label": "S", "properties": {}}, {"species": [{"element": "S", "occu": 1}], "abc": [0.85133052, 0.30404893, 0.35992748], "xyz": [5.964831782403291, 2.1302945041306, 18.06429339525844], "label": "S", "properties": {}}, {"species": [{"element": "S", "occu": 1}], "abc": [0.70648735, 0.16014077, 0.4350567], "xyz": [4.9499748031402095, 1.1220134937433999, 21.834931504460098], "label": "S", "properties": {}}, {"species": [{"element": "S", "occu": 1}], "abc": [0.37144007, 0.16458431, 0.48308986000000004], "xyz": [2.6024936083350303, 1.1531468012702002, 24.245653505851582], "label": "S", "properties": {}}, {"species": [{"element": "S", "occu": 1}], "abc": [0.17708354, 0.36389697, 0.40843192], "xyz": [1.2407846105026101, 2.5496150085474, 20.49866832859976], "label": "S", "properties": {}}, {"species": [{"element": "S", "occu": 1}], "abc": [0.68130705, 0.7895395, 0.47831966], "xyz": [4.7736599315945005, 5.53184534359, 24.006243354800976], "label": "S", "properties": {}}, {"species": [{"element": "S", "occu": 1}], "abc": [0.79990234, 0.66679257, 0.40303409], "xyz": [5.60456710813741, 4.6718287982994005, 20.22775824188527], "label": "S", "properties": {}}, {"species": [{"element": "S", "occu": 1}], "abc": [0.33322054, 0.84834854, 0.43269972], "xyz": [2.33482982016422, 5.9438861776268, 21.71663773526316], "label": "S", "properties": {}}]}, "formula": "", "bandgap": 2.3607, "slab_thickness": 24.240634635551583}