{"miller": "100_0.17", "final_energy": -228.9147373, "gamma": 0.015436510797216724, "work_function": 5.431375578092185, "ionization_potentail": -5.702975578092184, "electron_affinity": -3.348275578092185, "is_stochiometric": true, "incar_parameters": {"SYSTEM": "unknown system", "LCOMPAT": false, "PREC": "normal", "ENMAX": 520.0, "ENAUG": 368.056, "EDIFF": 1e-05, "IALGO": 38, "IWAVPR": 11, "NBANDS": 210, "NBANDSLOW": -1, "NBANDSHIGH": -1, "NELECT": 350.0, "TURBO": 0, "IRESTART": 0, "NREBOOT": 0, "NMIN": 0, "EREF": 0.0, "ISMEAR": 0, "SIGMA": 0.05, "KSPACING": 0.5, "KGAMMA": true, "KBLOWUP": true, "LREAL": true, "ROPT": [-0.0005, -0.0005, -0.0005], "LMAXPAW": -100, "LMAXMIX": 2, "NLSPLINE": false, "ISTART": 0, "ICHARG": 2, "INIWAV": 1, "ISPIN": 1, "LNONCOLLINEAR": false, "MAGMOM": [0.6, 0.6, 0.6, 0.6, 0.6, 0.6, 0.6, 0.6, 0.6, 0.6, 0.6, 0.6, 0.6, 0.6, 0.6, 0.6, 0.6, 0.6, 0.6, 0.6, 0.6, 0.6, 0.6, 0.6, 0.6, 0.6, 0.6, 0.6, 0.6, 0.6, 0.6, 0.6, 0.6, 0.6, 0.6, 0.6, 0.6, 0.6, 0.6, 0.6, 0.6, 0.6, 0.6, 0.6, 0.6, 0.6, 0.6, 0.6, 0.6, 0.6, 0.6, 0.6, 0.6, 0.6, 0.6, 0.6], "NUPDOWN": -1.0, "LSORBIT": false, "SAXIS": [0.0, 0.0, 1.0], "LSPIRAL": false, "QSPIRAL": [0.0, 0.0, 0.0], "LZEROZ": false, "LASPH": false, "LMETAGGA": false, "NELM": 100, "NELMDL": -5, "NELMIN": 6, "ENINI": 520.0, "LDIAG": true, "LSUBROT": false, "WEIMIN": 0.001, "EBREAK": 1e-08, "DEPER": 0.3, "NRMM": 4, "TIME": 0.4, "AMIX": 0.4, "BMIX": 1.0, "AMIN": 0.1, "AMIX_MAG": 1.6, "BMIX_MAG": 1.0, "IMIX": 4, "MIXFIRST": false, "MAXMIX": -45, "WC": 100.0, "INIMIX": 1, "MIXPRE": 1, "MREMOVE": 5, "LDIPOL": false, "LMONO": false, "IDIPOL": 0, "EPSILON": 1.0, "DIPOL": [-100.0, -100.0, -100.0], "EFIELD": 0.0, "NGX": 40, "NGY": 40, "NGZ": 280, "NGXF": 80, "NGYF": 80, "NGZF": 560, "ADDGRID": false, "NSW": 150, "IBRION": 2, "MDALGO": 0, "ISIF": 2, "PSTRESS": 0.0, "EDIFFG": -0.01, "NFREE": 1, "POTIM": 0.5, "SMASS": -3.0, "SCALEE": 1.0, "TEBEG": 0.0001, "TEEND": 0.0001, "NBLOCK": 1, "KBLOCK": 150, "NPACO": 256, "APACO": 10.0, "ISYM": 0, "SYMPREC": 1e-05, "LORBIT": 11, "RWIGS": [-1.0, -1.0, -1.0], "NEDOS": 301, "EMIN": 10.0, "EMAX": -10.0, "EFERMI": 0.0, "NWRITE": 2, "LWAVE": false, "LDOWNSAMPLE": false, "LCHARG": false, "LPARD": false, "LVTOT": false, "LVHAR": false, "LELF": false, "LOPTICS": false, "STM": [0.0, 0.0, 0.0, 0.0, 0.0, 0.0, 0.0], "NPAR": 1, "NSIM": 4, "NBLK": -1, "LPLANE": true, "LSCALAPACK": true, "LSCAAWARE": false, "LSCALU": false, "LASYNC": false, "LORBITALREAL": false, "IDIOT": 3, "PHON_NSTRUCT": -1, "LMUSIC": false, "POMASS": [22.99, 30.974, 32.066], "DARWINR": [0.0, 0.0, 0.0], "DARWINV": [1.0, 1.0, 1.0], "LCORR": true, "GGA_COMPAT": true, "LBERRY": false, "ICORELEVEL": 0, "LDAU": false, "I_CONSTRAINED_M": 0, "GGA": "--", "VOSKOWN": 0, "LHFCALC": false, "PRECFOCK": "", "LSYMGRAD": false, "LHFONE": false, "LRHFCALC": false, "LTHOMAS": false, "LMODELHF": false, "LFOCKACE": false, "ENCUT4O": -1.0, "EXXOEP": 0, "FOURORBIT": 0, "AEXX": 0.0, "HFALPHA": 0.0, "MCALPHA": 0.0, "ALDAX": 1.0, "AGGAX": 1.0, "ALDAC": 1.0, "AGGAC": 1.0, "NKREDX": 1, "NKREDY": 1, "NKREDZ": 1, "SHIFTRED": false, "ODDONLY": false, "EVENONLY": false, "LMAXFOCK": 0, "NMAXFOCKAE": 0, "LFOCKAEDFT": false, "HFSCREEN": 0.0, "HFSCREENC": 0.0, "NBANDSGWLOW": 0, "LUSE_VDW": false, "Zab_VDW": -0.8491, "PARAM1": 0.1234, "PARAM2": 1.0, "PARAM3": 0.0, "MODEL_GW": 0, "MODEL_EPS0": 26.39742401, "MODEL_ALPHA": 1.0, "LEPSILON": false, "LRPA": false, "LNABLA": false, "LVEL": false, "CSHIFT": 0.1, "OMEGAMAX": -1.0, "DEG_THRESHOLD": 0.002, "RTIME": -0.1, "WPLASMAI": 0.0, "DFIELD": [0.0, 0.0, 0.0], "WPLASMA": [0.0, 0.0, 0.0, 0.0, 0.0, 0.0, 0.0, 0.0, 0.0], "NUCIND": false, "MAGPOS": [0.0, 0.0, 0.0], "LNICSALL": true, "ORBITALMAG": false, "LMAGBLOCH": false, "LCHIMAG": false, "LGAUGE": true, "MAGATOM": 0, "MAGDIPOL": [0.0, 0.0, 0.0], "AVECCONST": [0.0, 0.0, 0.0], "LFINITE_TEMPERATURE": false, "LADDER": false, "LRPAFORCE": false, "LFXC": false, "LHARTREE": true, "IBSE": 0, "KPOINT": [-1, 0, 0, 0], "LTCTC": false, "LTCTE": false, "LTETE": false, "LTRIPLET": false, "LFXCEPS": false, "LFXHEG": false, "NATURALO": 2, "LHOLEGF": false, "L2ORDER": false, "LDMP1": false, "LMP2LT": false, "LSMP2LT": false, "LGWLF": false, "ENCUTGW": -2.0, "ENCUTGWSOFT": -2.0, "ENCUTLF": -1.0, "LESF_SPLINES": false, "LMAXMP2": -1, "SCISSOR": 0.0, "NOMEGA": 0, "NOMEGAR": 0, "NBANDSGW": -1, "NBANDSO": -1, "NBANDSV": -1, "NELMGW": 1, "NELMHF": 1, "DIM": 3, "IESPILON": 4, "ANTIRES": 0, "OMEGAMIN": -30.0, "OMEGATL": -200.0, "OMEGAGRID": 0, "LSELFENERGY": false, "LSPECTRAL": false, "LSPECTRALGW": false, "LSINGLES": false, "LFERMIGW": false, "ODDONLYGW": false, "EVENONLYGW": false, "NKREDLFX": 1, "NKREDLFY": 1, "NKREDLFZ": 1, "MAXMEM": 2800, "TELESCOPE": 0, "NTAUPAR": -1, "NOMEGAPAR": -1, "DAMP_NEWTON": 0.80000001, "LAMBDA": 1.0, "OFIELD_KAPPA": 0.0, "OFIELD_K": [0.0, 0.0, 0.0], "OFIELD_Q6_NEAR": 0.0, "OFIELD_Q6_FAR": 0.0, "OFIELD_A": 0.0, "KPOINTS_OPT_MODE": 1, "LKPOINTS_OPT": false, "@module": "pymatgen.io.vasp.inputs", "@class": "Incar"}, "relaxed_structures": {"@module": "pymatgen.core.structure", "@class": "Structure", "charge": 0, "lattice": {"matrix": [[7.00642, 0.0, 0.0], [-0.000541, 7.169815, 0.0], [0.0, 0.0, 49.04494]], "a": 7.00642, "b": 7.169815020410638, "c": 49.04494, "alpha": 90.0, "beta": 90.0, "gamma": 90.00432326589427, "volume": 2463.7595744031405}, "sites": [{"species": [{"element": "Na", "occu": 1}], "abc": [0.51436797, 0.42764597, 0.02412436], "xyz": [3.60364667589763, 3.0661424903955496, 1.1831777887384], "label": "Na", "properties": {}}, {"species": [{"element": "Na", "occu": 1}], "abc": [0.49949218, 0.88860712, 0.03236588], "xyz": [3.4991712633436802, 6.3711486580828, 1.5873826426472], "label": "Na", "properties": {}}, {"species": [{"element": "Na", "occu": 1}], "abc": [0.00935965, 0.00526701, 0.02806522], "xyz": [0.06557478950059001, 0.037763487303149997, 1.3764570309867998], "label": "Na", "properties": {}}, {"species": [{"element": "Na", "occu": 1}], "abc": [0.48426179, 0.50030351, 0.09793074], "xyz": [3.3926708264928904, 3.5870836105506494, 4.8030072674556], "label": "Na", "properties": {}}, {"species": [{"element": "Na", "occu": 1}], "abc": [0.99021341, 0.59098652, 0.09854086000000001], "xyz": [6.93753131638488, 4.2372640158938, 4.8329305662484], "label": "Na", "properties": {}}, {"species": [{"element": "Na", "occu": 1}], "abc": [0.00042153, 0.09726306, 0.09884337], "xyz": [0.00290079690714, 0.6973581465338999, 4.847767151047799], "label": "Na", "properties": {}}, {"species": [{"element": "Na", "occu": 1}], "abc": [0.5021147, 0.41823243, 0.17082551], "xyz": [3.51780021262937, 2.9986491501004497, 8.3781268884194], "label": "Na", "properties": {}}, {"species": [{"element": "Na", "occu": 1}], "abc": [0.49832044, 0.91540288, 0.17114371], "xyz": [3.49094706426672, 6.5632693000672, 8.3937329883274], "label": "Na", "properties": {}}, {"species": [{"element": "Na", "occu": 1}], "abc": [0.99752133, 0.99970354, 0.17014584], "xyz": [6.98851255732346, 7.1676894366451, 8.3447925140496], "label": "Na", "properties": {}}, {"species": [{"element": "Na", "occu": 1}], "abc": [0.49985725, 0.49858217, 0.24307754], "xyz": [3.50194010059103, 3.57474192119855, 11.9217233646476], "label": "Na", "properties": {}}, {"species": [{"element": "Na", "occu": 1}], "abc": [0.0002812, 0.58275405, 0.24259228000000002], "xyz": [0.00165493536295, 4.17823872900075, 11.8979238170632], "label": "Na", "properties": {}}, {"species": [{"element": "Na", "occu": 1}], "abc": [0.00108515, 0.08294802, 0.24236041], "xyz": [0.0075581417841800004, 0.5947219580163, 11.886551766825399], "label": "Na", "properties": {}}, {"species": [{"element": "Na", "occu": 1}], "abc": [0.50007559, 0.41638409, 0.31482186999999995], "xyz": [3.5035143514951104, 2.9853968942433498, 15.440419724837797], "label": "Na", "properties": {}}, {"species": [{"element": "Na", "occu": 1}], "abc": [0.50264935, 0.91340639, 0.31423097], "xyz": [3.5212783059700103, 6.54895483611785, 15.411439069791799], "label": "Na", "properties": {}}, {"species": [{"element": "Na", "occu": 1}], "abc": [0.00352252, 0.99945912, 0.31409601], "xyz": [0.02413954719448, 7.1659369904628, 15.404819964689398], "label": "Na", "properties": {}}, {"species": [{"element": "Na", "occu": 1}], "abc": [0.51470964, 0.49714242, 0.38784595], "xyz": [3.60600296183958, 3.5644191800522997, 19.021881346993], "label": "Na", "properties": {}}, {"species": [{"element": "Na", "occu": 1}], "abc": [0.0088094, 0.58773927, 0.38667985], "xyz": [0.061404389402930006, 4.21398183413505, 18.964690042458997], "label": "Na", "properties": {}}, {"species": [{"element": "Na", "occu": 1}], "abc": [0.99907028, 0.0920164, 0.38601729999999995], "xyz": [6.9998562103252, 0.659740564966, 18.932195317461996], "label": "Na", "properties": {}}, {"species": [{"element": "Na", "occu": 1}], "abc": [0.48412973, 0.42325396, 0.46134876999999996], "xyz": [3.39178724247424, 3.0346525912174, 22.626822743723796], "label": "Na", "properties": {}}, {"species": [{"element": "Na", "occu": 1}], "abc": [0.49795798, 0.88523833, 0.45289031999999996], "xyz": [3.48842383629507, 6.346995057008949, 22.211978570980797], "label": "Na", "properties": {}}, {"species": [{"element": "Na", "occu": 1}], "abc": [0.98802263, 0.00010395, 0.45712303], "xyz": [6.92250145904765, 0.00074530226925, 22.4195715789682], "label": "Na", "properties": {}}, {"species": [{"element": "P", "occu": 1}], "abc": [0.01254049, 0.50240687, 0.025384229999999997], "xyz": [0.08759213782913, 3.6021643126290495, 1.2449680372961998], "label": "P", "properties": {}}, {"species": [{"element": "P", "occu": 1}], "abc": [0.4977085, 0.00306376, 0.09977810000000001], "xyz": [3.48715313107584, 0.0219665924044, 4.8936109278140005], "label": "P", "properties": {}}, {"species": [{"element": "P", "occu": 1}], "abc": [0.00170077, 0.49974912, 0.17065611], "xyz": [0.011645944669480001, 3.5831087368128, 8.3698186755834], "label": "P", "properties": {}}, {"species": [{"element": "P", "occu": 1}], "abc": [0.50103946, 0.9987903, 0.24274548999999998], "xyz": [3.5099525477809, 7.1611416747945, 11.905437992320598], "label": "P", "properties": {}}, {"species": [{"element": "P", "occu": 1}], "abc": [0.00108105, 0.49942268, 0.31445979999999996], "xyz": [0.0073041026711200005, 3.5807682224042, 15.422662023411997], "label": "P", "properties": {}}, {"species": [{"element": "P", "occu": 1}], "abc": [0.50152263, 0.9999031, 0.38555062999999995], "xyz": [3.5133372377075003, 7.1691202449265, 18.909307515312197], "label": "P", "properties": {}}, {"species": [{"element": "P", "occu": 1}], "abc": [0.98586153, 0.49696367, 0.45984335], "xyz": [6.9070910836771295, 3.56313757562105, 22.552989510148997], "label": "P", "properties": {}}, {"species": [{"element": "S", "occu": 1}], "abc": [0.16694403, 0.3463496, 0.05375642], "xyz": [1.1694926155390002, 2.4832625573239997, 2.6364803935148], "label": "S", "properties": {}}, {"species": [{"element": "S", "occu": 1}], "abc": [0.6867999, 0.83510554, 0.12067823], "xyz": [4.81155676326086, 5.9875522272751, 5.918656549656199], "label": "S", "properties": {}}, {"species": [{"element": "S", "occu": 1}], "abc": [0.20035086, 0.67176506, 0.0043644800000000004], "xyz": [1.40337884762374, 4.8164312036639, 0.2140556597312], "label": "S", "properties": {}}, {"species": [{"element": "S", "occu": 1}], "abc": [0.81818998, 0.67086383, 0.04667313000000001], "xyz": [5.73221970233957, 4.80996955129145, 2.2890808604622004], "label": "S", "properties": {}}, {"species": [{"element": "S", "occu": 1}], "abc": [0.64619342, 0.16242369, 0.0716162], "xyz": [4.52741463054011, 1.16454780891735, 3.512412232028], "label": "S", "properties": {}}, {"species": [{"element": "S", "occu": 1}], "abc": [0.86839678, 0.32594707, 9.99999999999994e-05], "xyz": [6.08417622996273, 2.33698019169205, 0.00490449399999997], "label": "S", "properties": {}}, {"species": [{"element": "S", "occu": 1}], "abc": [0.29998884, 0.84076112, 0.07920868], "xyz": [2.10139295658688, 6.0281016895928, 3.8847849580791998], "label": "S", "properties": {}}, {"species": [{"element": "S", "occu": 1}], "abc": [0.15165826, 0.33348002, 0.19760938], "xyz": [1.0624010533383799, 2.3909900495963, 9.6917401855372], "label": "S", "properties": {}}, {"species": [{"element": "S", "occu": 1}], "abc": [0.69179727, 0.83452511, 0.26415777999999995], "xyz": [4.84657075038889, 5.983390651554649, 12.955602470633197], "label": "S", "properties": {}}, {"species": [{"element": "S", "occu": 1}], "abc": [0.18998644, 0.66455081, 0.14897763], "xyz": [1.33076527095659, 4.7647063658001505, 7.306598924692199], "label": "S", "properties": {}}, {"species": [{"element": "S", "occu": 1}], "abc": [0.35170219, 0.16975242, 0.12692511], "xyz": [2.4640814220005804, 1.2170934472022998, 6.2250344044434], "label": "S", "properties": {}}, {"species": [{"element": "S", "occu": 1}], "abc": [0.81271024, 0.66433894, 0.19233131], "xyz": [5.69382987237426, 4.7631872970961, 9.4328775590714], "label": "S", "properties": {}}, {"species": [{"element": "S", "occu": 1}], "abc": [0.65050816, 0.16486927, 0.21569055], "xyz": [4.55764418811213, 1.1820821650850502, 10.578530083317], "label": "S", "properties": {}}, {"species": [{"element": "S", "occu": 1}], "abc": [0.84956141, 0.33655754, 0.1434873], "xyz": [5.95220197662306, 2.4130552986550997, 7.037326019262], "label": "S", "properties": {}}, {"species": [{"element": "S", "occu": 1}], "abc": [0.31201798, 0.83343668, 0.22119931], "xyz": [2.1856781261877196, 5.9755868098142, 10.8487068869914], "label": "S", "properties": {}}, {"species": [{"element": "S", "occu": 1}], "abc": [0.15066972, 0.33476901, 0.34170551], "xyz": [1.05547422956799, 2.4002318694331497, 16.7589262356194], "label": "S", "properties": {}}, {"species": [{"element": "S", "occu": 1}], "abc": [0.69934253, 0.83788748, 0.40620033], "xyz": [4.899434191915921, 6.0074982224162, 19.9220708128302], "label": "S", "properties": {}}, {"species": [{"element": "S", "occu": 1}], "abc": [0.19186277, 0.66212544, 0.29272514], "xyz": [1.3439129391203601, 4.747316911593599, 14.356686927791598], "label": "S", "properties": {}}, {"species": [{"element": "S", "occu": 1}], "abc": [0.34990413, 0.16248735, 0.26992587999999995], "xyz": [2.45148738885825, 1.16500423934025, 13.238498589047197], "label": "S", "properties": {}}, {"species": [{"element": "S", "occu": 1}], "abc": [0.8139036, 0.66606572, 0.33601887999999996], "xyz": [5.702190119557479, 4.775567990241799, 16.480025808467197], "label": "S", "properties": {}}, {"species": [{"element": "S", "occu": 1}], "abc": [0.64779766, 0.16759611, 0.35852535999999996], "xyz": [4.5386518114816905, 1.20163310341965, 17.583854769678396], "label": "S", "properties": {}}, {"species": [{"element": "S", "occu": 1}], "abc": [0.849643, 0.33464151, 0.28746616999999997], "xyz": [5.95277466700309, 2.39931771802065, 14.098761059679797], "label": "S", "properties": {}}, {"species": [{"element": "S", "occu": 1}], "abc": [0.31410258, 0.83114674, 0.36452977], "xyz": [2.20028494817726, 5.9591683636531, 17.8783406978638], "label": "S", "properties": {}}, {"species": [{"element": "S", "occu": 1}], "abc": [0.12983018, 0.32012643, 0.48511229999999994], "xyz": [0.9094715813569699, 2.29524727971045, 23.792303646761997], "label": "S", "properties": {}}, {"species": [{"element": "S", "occu": 1}], "abc": [0.18032063, 0.66597094, 0.43863998], "xyz": [1.2630417781660601, 4.7748884351761, 21.513071500701198], "label": "S", "properties": {}}, {"species": [{"element": "S", "occu": 1}], "abc": [0.35132555, 0.15890268, 0.41355559999999997], "xyz": [2.46144839368112, 1.1393028186041998, 20.282809588663998], "label": "S", "properties": {}}, {"species": [{"element": "S", "occu": 1}], "abc": [0.79782618, 0.66539524, 0.48093867999999995], "xyz": [5.589545325250761, 4.7707607726806005, 23.587608704279194], "label": "S", "properties": {}}, {"species": [{"element": "S", "occu": 1}], "abc": [0.83171053, 0.34164891, 0.43139036999999997], "xyz": [5.82712845954229, 2.4495594796516498, 21.1575148132278], "label": "S", "properties": {}}]}, "formula": "", "bandgap": 2.3547, "slab_thickness": 23.787399152761996}