{"miller": "100_0.08", "final_energy": -228.91496572, "gamma": 0.015434237270751225, "work_function": "Not calculated", "ionization_potentail": "Not calculated", "electron_affinity": "Not calculated", "is_stochiometric": true, "incar_parameters": {"SYSTEM": "unknown system", "LCOMPAT": false, "PREC": "normal", "ENMAX": 520.0, "ENAUG": 368.056, "EDIFF": 1e-05, "IALGO": 38, "IWAVPR": 11, "NBANDS": 210, "NBANDSLOW": -1, "NBANDSHIGH": -1, "NELECT": 350.0, "TURBO": 0, "IRESTART": 0, "NREBOOT": 0, "NMIN": 0, "EREF": 0.0, "ISMEAR": 0, "SIGMA": 0.05, "KSPACING": 0.5, "KGAMMA": true, "KBLOWUP": true, "LREAL": true, "ROPT": [-0.0005, -0.0005, -0.0005], "LMAXPAW": -100, "LMAXMIX": 2, "NLSPLINE": false, "ISTART": 0, "ICHARG": 2, "INIWAV": 1, "ISPIN": 1, "LNONCOLLINEAR": false, "MAGMOM": [0.6, 0.6, 0.6, 0.6, 0.6, 0.6, 0.6, 0.6, 0.6, 0.6, 0.6, 0.6, 0.6, 0.6, 0.6, 0.6, 0.6, 0.6, 0.6, 0.6, 0.6, 0.6, 0.6, 0.6, 0.6, 0.6, 0.6, 0.6, 0.6, 0.6, 0.6, 0.6, 0.6, 0.6, 0.6, 0.6, 0.6, 0.6, 0.6, 0.6, 0.6, 0.6, 0.6, 0.6, 0.6, 0.6, 0.6, 0.6, 0.6, 0.6, 0.6, 0.6, 0.6, 0.6, 0.6, 0.6], "NUPDOWN": -1.0, "LSORBIT": false, "SAXIS": [0.0, 0.0, 1.0], "LSPIRAL": false, "QSPIRAL": [0.0, 0.0, 0.0], "LZEROZ": false, "LASPH": false, "LMETAGGA": false, "NELM": 100, "NELMDL": -5, "NELMIN": 6, "ENINI": 520.0, "LDIAG": true, "LSUBROT": false, "WEIMIN": 0.001, "EBREAK": 1e-08, "DEPER": 0.3, "NRMM": 4, "TIME": 0.4, "AMIX": 0.4, "BMIX": 1.0, "AMIN": 0.1, "AMIX_MAG": 1.6, "BMIX_MAG": 1.0, "IMIX": 4, "MIXFIRST": false, "MAXMIX": -45, "WC": 100.0, "INIMIX": 1, "MIXPRE": 1, "MREMOVE": 5, "LDIPOL": false, "LMONO": false, "IDIPOL": 0, "EPSILON": 1.0, "DIPOL": [-100.0, -100.0, -100.0], "EFIELD": 0.0, "NGX": 40, "NGY": 40, "NGZ": 280, "NGXF": 80, "NGYF": 80, "NGZF": 560, "ADDGRID": false, "NSW": 150, "IBRION": 2, "MDALGO": 0, "ISIF": 2, "PSTRESS": 0.0, "EDIFFG": -0.01, "NFREE": 1, "POTIM": 0.5, "SMASS": -3.0, "SCALEE": 1.0, "TEBEG": 0.0001, "TEEND": 0.0001, "NBLOCK": 1, "KBLOCK": 150, "NPACO": 256, "APACO": 10.0, "ISYM": 0, "SYMPREC": 1e-05, "LORBIT": 11, "RWIGS": [-1.0, -1.0, -1.0], "NEDOS": 301, "EMIN": 10.0, "EMAX": -10.0, "EFERMI": 0.0, "NWRITE": 2, "LWAVE": false, "LDOWNSAMPLE": false, "LCHARG": false, "LPARD": false, "LVTOT": false, "LVHAR": false, "LELF": false, "LOPTICS": false, "STM": [0.0, 0.0, 0.0, 0.0, 0.0, 0.0, 0.0], "NPAR": 1, "NSIM": 4, "NBLK": -1, "LPLANE": true, "LSCALAPACK": true, "LSCAAWARE": false, "LSCALU": false, "LASYNC": false, "LORBITALREAL": false, "IDIOT": 3, "PHON_NSTRUCT": -1, "LMUSIC": false, "POMASS": [22.99, 30.974, 32.066], "DARWINR": [0.0, 0.0, 0.0], "DARWINV": [1.0, 1.0, 1.0], "LCORR": true, "GGA_COMPAT": true, "LBERRY": false, "ICORELEVEL": 0, "LDAU": false, "I_CONSTRAINED_M": 0, "GGA": "--", "VOSKOWN": 0, "LHFCALC": false, "PRECFOCK": "", "LSYMGRAD": false, "LHFONE": false, "LRHFCALC": false, "LTHOMAS": false, "LMODELHF": false, "LFOCKACE": false, "ENCUT4O": -1.0, "EXXOEP": 0, "FOURORBIT": 0, "AEXX": 0.0, "HFALPHA": 0.0, "MCALPHA": 0.0, "ALDAX": 1.0, "AGGAX": 1.0, "ALDAC": 1.0, "AGGAC": 1.0, "NKREDX": 1, "NKREDY": 1, "NKREDZ": 1, "SHIFTRED": false, "ODDONLY": false, "EVENONLY": false, "LMAXFOCK": 0, "NMAXFOCKAE": 0, "LFOCKAEDFT": false, "HFSCREEN": 0.0, "HFSCREENC": 0.0, "NBANDSGWLOW": 0, "LUSE_VDW": false, "Zab_VDW": -0.8491, "PARAM1": 0.1234, "PARAM2": 1.0, "PARAM3": 0.0, "MODEL_GW": 0, "MODEL_EPS0": 26.39742401, "MODEL_ALPHA": 1.0, "LEPSILON": false, "LRPA": false, "LNABLA": false, "LVEL": false, "CSHIFT": 0.1, "OMEGAMAX": -1.0, "DEG_THRESHOLD": 0.002, "RTIME": -0.1, "WPLASMAI": 0.0, "DFIELD": [0.0, 0.0, 0.0], "WPLASMA": [0.0, 0.0, 0.0, 0.0, 0.0, 0.0, 0.0, 0.0, 0.0], "NUCIND": false, "MAGPOS": [0.0, 0.0, 0.0], "LNICSALL": true, "ORBITALMAG": false, "LMAGBLOCH": false, "LCHIMAG": false, "LGAUGE": true, "MAGATOM": 0, "MAGDIPOL": [0.0, 0.0, 0.0], "AVECCONST": [0.0, 0.0, 0.0], "LFINITE_TEMPERATURE": false, "LADDER": false, "LRPAFORCE": false, "LFXC": false, "LHARTREE": true, "IBSE": 0, "KPOINT": [-1, 0, 0, 0], "LTCTC": false, "LTCTE": false, "LTETE": false, "LTRIPLET": false, "LFXCEPS": false, "LFXHEG": false, "NATURALO": 2, "LHOLEGF": false, "L2ORDER": false, "LDMP1": false, "LMP2LT": false, "LSMP2LT": false, "LGWLF": false, "ENCUTGW": -2.0, "ENCUTGWSOFT": -2.0, "ENCUTLF": -1.0, "LESF_SPLINES": false, "LMAXMP2": -1, "SCISSOR": 0.0, "NOMEGA": 0, "NOMEGAR": 0, "NBANDSGW": -1, "NBANDSO": -1, "NBANDSV": -1, "NELMGW": 1, "NELMHF": 1, "DIM": 3, "IESPILON": 4, "ANTIRES": 0, "OMEGAMIN": -30.0, "OMEGATL": -200.0, "OMEGAGRID": 0, "LSELFENERGY": false, "LSPECTRAL": false, "LSPECTRALGW": false, "LSINGLES": false, "LFERMIGW": false, "ODDONLYGW": false, "EVENONLYGW": false, "NKREDLFX": 1, "NKREDLFY": 1, "NKREDLFZ": 1, "MAXMEM": 2800, "TELESCOPE": 0, "NTAUPAR": -1, "NOMEGAPAR": -1, "DAMP_NEWTON": 0.80000001, "LAMBDA": 1.0, "OFIELD_KAPPA": 0.0, "OFIELD_K": [0.0, 0.0, 0.0], "OFIELD_Q6_NEAR": 0.0, "OFIELD_Q6_FAR": 0.0, "OFIELD_A": 0.0, "KPOINTS_OPT_MODE": 1, "LKPOINTS_OPT": false, "@module": "pymatgen.io.vasp.inputs", "@class": "Incar"}, "relaxed_structures": {"@module": "pymatgen.core.structure", "@class": "Structure", "charge": 0, "lattice": {"matrix": [[7.00642, 0.0, 0.0], [-0.000541, 7.169815, 0.0], [0.0, 0.0, 49.04494]], "a": 7.00642, "b": 7.169815020410638, "c": 49.04494, "alpha": 90.0, "beta": 90.0, "gamma": 90.00432326589427, "volume": 2463.7595744031405}, "sites": [{"species": [{"element": "Na", "occu": 1}], "abc": [0.51309594, 0.42688669, 0.02395493], "xyz": [3.5947347102355103, 3.06069859326235, 1.1748681045542], "label": "Na", "properties": {}}, {"species": [{"element": "Na", "occu": 1}], "abc": [0.49927548, 0.88802465, 0.032124120000000006], "xyz": [3.4976532872459503, 6.36697245593975, 1.5755255379528001], "label": "Na", "properties": {}}, {"species": [{"element": "Na", "occu": 1}], "abc": [0.00910003, 0.00488922, 0.02812373], "xyz": [0.06375598712458, 0.0350548028943, 1.3793266504261998], "label": "Na", "properties": {}}, {"species": [{"element": "Na", "occu": 1}], "abc": [0.4822517, 0.49976833, 0.09731303999999999], "xyz": [3.3785875812474706, 3.58324646895895, 4.772712208017599], "label": "Na", "properties": {}}, {"species": [{"element": "Na", "occu": 1}], "abc": [0.98820846, 0.59019548, 0.09842001], "xyz": [6.92348422255852, 4.2315924054362, 4.8270034852494], "label": "Na", "properties": {}}, {"species": [{"element": "Na", "occu": 1}], "abc": [0.99830738, 0.09592612, 0.09881893], "xyz": [6.99450889734868, 0.6877725340678, 4.8465684927142], "label": "Na", "properties": {}}, {"species": [{"element": "Na", "occu": 1}], "abc": [0.49813211, 0.41688811, 0.17034952], "xyz": [3.4898972416786904, 2.9890106243996497, 8.3547819874288], "label": "Na", "properties": {}}, {"species": [{"element": "Na", "occu": 1}], "abc": [0.49359808, 0.91421485, 0.17063783], "xyz": [3.45786086943975, 6.55475134475275, 8.368922134080199], "label": "Na", "properties": {}}, {"species": [{"element": "Na", "occu": 1}], "abc": [0.99152402, 0.99827255, 0.17050799], "xyz": [6.94649365875885, 7.15742950307825, 8.3625541390706], "label": "Na", "properties": {}}, {"species": [{"element": "Na", "occu": 1}], "abc": [0.50017675, 0.49454531, 0.24222531000000003], "xyz": [3.50418083572229, 3.54579838181765, 11.8799257954314], "label": "Na", "properties": {}}, {"species": [{"element": "Na", "occu": 1}], "abc": [9.014e-05, 0.58186523, 0.24229125], "xyz": [0.00031676960937, 4.17186605403245, 11.883159818775], "label": "Na", "properties": {}}, {"species": [{"element": "Na", "occu": 1}], "abc": [5.991e-05, 0.08166193, 0.24228571], "xyz": [0.00037557551807, 0.58550093064295, 11.882888109807398], "label": "Na", "properties": {}}, {"species": [{"element": "Na", "occu": 1}], "abc": [0.50195104, 0.41697212, 0.3141619], "xyz": [3.5166542237598803, 2.9896129605578, 15.408051535785999], "label": "Na", "properties": {}}, {"species": [{"element": "Na", "occu": 1}], "abc": [0.50621398, 0.91442828, 0.31385919], "xyz": [3.5462530480521197, 6.5562815983682, 15.3932051419986], "label": "Na", "properties": {}}, {"species": [{"element": "Na", "occu": 1}], "abc": [0.00819519, 0.99816553, 0.31412528], "xyz": [0.056878935568070006, 7.1566621894769495, 15.406255510083199], "label": "Na", "properties": {}}, {"species": [{"element": "Na", "occu": 1}], "abc": [0.51793731, 0.49950745, 0.38721745], "xyz": [3.62861609399975, 3.58137600762175, 18.991056602203], "label": "Na", "properties": {}}, {"species": [{"element": "Na", "occu": 1}], "abc": [0.01194347, 0.59031694, 0.38615414], "xyz": [0.08336160561286, 4.2324632511661, 18.938906627051598], "label": "Na", "properties": {}}, {"species": [{"element": "Na", "occu": 1}], "abc": [0.00173094, 0.09594021, 0.38576841], "xyz": [0.012075788981190001, 0.6878735567611499, 18.9199885223454], "label": "Na", "properties": {}}, {"species": [{"element": "Na", "occu": 1}], "abc": [0.48690051, 0.42669999, 0.46061516], "xyz": [3.41119862657961, 3.05935998880185, 22.5908428852904], "label": "Na", "properties": {}}, {"species": [{"element": "Na", "occu": 1}], "abc": [0.50099993, 0.88781179, 0.45242769], "xyz": [3.5097356233722103, 6.36544628911885, 22.189288910388598], "label": "Na", "properties": {}}, {"species": [{"element": "Na", "occu": 1}], "abc": [0.99099851, 0.00472654, 0.45649268], "xyz": [6.94334922337606, 0.033888417390100005, 22.3886561010392], "label": "Na", "properties": {}}, {"species": [{"element": "P", "occu": 1}], "abc": [0.01173735, 0.5019211, 0.02537002], "xyz": [0.0819652644719, 3.5986814315965, 1.2442711086987999], "label": "P", "properties": {}}, {"species": [{"element": "P", "occu": 1}], "abc": [0.49531177, 0.00265835, 0.09941689000000001], "xyz": [3.47036085339605, 0.01905987770525, 4.8758954050366], "label": "P", "properties": {}}, {"species": [{"element": "P", "occu": 1}], "abc": [0.99681638, 0.49794155, 0.17042359], "xyz": [6.98384483478105, 3.57014879431325, 8.358414746134601], "label": "P", "properties": {}}, {"species": [{"element": "P", "occu": 1}], "abc": [0.50010816, 0.99428565, 0.24222642], "xyz": [3.5034299058505503, 7.12884416765475, 11.879980235314799], "label": "P", "properties": {}}, {"species": [{"element": "P", "occu": 1}], "abc": [0.00323408, 0.49785352, 0.31415336], "xyz": [0.02238998403928, 3.5695176354988, 15.4076326919984], "label": "P", "properties": {}}, {"species": [{"element": "P", "occu": 1}], "abc": [0.50492632, 0.00239762, 0.38512078], "xyz": [3.53772456986198, 0.0171904918403, 18.8882255478532], "label": "P", "properties": {}}, {"species": [{"element": "P", "occu": 1}], "abc": [0.98825706, 0.50188887, 0.45922321], "xyz": [6.9238725084465305, 3.59845034845905, 22.522574781057397], "label": "P", "properties": {}}, {"species": [{"element": "S", "occu": 1}], "abc": [0.16586155, 0.34632439, 0.05382506000000001], "xyz": [1.1619083196560098, 2.4830818062878497, 2.6398468381964], "label": "S", "properties": {}}, {"species": [{"element": "S", "occu": 1}], "abc": [0.19979402, 0.67119326, 0.004358340000000002], "xyz": [1.39947770205474, 4.8123315034469, 0.21375452379960008], "label": "S", "properties": {}}, {"species": [{"element": "S", "occu": 1}], "abc": [0.81706008, 0.67045369, 0.046567540000000004], "xyz": [5.72430337026731, 4.8070289233673495, 2.2839022052476], "label": "S", "properties": {}}, {"species": [{"element": "S", "occu": 1}], "abc": [0.64549799, 0.16108696, 0.07128515], "xyz": [4.52254287905044, 1.1549637021124, 3.496175904641], "label": "S", "properties": {}}, {"species": [{"element": "S", "occu": 1}], "abc": [0.86777553, 0.32517151, 0.00010000000000000286], "xyz": [6.07982391111569, 2.33141956997065, 0.00490449400000014], "label": "S", "properties": {}}, {"species": [{"element": "S", "occu": 1}], "abc": [0.29725512, 0.84095207, 0.07884634], "xyz": [2.08223926280053, 6.0294707657670505, 3.8670140145196], "label": "S", "properties": {}}, {"species": [{"element": "S", "occu": 1}], "abc": [0.14843944, 0.33249958, 0.19734771], "xyz": [1.03984917893202, 2.3839604761777, 9.6789065960874], "label": "S", "properties": {}}, {"species": [{"element": "S", "occu": 1}], "abc": [0.68298069, 0.83379807, 0.12043029999999999], "xyz": [4.78479848127393, 5.97817790925705, 5.906496837681999], "label": "S", "properties": {}}, {"species": [{"element": "S", "occu": 1}], "abc": [0.18400567, 0.66456937, 0.14884172], "xyz": [1.28886147437223, 4.76483943756655, 7.2999332268968], "label": "S", "properties": {}}, {"species": [{"element": "S", "occu": 1}], "abc": [0.34957214, 0.17029221, 0.12649068], "xyz": [2.4491571050531897, 1.22096364164115, 6.203727811159199], "label": "S", "properties": {}}, {"species": [{"element": "S", "occu": 1}], "abc": [0.80682566, 0.6609121, 0.19217476], "xyz": [5.652601887291101, 4.7386174882615, 9.4251995737144], "label": "S", "properties": {}}, {"species": [{"element": "S", "occu": 1}], "abc": [0.64949907, 0.15963381, 0.21506166], "xyz": [4.55057691213819, 1.1445448854451499, 10.547686211000398], "label": "S", "properties": {}}, {"species": [{"element": "S", "occu": 1}], "abc": [0.84637681, 0.33392025, 0.14322834], "xyz": [5.92989075826495, 2.39414641725375, 7.0246253415996], "label": "S", "properties": {}}, {"species": [{"element": "S", "occu": 1}], "abc": [0.31005666, 0.8295365, 0.2207767], "xyz": [2.1719384045107, 5.9476232407475, 10.827980004897999], "label": "S", "properties": {}}, {"species": [{"element": "S", "occu": 1}], "abc": [0.15380906, 0.33397894, 0.34135245], "xyz": [1.07747019155866, 2.3945672136961, 16.741610429102998], "label": "S", "properties": {}}, {"species": [{"element": "S", "occu": 1}], "abc": [0.69003943, 0.82957357, 0.26370362], "xyz": [4.83425726383923, 5.94788902578955, 12.933328220682801], "label": "S", "properties": {}}, {"species": [{"element": "S", "occu": 1}], "abc": [0.19312155, 0.66099308, 0.29239678], "xyz": [1.3527330930947201, 4.7391980998802, 14.340582531293201], "label": "S", "properties": {}}, {"species": [{"element": "S", "occu": 1}], "abc": [0.3507755, 0.1598266, 0.26938446], "xyz": [2.4575940125194005, 1.1459271540790001, 13.211944677632399], "label": "S", "properties": {}}, {"species": [{"element": "S", "occu": 1}], "abc": [0.81580428, 0.66430002, 0.33573321], "xyz": [5.715508037166781, 4.762908247896299, 16.4660151404574], "label": "S", "properties": {}}, {"species": [{"element": "S", "occu": 1}], "abc": [0.65052596, 0.1702637, 0.35805658], "xyz": [4.5577659840015, 1.2207592302155, 17.560863482705198], "label": "S", "properties": {}}, {"species": [{"element": "S", "occu": 1}], "abc": [0.85184188, 0.33237781, 0.28719897], "xyz": [5.9681821684743905, 2.38308740780515, 14.085656251711798], "label": "S", "properties": {}}, {"species": [{"element": "S", "occu": 1}], "abc": [0.31744442, 0.83329924, 0.36414011], "xyz": [2.2236981182875604, 5.9746013904406, 17.8592298465434], "label": "S", "properties": {}}, {"species": [{"element": "S", "occu": 1}], "abc": [0.13219121, 0.32510734, 0.48447765], "xyz": [0.9260112544972601, 2.3309594829421, 23.761177275591], "label": "S", "properties": {}}, {"species": [{"element": "S", "occu": 1}], "abc": [0.70305715, 0.84088171, 0.40571654], "xyz": [4.925458759897891, 6.02896629758365, 19.8983433613076], "label": "S", "properties": {}}, {"species": [{"element": "S", "occu": 1}], "abc": [0.1829142, 0.67044948, 0.43803221], "xyz": [1.28121099599532, 4.8069987384462, 21.4832634575174], "label": "S", "properties": {}}, {"species": [{"element": "S", "occu": 1}], "abc": [0.35465644, 0.16065507, 0.41324852], "xyz": [2.4847850599519306, 1.15186713071205, 20.2677488684888], "label": "S", "properties": {}}, {"species": [{"element": "S", "occu": 1}], "abc": [0.80014457, 0.67090811, 0.48023716000000005], "xyz": [5.60578595685189, 4.81028703069965, 23.553202697970402], "label": "S", "properties": {}}, {"species": [{"element": "S", "occu": 1}], "abc": [0.83446592, 0.34622561, 0.43076165], "xyz": [5.8464314031513895, 2.48237357196215, 21.126679278551], "label": "S", "properties": {}}]}, "formula": "", "bandgap": 2.3556, "slab_thickness": 23.756272781590997}