{"miller": "101_0.46", "final_energy": -261.39394954, "gamma": 0.014203695452769357, "work_function": "Not calculated", "ionization_potentail": "Not calculated", "electron_affinity": "Not calculated", "is_stochiometric": true, "incar_parameters": {"SYSTEM": "unknown system", "LCOMPAT": false, "PREC": "normal", "ENMAX": 520.0, "ENAUG": 368.056, "EDIFF": 1e-05, "IALGO": 38, "IWAVPR": 11, "NBANDS": 240, "NBANDSLOW": -1, "NBANDSHIGH": -1, "NELECT": 400.0, "TURBO": 0, "IRESTART": 0, "NREBOOT": 0, "NMIN": 0, "EREF": 0.0, "ISMEAR": 0, "SIGMA": 0.05, "KSPACING": 0.5, "KGAMMA": true, "KBLOWUP": true, "LREAL": true, "ROPT": [-0.0005, -0.0005, -0.0005], "LMAXPAW": -100, "LMAXMIX": 2, "NLSPLINE": false, "ISTART": 0, "ICHARG": 2, "INIWAV": 1, "ISPIN": 1, "LNONCOLLINEAR": false, "MAGMOM": [0.6, 0.6, 0.6, 0.6, 0.6, 0.6, 0.6, 0.6, 0.6, 0.6, 0.6, 0.6, 0.6, 0.6, 0.6, 0.6, 0.6, 0.6, 0.6, 0.6, 0.6, 0.6, 0.6, 0.6, 0.6, 0.6, 0.6, 0.6, 0.6, 0.6, 0.6, 0.6, 0.6, 0.6, 0.6, 0.6, 0.6, 0.6, 0.6, 0.6, 0.6, 0.6, 0.6, 0.6, 0.6, 0.6, 0.6, 0.6, 0.6, 0.6, 0.6, 0.6, 0.6, 0.6, 0.6, 0.6, 0.6, 0.6, 0.6, 0.6, 0.6, 0.6, 0.6, 0.6], "NUPDOWN": -1.0, "LSORBIT": false, "SAXIS": [0.0, 0.0, 1.0], "LSPIRAL": false, "QSPIRAL": [0.0, 0.0, 0.0], "LZEROZ": false, "LASPH": false, "LMETAGGA": false, "NELM": 100, "NELMDL": -5, "NELMIN": 6, "ENINI": 520.0, "LDIAG": true, "LSUBROT": false, "WEIMIN": 0.001, "EBREAK": 1e-08, "DEPER": 0.3, "NRMM": 4, "TIME": 0.4, "AMIX": 0.4, "BMIX": 1.0, "AMIN": 0.1, "AMIX_MAG": 1.6, "BMIX_MAG": 1.0, "IMIX": 4, "MIXFIRST": false, "MAXMIX": -45, "WC": 100.0, "INIMIX": 1, "MIXPRE": 1, "MREMOVE": 5, "LDIPOL": false, "LMONO": false, "IDIPOL": 0, "EPSILON": 1.0, "DIPOL": [-100.0, -100.0, -100.0], "EFIELD": 0.0, "NGX": 40, "NGY": 56, "NGZ": 224, "NGXF": 80, "NGYF": 112, "NGZF": 448, "ADDGRID": false, "NSW": 150, "IBRION": 2, "MDALGO": 0, "ISIF": 2, "PSTRESS": 0.0, "EDIFFG": -0.01, "NFREE": 1, "POTIM": 0.5, "SMASS": -3.0, "SCALEE": 1.0, "TEBEG": 0.0001, "TEEND": 0.0001, "NBLOCK": 1, "KBLOCK": 150, "NPACO": 256, "APACO": 10.0, "ISYM": 0, "SYMPREC": 1e-05, "LORBIT": 11, "RWIGS": [-1.0, -1.0, -1.0], "NEDOS": 301, "EMIN": 10.0, "EMAX": -10.0, "EFERMI": 0.0, "NWRITE": 2, "LWAVE": false, "LDOWNSAMPLE": false, "LCHARG": false, "LPARD": false, "LVTOT": false, "LVHAR": false, "LELF": false, "LOPTICS": false, "STM": [0.0, 0.0, 0.0, 0.0, 0.0, 0.0, 0.0], "NPAR": 1, "NSIM": 4, "NBLK": -1, "LPLANE": true, "LSCALAPACK": true, "LSCAAWARE": false, "LSCALU": false, "LASYNC": false, "LORBITALREAL": false, "IDIOT": 3, "PHON_NSTRUCT": -1, "LMUSIC": false, "POMASS": [22.99, 30.974, 32.066], "DARWINR": [0.0, 0.0, 0.0], "DARWINV": [1.0, 1.0, 1.0], "LCORR": true, "GGA_COMPAT": true, "LBERRY": false, "ICORELEVEL": 0, "LDAU": false, "I_CONSTRAINED_M": 0, "GGA": "--", "VOSKOWN": 0, "LHFCALC": false, "PRECFOCK": "", "LSYMGRAD": false, "LHFONE": false, "LRHFCALC": false, "LTHOMAS": false, "LMODELHF": false, "LFOCKACE": false, "ENCUT4O": -1.0, "EXXOEP": 0, "FOURORBIT": 0, "AEXX": 0.0, "HFALPHA": 0.0, "MCALPHA": 0.0, "ALDAX": 1.0, "AGGAX": 1.0, "ALDAC": 1.0, "AGGAC": 1.0, "NKREDX": 1, "NKREDY": 1, "NKREDZ": 1, "SHIFTRED": false, "ODDONLY": false, "EVENONLY": false, "LMAXFOCK": 0, "NMAXFOCKAE": 0, "LFOCKAEDFT": false, "HFSCREEN": 0.0, "HFSCREENC": 0.0, "NBANDSGWLOW": 0, "LUSE_VDW": false, "Zab_VDW": -0.8491, "PARAM1": 0.1234, "PARAM2": 1.0, "PARAM3": 0.0, "MODEL_GW": 0, "MODEL_EPS0": 26.39742306, "MODEL_ALPHA": 1.0, "LEPSILON": false, "LRPA": false, "LNABLA": false, "LVEL": false, "CSHIFT": 0.1, "OMEGAMAX": -1.0, "DEG_THRESHOLD": 0.002, "RTIME": -0.1, "WPLASMAI": 0.0, "DFIELD": [0.0, 0.0, 0.0], "WPLASMA": [0.0, 0.0, 0.0, 0.0, 0.0, 0.0, 0.0, 0.0, 0.0], "NUCIND": false, "MAGPOS": [0.0, 0.0, 0.0], "LNICSALL": true, "ORBITALMAG": false, "LMAGBLOCH": false, "LCHIMAG": false, "LGAUGE": true, "MAGATOM": 0, "MAGDIPOL": [0.0, 0.0, 0.0], "AVECCONST": [0.0, 0.0, 0.0], "LFINITE_TEMPERATURE": false, "LADDER": false, "LRPAFORCE": false, "LFXC": false, "LHARTREE": true, "IBSE": 0, "KPOINT": [-1, 0, 0, 0], "LTCTC": false, "LTCTE": false, "LTETE": false, "LTRIPLET": false, "LFXCEPS": false, "LFXHEG": false, "NATURALO": 2, "LHOLEGF": false, "L2ORDER": false, "LDMP1": false, "LMP2LT": false, "LSMP2LT": false, "LGWLF": false, "ENCUTGW": -2.0, "ENCUTGWSOFT": -2.0, "ENCUTLF": -1.0, "LESF_SPLINES": false, "LMAXMP2": -1, "SCISSOR": 0.0, "NOMEGA": 0, "NOMEGAR": 0, "NBANDSGW": -1, "NBANDSO": -1, "NBANDSV": -1, "NELMGW": 1, "NELMHF": 1, "DIM": 3, "IESPILON": 4, "ANTIRES": 0, "OMEGAMIN": -30.0, "OMEGATL": -200.0, "OMEGAGRID": 0, "LSELFENERGY": false, "LSPECTRAL": false, "LSPECTRALGW": false, "LSINGLES": false, "LFERMIGW": false, "ODDONLYGW": false, "EVENONLYGW": false, "NKREDLFX": 1, "NKREDLFY": 1, "NKREDLFZ": 1, "MAXMEM": 2800, "TELESCOPE": 0, "NTAUPAR": -1, "NOMEGAPAR": -1, "DAMP_NEWTON": 0.80000001, "LAMBDA": 1.0, "OFIELD_KAPPA": 0.0, "OFIELD_K": [0.0, 0.0, 0.0], "OFIELD_Q6_NEAR": 0.0, "OFIELD_Q6_FAR": 0.0, "OFIELD_A": 0.0, "KPOINTS_OPT_MODE": 1, "LKPOINTS_OPT": false, "@module": "pymatgen.io.vasp.inputs", "@class": "Incar"}, "relaxed_structures": {"@module": "pymatgen.core.structure", "@class": "Structure", "charge": 0, "lattice": {"matrix": [[7.00642, 0.0, 0.0], [-0.000714, 10.025156, 0.0], [0.0, 0.0, 40.086944]], "a": 7.00642, "b": 10.02515602542584, "c": 40.086944, "alpha": 90.0, "beta": 90.0, "gamma": 90.00408065335873, "volume": 2815.7251260500366}, "sites": [{"species": [{"element": "Na", "occu": 1}], "abc": [0.51551047, 0.19674035, 0.03447404], "xyz": [3.6117423946075005, 1.9723527002446002, 1.38195891093376], "label": "Na", "properties": {}}, {"species": [{"element": "Na", "occu": 1}], "abc": [0.52010682, 0.45678129, 0.09740599], "xyz": [3.64376068394334, 4.5793036901312405, 3.90470846639456], "label": "Na", "properties": {}}, {"species": [{"element": "Na", "occu": 1}], "abc": [0.00094187, 0.96251524, 9.99999999999994e-05], "xyz": [0.00591190092404, 9.64936543337744, 0.004008694399999976], "label": "Na", "properties": {}}, {"species": [{"element": "Na", "occu": 1}], "abc": [0.01172111, 0.51075064, 0.0025158399999999984], "xyz": [0.08175834356924, 5.1203548430998405, 0.10085233719295994], "label": "Na", "properties": {}}, {"species": [{"element": "Na", "occu": 1}], "abc": [0.98222487, 0.76222981, 0.06254824], "xyz": [6.8813357415810605, 7.641472753100361, 2.50736779417856], "label": "Na", "properties": {}}, {"species": [{"element": "Na", "occu": 1}], "abc": [0.49444868, 0.70922382, 0.16084510000000002], "xyz": [3.46380873471812, 7.11007943441592, 6.447788516374401], "label": "Na", "properties": {}}, {"species": [{"element": "Na", "occu": 1}], "abc": [0.49681913, 0.96028605, 0.22548699], "xyz": [3.4802378445749, 9.627017455873801, 9.03908434085856], "label": "Na", "properties": {}}, {"species": [{"element": "Na", "occu": 1}], "abc": [0.02289802, 0.47052417, 0.11651523], "xyz": [0.16009719103102002, 4.7170782060205205, 4.67073950015712], "label": "Na", "properties": {}}, {"species": [{"element": "Na", "occu": 1}], "abc": [0.49684566, 0.0024543, 0.10561197], "xyz": [3.4811076167670003, 0.024604740370800002, 4.233661127119681], "label": "Na", "properties": {}}, {"species": [{"element": "Na", "occu": 1}], "abc": [0.99531265, 0.03604906, 0.12371379000000002], "xyz": [6.973552718184161, 0.36139745015336006, 4.959307771757761], "label": "Na", "properties": {}}, {"species": [{"element": "Na", "occu": 1}], "abc": [0.99796033, 0.2838122, 0.18769923], "xyz": [6.9919265734078, 2.8452615797032004, 7.52428852185312], "label": "Na", "properties": {}}, {"species": [{"element": "Na", "occu": 1}], "abc": [0.49780001, 0.22242107, 0.28718], "xyz": [3.48763713742022, 2.22980592443692, 11.51216857792], "label": "Na", "properties": {}}, {"species": [{"element": "Na", "occu": 1}], "abc": [0.49560084, 0.46887852, 0.35098214], "xyz": [3.47205285812952, 4.700580308049121, 14.06980139118016], "label": "Na", "properties": {}}, {"species": [{"element": "Na", "occu": 1}], "abc": [0.99820032, 0.99047446, 0.24070376], "xyz": [6.993103487289961, 9.92966097551576, 9.64907814770944], "label": "Na", "properties": {}}, {"species": [{"element": "Na", "occu": 1}], "abc": [0.50022917, 0.51611225, 0.23406328999999998], "xyz": [3.5044471571249, 5.174105819761001, 9.38288199868576], "label": "Na", "properties": {}}, {"species": [{"element": "Na", "occu": 1}], "abc": [0.99813803, 0.54586167, 0.24939160999999999], "xyz": [6.992984510920221, 5.47234839617052, 9.99734750413984], "label": "Na", "properties": {}}, {"species": [{"element": "Na", "occu": 1}], "abc": [0.99425111, 0.79626694, 0.31383946], "xyz": [6.96557232753104, 7.98270029114264, 12.58086485801024], "label": "Na", "properties": {}}, {"species": [{"element": "Na", "occu": 1}], "abc": [0.48109135, 0.74232582, 0.41214777], "xyz": [3.3701980358315202, 7.441932148327921, 16.521744575714884], "label": "Na", "properties": {}}, {"species": [{"element": "Na", "occu": 1}], "abc": [0.50938015, 0.99407196, 0.47215527], "xyz": [3.5682215031835605, 9.965726474225761, 18.927261867794883], "label": "Na", "properties": {}}, {"species": [{"element": "Na", "occu": 1}], "abc": [0.99696101, 0.50333625, 0.36884423], "xyz": [6.9847681776017, 5.046024426705001, 14.785837992733121], "label": "Na", "properties": {}}, {"species": [{"element": "Na", "occu": 1}], "abc": [0.52203946, 0.03469583, 0.35837606], "xyz": [3.6576029405105803, 0.34783110829948, 14.36620104816064], "label": "Na", "properties": {}}, {"species": [{"element": "Na", "occu": 1}], "abc": [0.01903987, 0.04794733, 0.3772626], "xyz": [0.13336709157178, 0.4806794630334801, 15.123304719494401], "label": "Na", "properties": {}}, {"species": [{"element": "Na", "occu": 1}], "abc": [0.01342556, 0.30785446, 0.44001649], "xyz": [0.09384530401076001, 3.0862889867957604, 17.63891639370656], "label": "Na", "properties": {}}, {"species": [{"element": "Na", "occu": 1}], "abc": [0.49811618, 0.54261183, 0.47447877], "xyz": [3.4896237410289803, 5.439768243195481, 19.02040388217888], "label": "Na", "properties": {}}, {"species": [{"element": "P", "occu": 1}], "abc": [0.01130881, 0.23097338, 0.05038528], "xyz": [0.07906935756688001, 2.3155441663472804, 2.01979189778432], "label": "P", "properties": {}}, {"species": [{"element": "P", "occu": 1}], "abc": [0.48403419, 0.74036696, 0.04131521], "xyz": [3.39081820749036, 7.422294271245761, 1.65620050961824], "label": "P", "properties": {}}, {"species": [{"element": "P", "occu": 1}], "abc": [0.99835097, 0.74238351, 0.17505545], "xyz": [6.99433614140126, 7.442510499577561, 7.017438021044801], "label": "P", "properties": {}}, {"species": [{"element": "P", "occu": 1}], "abc": [0.50067007, 0.24955614, 0.17353956], "xyz": [3.5077266087654397, 2.50183923425784, 6.956670623504641], "label": "P", "properties": {}}, {"species": [{"element": "P", "occu": 1}], "abc": [0.0003848, 0.25655679, 0.30116408], "xyz": [0.0025128888679400003, 2.57202184260924, 12.07274760977152], "label": "P", "properties": {}}, {"species": [{"element": "P", "occu": 1}], "abc": [0.49821346, 0.76309326, 0.29988166], "xyz": [3.4901479018255603, 7.6501289740485605, 12.02133931104704], "label": "P", "properties": {}}, {"species": [{"element": "P", "occu": 1}], "abc": [0.98197514, 0.76532822, 0.43324482000000003], "xyz": [6.87958381604972, 7.672534796702321, 17.367460837630084], "label": "P", "properties": {}}, {"species": [{"element": "P", "occu": 1}], "abc": [0.50909914, 0.27400605, 0.42436478], "xyz": [3.5667667561591, 2.7469533961938004, 17.01148717143232], "label": "P", "properties": {}}, {"species": [{"element": "S", "occu": 1}], "abc": [0.16259335, 0.05659707, 0.05761615999999999], "xyz": [1.13915688899902, 0.56739445589292, 2.30965577941504], "label": "S", "properties": {}}, {"species": [{"element": "S", "occu": 1}], "abc": [0.66384706, 0.57919559, 0.03677405], "xyz": [4.6507777724739405, 5.80652614426204, 1.4741592830032002], "label": "S", "properties": {}}, {"species": [{"element": "S", "occu": 1}], "abc": [0.19892278, 0.38832405, 0.05305993999999999], "xyz": [1.3934592808758999, 3.8930091798018003, 2.12701084342336], "label": "S", "properties": {}}, {"species": [{"element": "S", "occu": 1}], "abc": [0.35663909, 0.73234738, 0.08828269], "xyz": [2.4982403569284797, 7.34189673069128, 3.53898325019936], "label": "S", "properties": {}}, {"species": [{"element": "S", "occu": 1}], "abc": [0.80364066, 0.24564159, 0.08697719000000001], "xyz": [5.63046860494194, 2.4625952598380403, 3.4866497448073606], "label": "S", "properties": {}}, {"species": [{"element": "S", "occu": 1}], "abc": [0.64884781, 0.91177096, 0.03844712], "xyz": [4.54544926847476, 9.140646110269762, 1.5412275464012801], "label": "S", "properties": {}}, {"species": [{"element": "S", "occu": 1}], "abc": [0.88837016, 0.23201849, 0.0034138699999999994], "xyz": [6.22412879522534, 2.3260215571344403, 0.13685161551327998], "label": "S", "properties": {}}, {"species": [{"element": "S", "occu": 1}], "abc": [0.26861688, 0.73935839, 0.005458319999999999], "xyz": [1.8815147784791402, 7.412183199658841, 0.21880736817407997], "label": "S", "properties": {}}, {"species": [{"element": "S", "occu": 1}], "abc": [0.15621254, 0.56923212, 0.17995509], "xyz": [1.0940842327731202, 5.70664080321072, 7.213849615344961], "label": "S", "properties": {}}, {"species": [{"element": "S", "occu": 1}], "abc": [0.68237308, 0.08737673, 0.17118593000000001], "xyz": [4.78093000818838, 0.8759653490198801, 6.862320789497921], "label": "S", "properties": {}}, {"species": [{"element": "S", "occu": 1}], "abc": [0.18141739, 0.90366401, 0.17645975], "xyz": [1.27044121354066, 9.059372671835561, 7.073732116504001], "label": "S", "properties": {}}, {"species": [{"element": "S", "occu": 1}], "abc": [0.35537164, 0.24387512, 0.21848895000000002], "xyz": [2.48970883909312, 2.4448861225187204, 8.7585543032688], "label": "S", "properties": {}}, {"species": [{"element": "S", "occu": 1}], "abc": [0.80344952, 0.75382023, 0.21366626], "xyz": [5.628766558274181, 7.5571654017058805, 8.56522739930944], "label": "S", "properties": {}}, {"species": [{"element": "S", "occu": 1}], "abc": [0.65695705, 0.42370276, 0.16975482], "xyz": [4.60261449049036, 4.24768626663056, 6.8049519630700805], "label": "S", "properties": {}}, {"species": [{"element": "S", "occu": 1}], "abc": [0.85168886, 0.74213725, 0.13019116], "xyz": [5.9667599764847, 7.440041704661001, 5.21896574021504], "label": "S", "properties": {}}, {"species": [{"element": "S", "occu": 1}], "abc": [0.30735078, 0.24219457, 0.13477006], "xyz": [2.1532557250846196, 2.42803834660292, 5.40251984809664], "label": "S", "properties": {}}, {"species": [{"element": "S", "occu": 1}], "abc": [0.15632424, 0.08216865, 0.30456695], "xyz": [1.0952146132047003, 0.8237535345594, 12.2091582689008], "label": "S", "properties": {}}, {"species": [{"element": "S", "occu": 1}], "abc": [0.68222146, 0.60233795, 0.29836341], "xyz": [4.7795000124769, 6.038531913470201, 11.96047730831904], "label": "S", "properties": {}}, {"species": [{"element": "S", "occu": 1}], "abc": [0.18264691, 0.41844196, 0.30358748], "xyz": [1.2794021956027601, 4.194945925945761, 12.169894309861121], "label": "S", "properties": {}}, {"species": [{"element": "S", "occu": 1}], "abc": [0.35082386, 0.76211347, 0.34462883], "xyz": [2.4574751601636198, 7.64030642645132, 13.81511660899552], "label": "S", "properties": {}}, {"species": [{"element": "S", "occu": 1}], "abc": [0.80812676, 0.26316716, 0.34008863], "xyz": [5.66188759244696, 2.6382918330769605, 13.63311386584672], "label": "S", "properties": {}}, {"species": [{"element": "S", "occu": 1}], "abc": [0.65536824, 0.93667218, 0.29512946], "xyz": [4.59111636016428, 9.39028472536008, 11.830838135770241], "label": "S", "properties": {}}, {"species": [{"element": "S", "occu": 1}], "abc": [0.85405878, 0.26333911, 0.25632509000000003], "xyz": [5.98370649324306, 2.6400156586511603, 10.275289528624961], "label": "S", "properties": {}}, {"species": [{"element": "S", "occu": 1}], "abc": [0.30354835, 0.75208334, 0.26120806], "xyz": [2.1262502429022403, 7.53975280850104, 10.47103287356864], "label": "S", "properties": {}}, {"species": [{"element": "S", "occu": 1}], "abc": [0.1466812, 0.59384782, 0.4359871], "xyz": [1.0272860859605202, 5.953417035759921, 17.477390462422402], "label": "S", "properties": {}}, {"species": [{"element": "S", "occu": 1}], "abc": [0.696091, 0.11618439, 0.42158863], "xyz": [4.87702294856554, 1.1647666345148402, 16.90019980184672], "label": "S", "properties": {}}, {"species": [{"element": "S", "occu": 1}], "abc": [0.16167678, 0.92644307, 0.43794362000000003], "xyz": [1.13211394457562, 9.287736301868922, 17.55582137009728], "label": "S", "properties": {}}, {"species": [{"element": "S", "occu": 1}], "abc": [0.38633337, 0.27270778, 0.47136558], "xyz": [2.70661913688048, 2.7339380369136803, 18.89560560898752], "label": "S", "properties": {}}, {"species": [{"element": "S", "occu": 1}], "abc": [0.76596382, 0.76599342, 0.46900953], "xyz": [5.36611730842252, 7.679203530473521, 18.80115876457632], "label": "S", "properties": {}}, {"species": [{"element": "S", "occu": 1}], "abc": [0.66122244, 0.44798195, 0.41711164], "xyz": [4.632482268952501, 4.491088933934201, 16.720730954428163], "label": "S", "properties": {}}, {"species": [{"element": "S", "occu": 1}], "abc": [0.85512058, 0.7736432, 0.38621708], "xyz": [5.990781552878801, 7.755893768339201, 15.48226245780352], "label": "S", "properties": {}}, {"species": [{"element": "S", "occu": 1}], "abc": [0.30150729, 0.25993464, 0.38774708], "xyz": [2.1123011134688396, 2.60588531580384, 15.543595482123521], "label": "S", "properties": {}}]}, "formula": "", "bandgap": 2.4214, "slab_thickness": 19.01639518777888}