{"miller": "101_0.20", "final_energy": -261.39447902, "gamma": 0.014199926399655257, "work_function": "Not calculated", "ionization_potentail": "Not calculated", "electron_affinity": "Not calculated", "is_stochiometric": true, "incar_parameters": {"SYSTEM": "unknown system", "LCOMPAT": false, "PREC": "normal", "ENMAX": 520.0, "ENAUG": 368.056, "EDIFF": 1e-05, "IALGO": 38, "IWAVPR": 11, "NBANDS": 240, "NBANDSLOW": -1, "NBANDSHIGH": -1, "NELECT": 400.0, "TURBO": 0, "IRESTART": 0, "NREBOOT": 0, "NMIN": 0, "EREF": 0.0, "ISMEAR": 0, "SIGMA": 0.05, "KSPACING": 0.5, "KGAMMA": true, "KBLOWUP": true, "LREAL": true, "ROPT": [-0.0005, -0.0005, -0.0005], "LMAXPAW": -100, "LMAXMIX": 2, "NLSPLINE": false, "ISTART": 0, "ICHARG": 2, "INIWAV": 1, "ISPIN": 1, "LNONCOLLINEAR": false, "MAGMOM": [0.6, 0.6, 0.6, 0.6, 0.6, 0.6, 0.6, 0.6, 0.6, 0.6, 0.6, 0.6, 0.6, 0.6, 0.6, 0.6, 0.6, 0.6, 0.6, 0.6, 0.6, 0.6, 0.6, 0.6, 0.6, 0.6, 0.6, 0.6, 0.6, 0.6, 0.6, 0.6, 0.6, 0.6, 0.6, 0.6, 0.6, 0.6, 0.6, 0.6, 0.6, 0.6, 0.6, 0.6, 0.6, 0.6, 0.6, 0.6, 0.6, 0.6, 0.6, 0.6, 0.6, 0.6, 0.6, 0.6, 0.6, 0.6, 0.6, 0.6, 0.6, 0.6, 0.6, 0.6], "NUPDOWN": -1.0, "LSORBIT": false, "SAXIS": [0.0, 0.0, 1.0], "LSPIRAL": false, "QSPIRAL": [0.0, 0.0, 0.0], "LZEROZ": false, "LASPH": false, "LMETAGGA": false, "NELM": 100, "NELMDL": -5, "NELMIN": 6, "ENINI": 520.0, "LDIAG": true, "LSUBROT": false, "WEIMIN": 0.001, "EBREAK": 1e-08, "DEPER": 0.3, "NRMM": 4, "TIME": 0.4, "AMIX": 0.4, "BMIX": 1.0, "AMIN": 0.1, "AMIX_MAG": 1.6, "BMIX_MAG": 1.0, "IMIX": 4, "MIXFIRST": false, "MAXMIX": -45, "WC": 100.0, "INIMIX": 1, "MIXPRE": 1, "MREMOVE": 5, "LDIPOL": false, "LMONO": false, "IDIPOL": 0, "EPSILON": 1.0, "DIPOL": [-100.0, -100.0, -100.0], "EFIELD": 0.0, "NGX": 40, "NGY": 56, "NGZ": 224, "NGXF": 80, "NGYF": 112, "NGZF": 448, "ADDGRID": false, "NSW": 150, "IBRION": 2, "MDALGO": 0, "ISIF": 2, "PSTRESS": 0.0, "EDIFFG": -0.01, "NFREE": 1, "POTIM": 0.5, "SMASS": -3.0, "SCALEE": 1.0, "TEBEG": 0.0001, "TEEND": 0.0001, "NBLOCK": 1, "KBLOCK": 150, "NPACO": 256, "APACO": 10.0, "ISYM": 0, "SYMPREC": 1e-05, "LORBIT": 11, "RWIGS": [-1.0, -1.0, -1.0], "NEDOS": 301, "EMIN": 10.0, "EMAX": -10.0, "EFERMI": 0.0, "NWRITE": 2, "LWAVE": false, "LDOWNSAMPLE": false, "LCHARG": false, "LPARD": false, "LVTOT": false, "LVHAR": false, "LELF": false, "LOPTICS": false, "STM": [0.0, 0.0, 0.0, 0.0, 0.0, 0.0, 0.0], "NPAR": 1, "NSIM": 4, "NBLK": -1, "LPLANE": true, "LSCALAPACK": true, "LSCAAWARE": false, "LSCALU": false, "LASYNC": false, "LORBITALREAL": false, "IDIOT": 3, "PHON_NSTRUCT": -1, "LMUSIC": false, "POMASS": [22.99, 30.974, 32.066], "DARWINR": [0.0, 0.0, 0.0], "DARWINV": [1.0, 1.0, 1.0], "LCORR": true, "GGA_COMPAT": true, "LBERRY": false, "ICORELEVEL": 0, "LDAU": false, "I_CONSTRAINED_M": 0, "GGA": "--", "VOSKOWN": 0, "LHFCALC": false, "PRECFOCK": "", "LSYMGRAD": false, "LHFONE": false, "LRHFCALC": false, "LTHOMAS": false, "LMODELHF": false, "LFOCKACE": false, "ENCUT4O": -1.0, "EXXOEP": 0, "FOURORBIT": 0, "AEXX": 0.0, "HFALPHA": 0.0, "MCALPHA": 0.0, "ALDAX": 1.0, "AGGAX": 1.0, "ALDAC": 1.0, "AGGAC": 1.0, "NKREDX": 1, "NKREDY": 1, "NKREDZ": 1, "SHIFTRED": false, "ODDONLY": false, "EVENONLY": false, "LMAXFOCK": 0, "NMAXFOCKAE": 0, "LFOCKAEDFT": false, "HFSCREEN": 0.0, "HFSCREENC": 0.0, "NBANDSGWLOW": 0, "LUSE_VDW": false, "Zab_VDW": -0.8491, "PARAM1": 0.1234, "PARAM2": 1.0, "PARAM3": 0.0, "MODEL_GW": 0, "MODEL_EPS0": 26.39742306, "MODEL_ALPHA": 1.0, "LEPSILON": false, "LRPA": false, "LNABLA": false, "LVEL": false, "CSHIFT": 0.1, "OMEGAMAX": -1.0, "DEG_THRESHOLD": 0.002, "RTIME": -0.1, "WPLASMAI": 0.0, "DFIELD": [0.0, 0.0, 0.0], "WPLASMA": [0.0, 0.0, 0.0, 0.0, 0.0, 0.0, 0.0, 0.0, 0.0], "NUCIND": false, "MAGPOS": [0.0, 0.0, 0.0], "LNICSALL": true, "ORBITALMAG": false, "LMAGBLOCH": false, "LCHIMAG": false, "LGAUGE": true, "MAGATOM": 0, "MAGDIPOL": [0.0, 0.0, 0.0], "AVECCONST": [0.0, 0.0, 0.0], "LFINITE_TEMPERATURE": false, "LADDER": false, "LRPAFORCE": false, "LFXC": false, "LHARTREE": true, "IBSE": 0, "KPOINT": [-1, 0, 0, 0], "LTCTC": false, "LTCTE": false, "LTETE": false, "LTRIPLET": false, "LFXCEPS": false, "LFXHEG": false, "NATURALO": 2, "LHOLEGF": false, "L2ORDER": false, "LDMP1": false, "LMP2LT": false, "LSMP2LT": false, "LGWLF": false, "ENCUTGW": -2.0, "ENCUTGWSOFT": -2.0, "ENCUTLF": -1.0, "LESF_SPLINES": false, "LMAXMP2": -1, "SCISSOR": 0.0, "NOMEGA": 0, "NOMEGAR": 0, "NBANDSGW": -1, "NBANDSO": -1, "NBANDSV": -1, "NELMGW": 1, "NELMHF": 1, "DIM": 3, "IESPILON": 4, "ANTIRES": 0, "OMEGAMIN": -30.0, "OMEGATL": -200.0, "OMEGAGRID": 0, "LSELFENERGY": false, "LSPECTRAL": false, "LSPECTRALGW": false, "LSINGLES": false, "LFERMIGW": false, "ODDONLYGW": false, "EVENONLYGW": false, "NKREDLFX": 1, "NKREDLFY": 1, "NKREDLFZ": 1, "MAXMEM": 2800, "TELESCOPE": 0, "NTAUPAR": -1, "NOMEGAPAR": -1, "DAMP_NEWTON": 0.80000001, "LAMBDA": 1.0, "OFIELD_KAPPA": 0.0, "OFIELD_K": [0.0, 0.0, 0.0], "OFIELD_Q6_NEAR": 0.0, "OFIELD_Q6_FAR": 0.0, "OFIELD_A": 0.0, "KPOINTS_OPT_MODE": 1, "LKPOINTS_OPT": false, "@module": "pymatgen.io.vasp.inputs", "@class": "Incar"}, "relaxed_structures": {"@module": "pymatgen.core.structure", "@class": "Structure", "charge": 0, "lattice": {"matrix": [[7.00642, 0.0, 0.0], [-0.000714, 10.025156, 0.0], [0.0, 0.0, 40.086944]], "a": 7.00642, "b": 10.02515602542584, "c": 40.086944, "alpha": 90.0, "beta": 90.0, "gamma": 90.00408065335873, "volume": 2815.7251260500366}, "sites": [{"species": [{"element": "Na", "occu": 1}], "abc": [0.5137262, 0.07073928, 0.03439491000000001], "xyz": [3.5993310143580803, 0.70917231732768, 1.3787868310550404], "label": "Na", "properties": {}}, {"species": [{"element": "Na", "occu": 1}], "abc": [0.99893175, 0.83568641, 0.00010000000000000286], "xyz": [6.998338711738261, 8.37788662732996, 0.004008694400000115], "label": "Na", "properties": {}}, {"species": [{"element": "Na", "occu": 1}], "abc": [0.00923756, 0.38413264, 0.0023501500000000022], "xyz": [0.06444795443024001, 3.8509896406918407, 0.0942103314416001], "label": "Na", "properties": {}}, {"species": [{"element": "Na", "occu": 1}], "abc": [0.98191033, 0.63520467, 0.06255332], "xyz": [6.8792226381842205, 6.368025908678521, 2.50757143585408], "label": "Na", "properties": {}}, {"species": [{"element": "Na", "occu": 1}], "abc": [0.4951954, 0.58256671, 0.16081445], "xyz": [3.46913100183706, 5.840322148156761, 6.4465598515408], "label": "Na", "properties": {}}, {"species": [{"element": "Na", "occu": 1}], "abc": [0.51818181, 0.3301768, 0.09715379999999998], "xyz": [3.630363650985, 3.3100739275808, 3.8945989399871994], "label": "Na", "properties": {}}, {"species": [{"element": "Na", "occu": 1}], "abc": [0.02068655, 0.34387085, 0.11643218999999999], "xyz": [0.14469313386410004, 3.4473589151026003, 4.66741068032736], "label": "Na", "properties": {}}, {"species": [{"element": "Na", "occu": 1}], "abc": [0.49637396, 0.87573224, 0.10563059999999999], "xyz": [3.47717916800384, 8.77935232022944, 4.2344079468863995], "label": "Na", "properties": {}}, {"species": [{"element": "Na", "occu": 1}], "abc": [0.99527138, 0.90957113, 0.12357528000000001], "xyz": [6.972639868472781, 9.11859247134628, 4.953755329144321], "label": "Na", "properties": {}}, {"species": [{"element": "Na", "occu": 1}], "abc": [0.99811976, 0.15703869, 0.18745676], "xyz": [6.993134123234541, 1.5743373652856403, 7.514568640541441], "label": "Na", "properties": {}}, {"species": [{"element": "Na", "occu": 1}], "abc": [0.49833916, 0.09666463, 0.28684017], "xyz": [3.4915044388613805, 0.9690779954322801, 11.498545831740481], "label": "Na", "properties": {}}, {"species": [{"element": "Na", "occu": 1}], "abc": [0.49883481, 0.83383538, 0.22540063], "xyz": [3.4944508310188804, 8.35932976281928, 9.035622432374721], "label": "Na", "properties": {}}, {"species": [{"element": "Na", "occu": 1}], "abc": [0.00038746, 0.86362145, 0.24049681], "xyz": [0.0020980817779000004, 8.6579397611962, 9.64078215464864], "label": "Na", "properties": {}}, {"species": [{"element": "Na", "occu": 1}], "abc": [0.50060558, 0.38984459, 0.23368307], "xyz": [3.50717459878634, 3.9082528305060404, 9.36764014083808], "label": "Na", "properties": {}}, {"species": [{"element": "Na", "occu": 1}], "abc": [0.99868403, 0.41899631, 0.24906977000000002], "xyz": [6.99690059810726, 4.20050337117436, 9.984445922082882], "label": "Na", "properties": {}}, {"species": [{"element": "Na", "occu": 1}], "abc": [0.99481103, 0.66923915, 0.31353101], "xyz": [6.969586060059501, 6.7092268800574, 12.56850004013344], "label": "Na", "properties": {}}, {"species": [{"element": "Na", "occu": 1}], "abc": [0.48180648, 0.61668184, 0.4118385], "xyz": [3.3752982467678403, 6.1823316483670405, 16.509346886544], "label": "Na", "properties": {}}, {"species": [{"element": "Na", "occu": 1}], "abc": [0.49546268, 0.34265144, 0.35098657], "xyz": [3.4711749772774403, 3.43513413962464, 14.06997897634208], "label": "Na", "properties": {}}, {"species": [{"element": "Na", "occu": 1}], "abc": [0.99683754, 0.37578512, 0.36891127], "xyz": [6.9839941664311205, 3.76730445047872, 14.788525421458882], "label": "Na", "properties": {}}, {"species": [{"element": "Na", "occu": 1}], "abc": [0.51962742, 0.90891267, 0.35796289], "xyz": [3.6400789843900196, 9.111991307126521, 14.34963832550816], "label": "Na", "properties": {}}, {"species": [{"element": "Na", "occu": 1}], "abc": [0.01751771, 0.9213777, 0.37684211], "xyz": [0.1220785700204, 9.236955177421201, 15.106448560411842], "label": "Na", "properties": {}}, {"species": [{"element": "Na", "occu": 1}], "abc": [0.01412099, 0.18035216, 0.44007139], "xyz": [0.09880881531356, 1.8080585389369603, 17.641117166932162], "label": "Na", "properties": {}}, {"species": [{"element": "Na", "occu": 1}], "abc": [0.50877516, 0.86712226, 0.47195257], "xyz": [3.56407333123356, 8.693035927572561, 18.919136244246083], "label": "Na", "properties": {}}, {"species": [{"element": "Na", "occu": 1}], "abc": [0.49929486, 0.41624171, 0.47430225000000004], "xyz": [3.49797229642026, 4.17288807645676, 19.013327734824003], "label": "Na", "properties": {}}, {"species": [{"element": "P", "occu": 1}], "abc": [0.00948322, 0.10439457, 0.05017610000000001], "xyz": [0.06636888454942001, 1.0465718498029202, 2.0114065108384005], "label": "P", "properties": {}}, {"species": [{"element": "P", "occu": 1}], "abc": [0.48350313, 0.61374882, 0.04139446], "xyz": [3.3871877834371205, 6.152927665315921, 1.6593773999302401], "label": "P", "properties": {}}, {"species": [{"element": "P", "occu": 1}], "abc": [0.99941841, 0.6162046, 0.17491674], "xyz": [7.001905166107799, 6.1775472429176, 7.01187756104256], "label": "P", "properties": {}}, {"species": [{"element": "P", "occu": 1}], "abc": [0.50029172, 0.12331203, 0.17328165], "xyz": [3.50516586805298, 1.23622233742668, 6.9463317997776], "label": "P", "properties": {}}, {"species": [{"element": "P", "occu": 1}], "abc": [0.00073275, 0.12944123, 0.30094238], "xyz": [0.00504153321678, 1.2976685235818801, 12.063860334286721], "label": "P", "properties": {}}, {"species": [{"element": "P", "occu": 1}], "abc": [0.49908868, 0.63622605, 0.29967803], "xyz": [3.4963706439259004, 6.378265402513801, 12.01317640664032], "label": "P", "properties": {}}, {"species": [{"element": "P", "occu": 1}], "abc": [0.98287369, 0.63893178, 0.43292975], "xyz": [6.88596968179888, 6.40539076785768, 17.354830644184002], "label": "P", "properties": {}}, {"species": [{"element": "P", "occu": 1}], "abc": [0.50976209, 0.14711293, 0.4242289], "xyz": [3.57150226398578, 1.4748300728670802, 17.006040157481603], "label": "P", "properties": {}}, {"species": [{"element": "S", "occu": 1}], "abc": [0.16215364, 0.93064367, 0.05734355], "xyz": [1.1354520267884198, 9.32984797216252, 2.2987276776112], "label": "S", "properties": {}}, {"species": [{"element": "S", "occu": 1}], "abc": [0.66372046, 0.45276949, 0.036789770000000006], "xyz": [4.64998102793734, 4.53908476929044, 1.4747894497628804], "label": "S", "properties": {}}, {"species": [{"element": "S", "occu": 1}], "abc": [0.19616067, 0.26235505, 0.05301162], "xyz": [1.3741967199957001, 2.6301503036378002, 2.12507384228928], "label": "S", "properties": {}}, {"species": [{"element": "S", "occu": 1}], "abc": [0.64795637, 0.78527959, 0.03865785], "xyz": [4.53929378026814, 7.872550393366041, 1.5496750681104001], "label": "S", "properties": {}}, {"species": [{"element": "S", "occu": 1}], "abc": [0.88672084, 0.10554191, 0.0031644400000000045], "xyz": [6.21266327086906, 1.0580741122879602, 0.1268527290713602], "label": "S", "properties": {}}, {"species": [{"element": "S", "occu": 1}], "abc": [0.26788242, 0.61236762, 0.0056089800000000065], "xyz": [1.8764595146557204, 6.139080919848721, 0.22484686715712027], "label": "S", "properties": {}}, {"species": [{"element": "S", "occu": 1}], "abc": [0.15676351, 0.44273661, 0.17964187], "xyz": [1.09803487779466, 4.43850358216116, 7.201293582745281], "label": "S", "properties": {}}, {"species": [{"element": "S", "occu": 1}], "abc": [0.68198907, 0.9610926, 0.17092176], "xyz": [4.777615639713001, 9.6351032454456, 6.851731021501441], "label": "S", "properties": {}}, {"species": [{"element": "S", "occu": 1}], "abc": [0.18266614, 0.77738081, 0.17632979], "xyz": [1.27928064672046, 7.793363891656361, 7.06852241726176], "label": "S", "properties": {}}, {"species": [{"element": "S", "occu": 1}], "abc": [0.35654163, 0.60525172, 0.08840740999999999], "xyz": [2.49764825753652, 6.067742912268321, 3.54398289385504], "label": "S", "properties": {}}, {"species": [{"element": "S", "occu": 1}], "abc": [0.80204969, 0.11811801, 0.08682276], "xyz": [5.61941265275066, 1.18415147665956, 3.4804591180454403], "label": "S", "properties": {}}, {"species": [{"element": "S", "occu": 1}], "abc": [0.65690805, 0.29739534, 0.16950941], "xyz": [4.60236135940824, 2.9814346771730404, 6.79511422614304], "label": "S", "properties": {}}, {"species": [{"element": "S", "occu": 1}], "abc": [0.85211647, 0.6166808, 0.13015173], "xyz": [5.969845567646201, 6.182321222204801, 5.21738511201312], "label": "S", "properties": {}}, {"species": [{"element": "S", "occu": 1}], "abc": [0.30688287, 0.11610122, 0.13451914], "xyz": [2.15006738175432, 1.1639328422903201, 5.392461232108161], "label": "S", "properties": {}}, {"species": [{"element": "S", "occu": 1}], "abc": [0.15716379, 0.95532797, 0.30452595], "xyz": [1.10047341736122, 9.577311930413321, 12.2075147041968], "label": "S", "properties": {}}, {"species": [{"element": "S", "occu": 1}], "abc": [0.68231698, 0.4750785, 0.29822939], "xyz": [4.7802601289626, 4.762736074746001, 11.95510485608416], "label": "S", "properties": {}}, {"species": [{"element": "S", "occu": 1}], "abc": [0.18259708, 0.29148209, 0.3033632], "xyz": [1.27914371504134, 2.9221534234560407, 12.160903610060801], "label": "S", "properties": {}}, {"species": [{"element": "S", "occu": 1}], "abc": [0.35523371, 0.11749766, 0.21823472], "xyz": [2.48883267708896, 1.17793237113496, 8.748362999495681], "label": "S", "properties": {}}, {"species": [{"element": "S", "occu": 1}], "abc": [0.80469874, 0.6272736, 0.21358268000000002], "xyz": [5.6376094725604, 6.2885156946816005, 8.561876932529922], "label": "S", "properties": {}}, {"species": [{"element": "S", "occu": 1}], "abc": [0.65632016, 0.80971232, 0.2950287], "xyz": [4.597876560830721, 8.11749232312192, 11.8267989752928], "label": "S", "properties": {}}, {"species": [{"element": "S", "occu": 1}], "abc": [0.8552634, 0.13549457, 0.25602157999999997], "xyz": [5.99223784790502, 1.3583542014029202, 10.26312274025152], "label": "S", "properties": {}}, {"species": [{"element": "S", "occu": 1}], "abc": [0.30497616, 0.62538408, 0.26091176], "xyz": [2.1363445427140797, 6.269572961916481, 10.45915511206144], "label": "S", "properties": {}}, {"species": [{"element": "S", "occu": 1}], "abc": [0.1477825, 0.46777045, 0.43588999], "xyz": [1.0350922755487002, 4.6894717334402, 17.473497619290562], "label": "S", "properties": {}}, {"species": [{"element": "S", "occu": 1}], "abc": [0.69597794, 0.9889383, 0.42130154], "xyz": [4.8756076564286, 9.914260731874801, 16.88869124109376], "label": "S", "properties": {}}, {"species": [{"element": "S", "occu": 1}], "abc": [0.16215528, 0.80046742, 0.43736606], "xyz": [1.1355564631597201, 8.024810758417521, 17.532668754720643], "label": "S", "properties": {}}, {"species": [{"element": "S", "occu": 1}], "abc": [0.35123165, 0.63565669, 0.34437913], "xyz": [2.4604225983163404, 6.372557479693641, 13.80510689907872], "label": "S", "properties": {}}, {"species": [{"element": "S", "occu": 1}], "abc": [0.80753362, 0.13654309, 0.33974164], "xyz": [5.65782221407414, 1.3688657779720401, 13.619204097148161], "label": "S", "properties": {}}, {"species": [{"element": "S", "occu": 1}], "abc": [0.6626338, 0.32080948, 0.41708218], "xyz": [4.642461651027281, 3.21616508327888, 16.71954999305792], "label": "S", "properties": {}}, {"species": [{"element": "S", "occu": 1}], "abc": [0.85576099, 0.64614503, 0.38593162999999997], "xyz": [5.99535956800438, 6.47770472437468, 15.47081963963872], "label": "S", "properties": {}}, {"species": [{"element": "S", "occu": 1}], "abc": [0.30180812, 0.13383631, 0.38763772], "xyz": [2.11449888900506, 1.3417298862143603, 15.539211573927682], "label": "S", "properties": {}}, {"species": [{"element": "S", "occu": 1}], "abc": [0.38733448, 0.14604531, 0.47124415], "xyz": [2.71372377101026, 1.4641270158183601, 18.8907378513776], "label": "S", "properties": {}}, {"species": [{"element": "S", "occu": 1}], "abc": [0.76749951, 0.63972184, 0.46879024], "xyz": [5.376967155460441, 6.41331124260704, 18.79236809862656], "label": "S", "properties": {}}]}, "formula": "", "bandgap": 2.4203, "slab_thickness": 19.009319040424003}