{"miller": "110_0.48", "final_energy": -261.08499288, "gamma": 0.016217957070362412, "work_function": 4.170564888545101, "ionization_potentail": -4.416064888545101, "electron_affinity": -1.9921648885451009, "is_stochiometric": true, "incar_parameters": {"SYSTEM": "unknown system", "LCOMPAT": false, "PREC": "normal", "ENMAX": 520.0, "ENAUG": 368.056, "EDIFF": 1e-05, "IALGO": 38, "IWAVPR": 11, "NBANDS": 240, "NBANDSLOW": -1, "NBANDSHIGH": -1, "NELECT": 400.0, "TURBO": 0, "IRESTART": 0, "NREBOOT": 0, "NMIN": 0, "EREF": 0.0, "ISMEAR": 0, "SIGMA": 0.05, "KSPACING": 0.5, "KGAMMA": true, "KBLOWUP": true, "LREAL": true, "ROPT": [-0.0005, -0.0005, -0.0005], "LMAXPAW": -100, "LMAXMIX": 2, "NLSPLINE": false, "ISTART": 0, "ICHARG": 2, "INIWAV": 1, "ISPIN": 1, "LNONCOLLINEAR": false, "MAGMOM": [0.6, 0.6, 0.6, 0.6, 0.6, 0.6, 0.6, 0.6, 0.6, 0.6, 0.6, 0.6, 0.6, 0.6, 0.6, 0.6, 0.6, 0.6, 0.6, 0.6, 0.6, 0.6, 0.6, 0.6, 0.6, 0.6, 0.6, 0.6, 0.6, 0.6, 0.6, 0.6, 0.6, 0.6, 0.6, 0.6, 0.6, 0.6, 0.6, 0.6, 0.6, 0.6, 0.6, 0.6, 0.6, 0.6, 0.6, 0.6, 0.6, 0.6, 0.6, 0.6, 0.6, 0.6, 0.6, 0.6, 0.6, 0.6, 0.6, 0.6, 0.6, 0.6, 0.6, 0.6], "NUPDOWN": -1.0, "LSORBIT": false, "SAXIS": [0.0, 0.0, 1.0], "LSPIRAL": false, "QSPIRAL": [0.0, 0.0, 0.0], "LZEROZ": false, "LASPH": false, "LMETAGGA": false, "NELM": 100, "NELMDL": -5, "NELMIN": 6, "ENINI": 520.0, "LDIAG": true, "LSUBROT": false, "WEIMIN": 0.001, "EBREAK": 1e-08, "DEPER": 0.3, "NRMM": 4, "TIME": 0.4, "AMIX": 0.4, "BMIX": 1.0, "AMIN": 0.1, "AMIX_MAG": 1.6, "BMIX_MAG": 1.0, "IMIX": 4, "MIXFIRST": false, "MAXMIX": -45, "WC": 100.0, "INIMIX": 1, "MIXPRE": 1, "MREMOVE": 5, "LDIPOL": false, "LMONO": false, "IDIPOL": 0, "EPSILON": 1.0, "DIPOL": [-100.0, -100.0, -100.0], "EFIELD": 0.0, "NGX": 40, "NGY": 56, "NGZ": 280, "NGXF": 80, "NGYF": 112, "NGZF": 560, "ADDGRID": false, "NSW": 150, "IBRION": 2, "MDALGO": 0, "ISIF": 2, "PSTRESS": 0.0, "EDIFFG": -0.01, "NFREE": 1, "POTIM": 0.5, "SMASS": -3.0, "SCALEE": 1.0, "TEBEG": 0.0001, "TEEND": 0.0001, "NBLOCK": 1, "KBLOCK": 150, "NPACO": 256, "APACO": 10.0, "ISYM": 0, "SYMPREC": 1e-05, "LORBIT": 11, "RWIGS": [-1.0, -1.0, -1.0], "NEDOS": 301, "EMIN": 10.0, "EMAX": -10.0, "EFERMI": 0.0, "NWRITE": 2, "LWAVE": false, "LDOWNSAMPLE": false, "LCHARG": false, "LPARD": false, "LVTOT": false, "LVHAR": false, "LELF": false, "LOPTICS": false, "STM": [0.0, 0.0, 0.0, 0.0, 0.0, 0.0, 0.0], "NPAR": 1, "NSIM": 4, "NBLK": -1, "LPLANE": true, "LSCALAPACK": true, "LSCAAWARE": false, "LSCALU": false, "LASYNC": false, "LORBITALREAL": false, "IDIOT": 3, "PHON_NSTRUCT": -1, "LMUSIC": false, "POMASS": [22.99, 30.974, 32.066], "DARWINR": [0.0, 0.0, 0.0], "DARWINV": [1.0, 1.0, 1.0], "LCORR": true, "GGA_COMPAT": true, "LBERRY": false, "ICORELEVEL": 0, "LDAU": false, "I_CONSTRAINED_M": 0, "GGA": "--", "VOSKOWN": 0, "LHFCALC": false, "PRECFOCK": "", "LSYMGRAD": false, "LHFONE": false, "LRHFCALC": false, "LTHOMAS": false, "LMODELHF": false, "LFOCKACE": false, "ENCUT4O": -1.0, "EXXOEP": 0, "FOURORBIT": 0, "AEXX": 0.0, "HFALPHA": 0.0, "MCALPHA": 0.0, "ALDAX": 1.0, "AGGAX": 1.0, "ALDAC": 1.0, "AGGAC": 1.0, "NKREDX": 1, "NKREDY": 1, "NKREDZ": 1, "SHIFTRED": false, "ODDONLY": false, "EVENONLY": false, "LMAXFOCK": 0, "NMAXFOCKAE": 0, "LFOCKAEDFT": false, "HFSCREEN": 0.0, "HFSCREENC": 0.0, "NBANDSGWLOW": 0, "LUSE_VDW": false, "Zab_VDW": -0.8491, "PARAM1": 0.1234, "PARAM2": 1.0, "PARAM3": 0.0, "MODEL_GW": 0, "MODEL_EPS0": 32.99678009, "MODEL_ALPHA": 1.0, "LEPSILON": false, "LRPA": false, "LNABLA": false, "LVEL": false, "CSHIFT": 0.1, "OMEGAMAX": -1.0, "DEG_THRESHOLD": 0.002, "RTIME": -0.1, "WPLASMAI": 0.0, "DFIELD": [0.0, 0.0, 0.0], "WPLASMA": [0.0, 0.0, 0.0, 0.0, 0.0, 0.0, 0.0, 0.0, 0.0], "NUCIND": false, "MAGPOS": [0.0, 0.0, 0.0], "LNICSALL": true, "ORBITALMAG": false, "LMAGBLOCH": false, "LCHIMAG": false, "LGAUGE": true, "MAGATOM": 0, "MAGDIPOL": [0.0, 0.0, 0.0], "AVECCONST": [0.0, 0.0, 0.0], "LFINITE_TEMPERATURE": false, "LADDER": false, "LRPAFORCE": false, "LFXC": false, "LHARTREE": true, "IBSE": 0, "KPOINT": [-1, 0, 0, 0], "LTCTC": false, "LTCTE": false, "LTETE": false, "LTRIPLET": false, "LFXCEPS": false, "LFXHEG": false, "NATURALO": 2, "LHOLEGF": false, "L2ORDER": false, "LDMP1": false, "LMP2LT": false, "LSMP2LT": false, "LGWLF": false, "ENCUTGW": -2.0, "ENCUTGWSOFT": -2.0, "ENCUTLF": -1.0, "LESF_SPLINES": false, "LMAXMP2": -1, "SCISSOR": 0.0, "NOMEGA": 0, "NOMEGAR": 0, "NBANDSGW": -1, "NBANDSO": -1, "NBANDSV": -1, "NELMGW": 1, "NELMHF": 1, "DIM": 3, "IESPILON": 4, "ANTIRES": 0, "OMEGAMIN": -30.0, "OMEGATL": -200.0, "OMEGAGRID": 0, "LSELFENERGY": false, "LSPECTRAL": false, "LSPECTRALGW": false, "LSINGLES": false, "LFERMIGW": false, "ODDONLYGW": false, "EVENONLYGW": false, "NKREDLFX": 1, "NKREDLFY": 1, "NKREDLFZ": 1, "MAXMEM": 2800, "TELESCOPE": 0, "NTAUPAR": -1, "NOMEGAPAR": -1, "DAMP_NEWTON": 0.80000001, "LAMBDA": 1.0, "OFIELD_KAPPA": 0.0, "OFIELD_K": [0.0, 0.0, 0.0], "OFIELD_Q6_NEAR": 0.0, "OFIELD_Q6_FAR": 0.0, "OFIELD_A": 0.0, "KPOINTS_OPT_MODE": 1, "LKPOINTS_OPT": false, "@module": "pymatgen.io.vasp.inputs", "@class": "Incar"}, "relaxed_structures": {"@module": "pymatgen.core.structure", "@class": "Structure", "charge": 0, "lattice": {"matrix": [[7.169815, 0.0, 0.0], [0.0, 9.908452, 0.0], [0.0, 0.0, 49.543482]], "a": 7.169815, "b": 9.908452, "c": 49.543482, "alpha": 90.0, "beta": 90.0, "gamma": 90.0, "volume": 3519.656543077262}, "sites": [{"species": [{"element": "Na", "occu": 1}], "abc": [0.98216456, 0.25966219, 0.001797099999999996], "xyz": [7.0419381947563995, 2.57285034582988, 0.08903459150219979], "label": "Na", "properties": {}}, {"species": [{"element": "Na", "occu": 1}], "abc": [0.00809898, 0.71393394, 0.00010000000000000286], "xyz": [0.0580681882887, 7.07398017566088, 0.004954348200000141], "label": "Na", "properties": {}}, {"species": [{"element": "Na", "occu": 1}], "abc": [0.55764572, 0.7399606, 0.08834505999999999], "xyz": [3.9982166479418, 7.3318640869912, 4.376921889898919], "label": "Na", "properties": {}}, {"species": [{"element": "Na", "occu": 1}], "abc": [0.05160698, 0.77154677, 0.09611373999999999], "xyz": [0.37001249930869995, 7.644834136300041, 4.7618093476426795], "label": "Na", "properties": {}}, {"species": [{"element": "Na", "occu": 1}], "abc": [0.02331016, 0.51291953, 0.049939540000000004], "xyz": [0.1671295348204, 5.08223854286756, 2.47417870107828], "label": "Na", "properties": {}}, {"species": [{"element": "Na", "occu": 1}], "abc": [0.47093589, 0.94725045, 0.030583509999999994], "xyz": [3.37652320816035, 9.3857856158034, 1.5152135771818196], "label": "Na", "properties": {}}, {"species": [{"element": "Na", "occu": 1}], "abc": [0.43834354, 0.22311692, 0.08102306], "xyz": [3.1428420882450996, 2.21074329220784, 4.01416451469492], "label": "Na", "properties": {}}, {"species": [{"element": "Na", "occu": 1}], "abc": [0.91843246, 0.23437488, 0.08970533000000001], "xyz": [6.5849908281949, 2.32229224848576, 4.44431440215906], "label": "Na", "properties": {}}, {"species": [{"element": "Na", "occu": 1}], "abc": [0.60773591, 0.25237749, 0.18905720999999998], "xyz": [4.35735404355665, 2.50067024554548, 9.366552480605218], "label": "Na", "properties": {}}, {"species": [{"element": "Na", "occu": 1}], "abc": [0.10778644, 0.25216347, 0.19007400999999996], "xyz": [0.7728088343085999, 2.49854963864844, 9.416928293102817], "label": "Na", "properties": {}}, {"species": [{"element": "Na", "occu": 1}], "abc": [0.00211669, 0.01472856, 0.14513970999999998], "xyz": [0.01517627571235, 0.14593722978912, 7.190726609870218], "label": "Na", "properties": {}}, {"species": [{"element": "Na", "occu": 1}], "abc": [0.49804861, 0.46822729, 0.13571627000000003], "xyz": [3.57091639470715, 4.63940762805508, 6.723856579852141], "label": "Na", "properties": {}}, {"species": [{"element": "Na", "occu": 1}], "abc": [0.42413707, 0.73870647, 0.18881422999999997], "xyz": [3.0409843265420498, 7.3194376000844406, 9.354514405348858], "label": "Na", "properties": {}}, {"species": [{"element": "Na", "occu": 1}], "abc": [0.92408977, 0.73856283, 0.19034318], "xyz": [6.6255526942925504, 7.31801435003916, 9.430263912152759], "label": "Na", "properties": {}}, {"species": [{"element": "Na", "occu": 1}], "abc": [0.55104464, 0.77137688, 0.28302151999999997], "xyz": [3.9508881255415997, 7.643150789389761, 14.021871581732638], "label": "Na", "properties": {}}, {"species": [{"element": "Na", "occu": 1}], "abc": [0.056912, 0.73991514, 0.29079492], "xyz": [0.40804851127999997, 7.331413648763281, 14.406992884711439], "label": "Na", "properties": {}}, {"species": [{"element": "Na", "occu": 1}], "abc": [0.99860777, 0.46776721, 0.24336468], "xyz": [7.15983296846255, 4.63484894745892, 12.05713364301576], "label": "Na", "properties": {}}, {"species": [{"element": "Na", "occu": 1}], "abc": [0.50221413, 0.01475062, 0.23397175999999997], "xyz": [3.60078240248595, 0.14615581024024002, 11.591775680068318], "label": "Na", "properties": {}}, {"species": [{"element": "Na", "occu": 1}], "abc": [0.42016591, 0.23439773, 0.28934387], "xyz": [3.01251184400665, 2.32251865661396, 14.33510281515534], "label": "Na", "properties": {}}, {"species": [{"element": "Na", "occu": 1}], "abc": [0.93908127, 0.22318076, 0.29815399], "xyz": [6.73303897586505, 2.21137584778352, 14.771586836793178], "label": "Na", "properties": {}}, {"species": [{"element": "Na", "occu": 1}], "abc": [0.48422071, 0.26024261, 0.37734763], "xyz": [3.47177290986865, 2.57860140953972, 18.695115514647657], "label": "Na", "properties": {}}, {"species": [{"element": "Na", "occu": 1}], "abc": [0.97348634, 0.94761277, 0.34839550999999996], "xyz": [6.9797169628271, 9.38937564613204, 17.260726678565817], "label": "Na", "properties": {}}, {"species": [{"element": "Na", "occu": 1}], "abc": [0.52362978, 0.51276876, 0.32916366999999996], "xyz": [3.7543286510907, 5.080744645559521, 16.307914359698938], "label": "Na", "properties": {}}, {"species": [{"element": "Na", "occu": 1}], "abc": [0.51065422, 0.71444652, 0.37895613], "xyz": [3.6612962863693004, 7.07905904998704, 18.77480620544466], "label": "Na", "properties": {}}, {"species": [{"element": "P", "occu": 1}], "abc": [0.52209843, 0.48843154, 0.03344071], "xyz": [3.74334915489045, 4.83960046937608, 1.6567692139522199], "label": "P", "properties": {}}, {"species": [{"element": "P", "occu": 1}], "abc": [0.97798427, 0.98337781, 0.04059823], "xyz": [7.01196628881005, 9.74375182825012, 2.01137767723686], "label": "P", "properties": {}}, {"species": [{"element": "P", "occu": 1}], "abc": [0.50307987, 0.99769175, 0.14033904000000003], "xyz": [3.60698959812405, 9.885580815671, 6.952884702137281], "label": "P", "properties": {}}, {"species": [{"element": "P", "occu": 1}], "abc": [0.99889035, 0.49401629, 0.13899053], "xyz": [7.16185901478525, 4.8949366966830805, 6.88607482122546], "label": "P", "properties": {}}, {"species": [{"element": "P", "occu": 1}], "abc": [0.49938819, 0.49419494, 0.24007508], "xyz": [3.58052093548485, 4.896706841632881, 11.89415540462856], "label": "P", "properties": {}}, {"species": [{"element": "P", "occu": 1}], "abc": [0.0029249, 0.99774461, 0.23887227], "xyz": [0.020970991893499998, 9.88610457644372, 11.83456400904414], "label": "P", "properties": {}}, {"species": [{"element": "P", "occu": 1}], "abc": [0.47986756, 0.9837314, 0.33845208], "xyz": [3.4405616297014, 9.7472553577928, 16.76809453334256], "label": "P", "properties": {}}, {"species": [{"element": "P", "occu": 1}], "abc": [0.02228551, 0.48915848, 0.34562058], "xyz": [0.15978298388065001, 4.8468033194729605, 17.12324698405956], "label": "P", "properties": {}}, {"species": [{"element": "S", "occu": 1}], "abc": [0.73256182, 0.49211888, 0.004389009999999999], "xyz": [5.2523327254633, 4.87613630077376, 0.21744683793281994], "label": "S", "properties": {}}, {"species": [{"element": "S", "occu": 1}], "abc": [0.11275247, 0.98397779, 0.003601259999999995], "xyz": [0.8084143506930499, 9.74969670128108, 0.17841895998731974], "label": "S", "properties": {}}, {"species": [{"element": "S", "occu": 1}], "abc": [0.34204795, 0.32903472, 0.028084399999999995], "xyz": [2.4524205226292497, 3.2602247294534403, 1.3913989658807997], "label": "S", "properties": {}}, {"species": [{"element": "S", "occu": 1}], "abc": [0.7767608, 0.13082072, 0.040077470000000004], "xyz": [5.569231235252, 1.2962308247254402, 1.9855774135505402], "label": "S", "properties": {}}, {"species": [{"element": "S", "occu": 1}], "abc": [0.67793316, 0.00276795, 0.10747319000000001], "xyz": [4.8606553395654, 0.0274260997134, 5.32459605424758], "label": "S", "properties": {}}, {"species": [{"element": "S", "occu": 1}], "abc": [0.160419, 0.48448867, 0.10427072999999999], "xyz": [1.150174552485, 4.800532731238841, 5.165935034881859], "label": "S", "properties": {}}, {"species": [{"element": "S", "occu": 1}], "abc": [0.32740945, 0.83315228, 0.13686048], "xyz": [2.3474651857517497, 8.25524937507056, 6.78054472739136], "label": "S", "properties": {}}, {"species": [{"element": "S", "occu": 1}], "abc": [0.81733995, 0.65497245, 0.1368668], "xyz": [5.86017623360925, 6.489763082147401, 6.7808578421976], "label": "S", "properties": {}}, {"species": [{"element": "S", "occu": 1}], "abc": [0.36046616, 0.66250784, 0.03346164], "xyz": [2.5844756809604, 6.56442713226368, 1.65780615903048], "label": "S", "properties": {}}, {"species": [{"element": "S", "occu": 1}], "abc": [0.84713426, 0.80031504, 0.04690397], "xyz": [6.0737959243619, 7.92988315871808, 2.32378599342354], "label": "S", "properties": {}}, {"species": [{"element": "S", "occu": 1}], "abc": [0.6497849, 0.47068501, 0.07123726000000001], "xyz": [4.6588375227935, 4.663759828704521, 3.5293419085393203], "label": "S", "properties": {}}, {"species": [{"element": "S", "occu": 1}], "abc": [0.16883342, 0.01429577, 0.07135508], "xyz": [1.2105043872173, 0.14164895084804, 3.53517912158856], "label": "S", "properties": {}}, {"species": [{"element": "S", "occu": 1}], "abc": [0.6718957, 0.51596719, 0.20706638], "xyz": [4.8173678682954995, 5.11243613568988, 10.25878947033516], "label": "S", "properties": {}}, {"species": [{"element": "S", "occu": 1}], "abc": [0.15719674, 0.97659303, 0.20369643999999998], "xyz": [1.1270715444031, 9.676525161289561, 10.091830908604079], "label": "S", "properties": {}}, {"species": [{"element": "S", "occu": 1}], "abc": [0.34907255, 0.31687257, 0.2360506], "xyz": [2.50278560507825, 3.1397166499616405, 11.694768652189198], "label": "S", "properties": {}}, {"species": [{"element": "S", "occu": 1}], "abc": [0.84896644, 0.17402716, 0.23742301], "xyz": [6.0869323160086, 1.7243397615563198, 11.76276262232082], "label": "S", "properties": {}}, {"species": [{"element": "S", "occu": 1}], "abc": [0.34889345, 0.17389235, 0.1417371], "xyz": [2.5015014912117497, 1.7230040031422, 7.0221494625822], "label": "S", "properties": {}}, {"species": [{"element": "S", "occu": 1}], "abc": [0.84801784, 0.31700558, 0.14307023000000002], "xyz": [6.0801310294996, 3.1410345731621603, 7.088197364740861], "label": "S", "properties": {}}, {"species": [{"element": "S", "occu": 1}], "abc": [0.65716788, 0.97675515, 0.17552489], "xyz": [4.7117721235422, 9.6781315195278, 8.696114228266978], "label": "S", "properties": {}}, {"species": [{"element": "S", "occu": 1}], "abc": [0.17155295, 0.51591824, 0.17199341], "xyz": [1.2300029142042501, 5.11195111696448, 8.52115241245362], "label": "S", "properties": {}}, {"species": [{"element": "S", "occu": 1}], "abc": [0.67018136, 0.01394344, 0.30761181], "xyz": [4.805076367648399, 0.13815790595488, 15.240160171722419], "label": "S", "properties": {}}, {"species": [{"element": "S", "occu": 1}], "abc": [0.15000541, 0.47104869, 0.30783130999999997], "xyz": [1.07551103869915, 4.66736333452788, 15.251034966021418], "label": "S", "properties": {}}, {"species": [{"element": "S", "occu": 1}], "abc": [0.34791491, 0.80095684, 0.33227050999999996], "xyz": [2.49448554044165, 7.93624240321168, 16.461838031315818], "label": "S", "properties": {}}, {"species": [{"element": "S", "occu": 1}], "abc": [0.86083412, 0.66336773, 0.34551148], "xyz": [6.1720213860878, 6.5729473110539605, 17.117841790173358], "label": "S", "properties": {}}, {"species": [{"element": "S", "occu": 1}], "abc": [0.31743427, 0.65488715, 0.24216190999999998], "xyz": [2.27594499056005, 6.4889178911918, 11.997544229170618], "label": "S", "properties": {}}, {"species": [{"element": "S", "occu": 1}], "abc": [0.82701999, 0.83333621, 0.24235059999999997], "xyz": [5.92958032960185, 8.25707183664692, 12.006892588789198], "label": "S", "properties": {}}, {"species": [{"element": "S", "occu": 1}], "abc": [0.6608822, 0.48500697, 0.27479360999999997], "xyz": [4.738403110793, 4.80566828191044, 13.614232270750017], "label": "S", "properties": {}}, {"species": [{"element": "S", "occu": 1}], "abc": [0.1779507, 0.00275681, 0.27172892], "xyz": [1.2758735981204998, 0.027315719558120004, 13.462396856899439], "label": "S", "properties": {}}, {"species": [{"element": "S", "occu": 1}], "abc": [0.27915853, 0.13160604, 0.33900892], "xyz": [2.00151501577195, 1.3040121302500802, 16.79568232585944], "label": "S", "properties": {}}, {"species": [{"element": "S", "occu": 1}], "abc": [0.84183966, 0.32985514, 0.35096495], "xyz": [6.0358346218629, 3.26835382164328, 17.3880256829559], "label": "S", "properties": {}}, {"species": [{"element": "S", "occu": 1}], "abc": [0.61517343, 0.9844407, 0.37541607], "xyz": [4.41067968601545, 9.7542834227964, 18.59941930655574], "label": "S", "properties": {}}, {"species": [{"element": "S", "occu": 1}], "abc": [0.23246486, 0.49293668, 0.37468876], "xyz": [1.6667300402009, 4.884239432819361, 18.56338583666232], "label": "S", "properties": {}}]}, "formula": "", "bandgap": 2.4239, "slab_thickness": 18.769851857244657}