{"miller": "201_0.02", "final_energy": -391.42753937, "gamma": 0.016348889817650154, "work_function": "Not calculated", "ionization_potentail": "Not calculated", "electron_affinity": "Not calculated", "is_stochiometric": true, "incar_parameters": {"SYSTEM": "unknown system", "LCOMPAT": false, "PREC": "normal", "ENMAX": 520.0, "ENAUG": 368.056, "EDIFF": 1e-05, "IALGO": 38, "IWAVPR": 11, "NBANDS": 360, "NBANDSLOW": -1, "NBANDSHIGH": -1, "NELECT": 600.0, "TURBO": 0, "IRESTART": 0, "NREBOOT": 0, "NMIN": 0, "EREF": 0.0, "ISMEAR": 0, "SIGMA": 0.05, "KSPACING": 0.5, "KGAMMA": true, "KBLOWUP": true, "LREAL": true, "ROPT": [-0.0005, -0.0005, -0.0005], "LMAXPAW": -100, "LMAXMIX": 2, "NLSPLINE": false, "ISTART": 0, "ICHARG": 2, "INIWAV": 1, "ISPIN": 1, "LNONCOLLINEAR": false, "MAGMOM": [0.6, 0.6, 0.6, 0.6, 0.6, 0.6, 0.6, 0.6, 0.6, 0.6, 0.6, 0.6, 0.6, 0.6, 0.6, 0.6, 0.6, 0.6, 0.6, 0.6, 0.6, 0.6, 0.6, 0.6, 0.6, 0.6, 0.6, 0.6, 0.6, 0.6, 0.6, 0.6, 0.6, 0.6, 0.6, 0.6, 0.6, 0.6, 0.6, 0.6, 0.6, 0.6, 0.6, 0.6, 0.6, 0.6, 0.6, 0.6, 0.6, 0.6, 0.6, 0.6, 0.6, 0.6, 0.6, 0.6, 0.6, 0.6, 0.6, 0.6, 0.6, 0.6, 0.6, 0.6, 0.6, 0.6, 0.6, 0.6, 0.6, 0.6, 0.6, 0.6, 0.6, 0.6, 0.6, 0.6, 0.6, 0.6, 0.6, 0.6, 0.6, 0.6, 0.6, 0.6, 0.6, 0.6, 0.6, 0.6, 0.6, 0.6, 0.6, 0.6, 0.6, 0.6, 0.6, 0.6], "NUPDOWN": -1.0, "LSORBIT": false, "SAXIS": [0.0, 0.0, 1.0], "LSPIRAL": false, "QSPIRAL": [0.0, 0.0, 0.0], "LZEROZ": false, "LASPH": false, "LMETAGGA": false, "NELM": 100, "NELMDL": -5, "NELMIN": 6, "ENINI": 520.0, "LDIAG": true, "LSUBROT": false, "WEIMIN": 0.001, "EBREAK": 1e-08, "DEPER": 0.3, "NRMM": 4, "TIME": 0.4, "AMIX": 0.4, "BMIX": 1.0, "AMIN": 0.1, "AMIX_MAG": 1.6, "BMIX_MAG": 1.0, "IMIX": 4, "MIXFIRST": false, "MAXMIX": -45, "WC": 100.0, "INIMIX": 1, "MIXPRE": 1, "MREMOVE": 5, "LDIPOL": false, "LMONO": false, "IDIPOL": 0, "EPSILON": 1.0, "DIPOL": [-100.0, -100.0, -100.0], "EFIELD": 0.0, "NGX": 40, "NGY": 90, "NGZ": 250, "NGXF": 80, "NGYF": 180, "NGZF": 500, "ADDGRID": false, "NSW": 150, "IBRION": 2, "MDALGO": 0, "ISIF": 2, "PSTRESS": 0.0, "EDIFFG": -0.01, "NFREE": 1, "POTIM": 0.5, "SMASS": -3.0, "SCALEE": 1.0, "TEBEG": 0.0001, "TEEND": 0.0001, "NBLOCK": 1, "KBLOCK": 150, "NPACO": 256, "APACO": 10.0, "ISYM": 0, "SYMPREC": 1e-05, "LORBIT": 11, "RWIGS": [-1.0, -1.0, -1.0], "NEDOS": 301, "EMIN": 10.0, "EMAX": -10.0, "EFERMI": 0.0, "NWRITE": 2, "LWAVE": false, "LDOWNSAMPLE": false, "LCHARG": false, "LPARD": false, "LVTOT": false, "LVHAR": false, "LELF": false, "LOPTICS": false, "STM": [0.0, 0.0, 0.0, 0.0, 0.0, 0.0, 0.0], "NPAR": 1, "NSIM": 4, "NBLK": -1, "LPLANE": true, "LSCALAPACK": true, "LSCAAWARE": false, "LSCALU": false, "LASYNC": false, "LORBITALREAL": false, "IDIOT": 3, "PHON_NSTRUCT": -1, "LMUSIC": false, "POMASS": [22.99, 30.974, 32.066], "DARWINR": [0.0, 0.0, 0.0], "DARWINV": [1.0, 1.0, 1.0], "LCORR": true, "GGA_COMPAT": true, "LBERRY": false, "ICORELEVEL": 0, "LDAU": false, "I_CONSTRAINED_M": 0, "GGA": "--", "VOSKOWN": 0, "LHFCALC": false, "PRECFOCK": "", "LSYMGRAD": false, "LHFONE": false, "LRHFCALC": false, "LTHOMAS": false, "LMODELHF": false, "LFOCKACE": false, "ENCUT4O": -1.0, "EXXOEP": 0, "FOURORBIT": 0, "AEXX": 0.0, "HFALPHA": 0.0, "MCALPHA": 0.0, "ALDAX": 1.0, "AGGAX": 1.0, "ALDAC": 1.0, "AGGAC": 1.0, "NKREDX": 1, "NKREDY": 1, "NKREDZ": 1, "SHIFTRED": false, "ODDONLY": false, "EVENONLY": false, "LMAXFOCK": 0, "NMAXFOCKAE": 0, "LFOCKAEDFT": false, "HFSCREEN": 0.0, "HFSCREENC": 0.0, "NBANDSGWLOW": 0, "LUSE_VDW": false, "Zab_VDW": -0.8491, "PARAM1": 0.1234, "PARAM2": 1.0, "PARAM3": 0.0, "MODEL_GW": 0, "MODEL_EPS0": 30.7969929, "MODEL_ALPHA": 1.0, "LEPSILON": false, "LRPA": false, "LNABLA": false, "LVEL": false, "CSHIFT": 0.1, "OMEGAMAX": -1.0, "DEG_THRESHOLD": 0.002, "RTIME": -0.1, "WPLASMAI": 0.0, "DFIELD": [0.0, 0.0, 0.0], "WPLASMA": [0.0, 0.0, 0.0, 0.0, 0.0, 0.0, 0.0, 0.0, 0.0], "NUCIND": false, "MAGPOS": [0.0, 0.0, 0.0], "LNICSALL": true, "ORBITALMAG": false, "LMAGBLOCH": false, "LCHIMAG": false, "LGAUGE": true, "MAGATOM": 0, "MAGDIPOL": [0.0, 0.0, 0.0], "AVECCONST": [0.0, 0.0, 0.0], "LFINITE_TEMPERATURE": false, "LADDER": false, "LRPAFORCE": false, "LFXC": false, "LHARTREE": true, "IBSE": 0, "KPOINT": [-1, 0, 0, 0], "LTCTC": false, "LTCTE": false, "LTETE": false, "LTRIPLET": false, "LFXCEPS": false, "LFXHEG": false, "NATURALO": 2, "LHOLEGF": false, "L2ORDER": false, "LDMP1": false, "LMP2LT": false, "LSMP2LT": false, "LGWLF": false, "ENCUTGW": -2.0, "ENCUTGWSOFT": -2.0, "ENCUTLF": -1.0, "LESF_SPLINES": false, "LMAXMP2": -1, "SCISSOR": 0.0, "NOMEGA": 0, "NOMEGAR": 0, "NBANDSGW": -1, "NBANDSO": -1, "NBANDSV": -1, "NELMGW": 1, "NELMHF": 1, "DIM": 3, "IESPILON": 4, "ANTIRES": 0, "OMEGAMIN": -30.0, "OMEGATL": -200.0, "OMEGAGRID": 0, "LSELFENERGY": false, "LSPECTRAL": false, "LSPECTRALGW": false, "LSINGLES": false, "LFERMIGW": false, "ODDONLYGW": false, "EVENONLYGW": false, "NKREDLFX": 1, "NKREDLFY": 1, "NKREDLFZ": 1, "MAXMEM": 2800, "TELESCOPE": 0, "NTAUPAR": -1, "NOMEGAPAR": -1, "DAMP_NEWTON": 0.80000001, "LAMBDA": 1.0, "OFIELD_KAPPA": 0.0, "OFIELD_K": [0.0, 0.0, 0.0], "OFIELD_Q6_NEAR": 0.0, "OFIELD_Q6_FAR": 0.0, "OFIELD_A": 0.0, "KPOINTS_OPT_MODE": 1, "LKPOINTS_OPT": false, "@module": "pymatgen.io.vasp.inputs", "@class": "Incar"}, "relaxed_structures": {"@module": "pymatgen.core.structure", "@class": "Structure", "charge": 0, "lattice": {"matrix": [[7.00642, 0.0, 0.0], [-0.001256, 15.960265, 0.0], [0.0, 0.0, 44.064823]], "a": 7.00642, "b": 15.960265049420732, "c": 44.064823, "alpha": 90.0, "beta": 90.0, "gamma": 90.00450891629431, "volume": 4927.518863546162}, "sites": [{"species": [{"element": "Na", "occu": 1}], "abc": [0.52760654, 0.07698994, 0.0584554], "xyz": [3.69653631462216, 1.2287798447341, 2.5758268543941996], "label": "Na", "properties": {}}, {"species": [{"element": "Na", "occu": 1}], "abc": [0.52170232, 0.2777303, 0.09836232], "xyz": [3.6549167396376006, 4.4326491865295, 4.33431822066936], "label": "Na", "properties": {}}, {"species": [{"element": "Na", "occu": 1}], "abc": [0.03126228, 0.310689, 0.10647696000000001], "xyz": [0.21864643845360004, 4.9586787725849995, 4.69188839597808], "label": "Na", "properties": {}}, {"species": [{"element": "Na", "occu": 1}], "abc": [0.01517699, 0.90421622, 0.045503930000000005], "xyz": [0.10520067070347999, 14.4315304884983, 2.0051226212543902], "label": "Na", "properties": {}}, {"species": [{"element": "Na", "occu": 1}], "abc": [0.47863998, 0.60514992, 0.06537055], "xyz": [3.3527926603720806, 9.6583530879288, 2.8805417151626496], "label": "Na", "properties": {}}, {"species": [{"element": "Na", "occu": 1}], "abc": [0.0193682, 0.24326404, 0.010585740000000003], "xyz": [0.13539620420976, 3.8825585433705996, 0.4664587594240201], "label": "Na", "properties": {}}, {"species": [{"element": "Na", "occu": 1}], "abc": [0.99171304, 0.63260721, 0.08325735000000001], "xyz": [6.94756352306104, 10.096578712510649, 3.66872039119905], "label": "Na", "properties": {}}, {"species": [{"element": "Na", "occu": 1}], "abc": [0.99576702, 0.43802599, 0.03663058], "xyz": [6.97621180362496, 6.99101087728735, 1.6141200240873401], "label": "Na", "properties": {}}, {"species": [{"element": "Na", "occu": 1}], "abc": [0.49510173, 0.88688528, 0.20339680999999998], "xyz": [3.4677767351949202, 14.154924093399199, 8.96264443141463], "label": "Na", "properties": {}}, {"species": [{"element": "Na", "occu": 1}], "abc": [0.49120505, 0.47774429, 0.13333523], "xyz": [3.44098883959276, 7.6249254706368506, 5.87539330961429], "label": "Na", "properties": {}}, {"species": [{"element": "Na", "occu": 1}], "abc": [0.49722043, 0.08413384, 0.24189759], "xyz": [3.48362949305756, 1.3427983818676, 10.65917448747657], "label": "Na", "properties": {}}, {"species": [{"element": "Na", "occu": 1}], "abc": [0.50261549, 0.67913588, 0.17031571], "xyz": [3.5206822267805205, 10.839188615808201, 7.50493161526933], "label": "Na", "properties": {}}, {"species": [{"element": "Na", "occu": 1}], "abc": [0.00012953, 0.11398254, 0.25358209], "xyz": [0.00076437951236, 1.8191915437730999, 11.174049911820068], "label": "Na", "properties": {}}, {"species": [{"element": "Na", "occu": 1}], "abc": [0.99888013, 0.70288522, 0.1863386], "xyz": [6.9976908965982805, 11.2182343757833, 8.2109774270678], "label": "Na", "properties": {}}, {"species": [{"element": "Na", "occu": 1}], "abc": [0.50137322, 0.01851232, 0.13399537], "xyz": [3.51280810459848, 0.2954615329648, 5.90448226186951], "label": "Na", "properties": {}}, {"species": [{"element": "Na", "occu": 1}], "abc": [0.49944534, 0.42092117, 0.21082525], "xyz": [3.49879514209328, 6.71801341731005, 9.289977325180748], "label": "Na", "properties": {}}, {"species": [{"element": "Na", "occu": 1}], "abc": [0.00109469, 0.04978387, 0.14847948], "xyz": [0.0076073293690799995, 0.79456375792555, 6.542722005332039], "label": "Na", "properties": {}}, {"species": [{"element": "Na", "occu": 1}], "abc": [0.99742514, 0.44995136, 0.22266246], "xyz": [6.987814310490641, 7.1813429427104, 9.81158188864458], "label": "Na", "properties": {}}, {"species": [{"element": "Na", "occu": 1}], "abc": [0.98661878, 0.83590277, 0.11607425999999998], "xyz": [6.91161565868848, 13.34122972343405, 5.114791721755979], "label": "Na", "properties": {}}, {"species": [{"element": "Na", "occu": 1}], "abc": [0.99706184, 0.24796405, 0.18563972], "xyz": [6.985522574166, 3.95757194847325, 8.18018140356956], "label": "Na", "properties": {}}, {"species": [{"element": "Na", "occu": 1}], "abc": [0.48266893, 0.6987816, 0.34837829], "xyz": [3.380903574841, 11.152739513124, 15.351227685892669], "label": "Na", "properties": {}}, {"species": [{"element": "Na", "occu": 1}], "abc": [0.49576183, 0.2870025, 0.27887949], "xyz": [3.4731551258086, 4.5806359556625, 12.28877536518027], "label": "Na", "properties": {}}, {"species": [{"element": "Na", "occu": 1}], "abc": [0.48868125, 0.90200176, 0.38106665], "xyz": [3.4227731694144405, 14.396187120066399, 16.79163448345295], "label": "Na", "properties": {}}, {"species": [{"element": "Na", "occu": 1}], "abc": [0.49980833, 0.48530775, 0.31593176], "xyz": [3.5012575329446003, 7.745640296553749, 13.921477084478479], "label": "Na", "properties": {}}, {"species": [{"element": "Na", "occu": 1}], "abc": [0.97516761, 0.9313251, 0.39869909], "xyz": [6.8312641017306, 14.8641953971515, 17.568604831111067], "label": "Na", "properties": {}}, {"species": [{"element": "Na", "occu": 1}], "abc": [0.00080575, 0.51650251, 0.3306256], "xyz": [0.004996695762440001, 8.24351693276515, 14.5689585432688], "label": "Na", "properties": {}}, {"species": [{"element": "Na", "occu": 1}], "abc": [0.49733106, 0.83192434, 0.27822529], "xyz": [3.48346538843416, 13.277732926350101, 12.25994815797367], "label": "Na", "properties": {}}, {"species": [{"element": "Na", "occu": 1}], "abc": [0.52834749, 0.22523684, 0.35768714], "xyz": [3.70154152341476, 3.5948396541626, 15.761420513476219], "label": "Na", "properties": {}}, {"species": [{"element": "Na", "occu": 1}], "abc": [0.00054005, 0.85543837, 0.29414247], "xyz": [0.0027093865282800007, 13.65302307636805, 12.96133587733281], "label": "Na", "properties": {}}, {"species": [{"element": "Na", "occu": 1}], "abc": [0.01873803, 0.25727966, 0.36636022], "xyz": [0.13096336489964, 4.1062515527099, 16.14359824854106], "label": "Na", "properties": {}}, {"species": [{"element": "Na", "occu": 1}], "abc": [0.99338505, 0.64748555, 0.26113643999999997], "xyz": [6.959259640170201, 10.33404096167075, 11.506931007450119], "label": "Na", "properties": {}}, {"species": [{"element": "Na", "occu": 1}], "abc": [0.9882118, 0.05792636, 0.33111435], "xyz": [6.92375416424784, 0.9245200560854, 14.590495225510049], "label": "Na", "properties": {}}, {"species": [{"element": "Na", "occu": 1}], "abc": [0.49027512, 0.09880606, 0.42765135], "xyz": [3.43494930585904, 1.5769709012058999, 18.84438104346105], "label": "Na", "properties": {}}, {"species": [{"element": "Na", "occu": 1}], "abc": [0.51511873, 0.29332177, 0.45405654], "xyz": [3.60876976010348, 4.68149317946905, 20.00792106709242], "label": "Na", "properties": {}}, {"species": [{"element": "Na", "occu": 1}], "abc": [0.51133858, 0.63136853, 0.41887407], "xyz": [3.5818598548099203, 10.076809051460451, 18.457611753839608], "label": "Na", "properties": {}}, {"species": [{"element": "Na", "occu": 1}], "abc": [0.02300835, 0.45755702, 0.40600458], "xyz": [0.16063147198988, 7.302731291810299, 17.89051995488934], "label": "Na", "properties": {}}, {"species": [{"element": "P", "occu": 1}], "abc": [0.02133673, 0.10358602, 0.07071840000000001], "xyz": [0.14936398776548002, 1.6532603294952999, 3.1161937788432006], "label": "P", "properties": {}}, {"species": [{"element": "P", "occu": 1}], "abc": [0.49947447, 0.41201393, 0.032608000000000005], "xyz": [3.4990104266013202, 6.57585150649145, 1.4368657483840002], "label": "P", "properties": {}}, {"species": [{"element": "P", "occu": 1}], "abc": [0.48814842, 0.80465831, 0.09934686000000001], "xyz": [3.41916220201904, 12.84255986205215, 4.37770180150578], "label": "P", "properties": {}}, {"species": [{"element": "P", "occu": 1}], "abc": [0.00021893, 0.91333734, 0.21379797], "xyz": [0.00038676383155999993, 14.5771059807951, 9.42096970580931], "label": "P", "properties": {}}, {"species": [{"element": "P", "occu": 1}], "abc": [0.99406185, 0.51021203, 0.14541713], "xyz": [6.96417400076732, 8.14311920498795, 6.40778009461799], "label": "P", "properties": {}}, {"species": [{"element": "P", "occu": 1}], "abc": [0.49814557, 0.21472225, 0.17709278], "xyz": [3.4899473934134, 3.42702401139625, 7.803562005277939], "label": "P", "properties": {}}, {"species": [{"element": "P", "occu": 1}], "abc": [0.49865806, 0.62120521, 0.25054061], "xyz": [3.49302757100144, 9.914599770980649, 11.04002763396203], "label": "P", "properties": {}}, {"species": [{"element": "P", "occu": 1}], "abc": [0.98435408, 0.73001141, 0.36507592], "xyz": [6.895881218862641, 11.65117555662365, 16.08700579636216], "label": "P", "properties": {}}, {"species": [{"element": "P", "occu": 1}], "abc": [0.99732929, 0.31997597, 0.28772234], "xyz": [6.987305994223481, 5.10690127483205, 12.67843398524582], "label": "P", "properties": {}}, {"species": [{"element": "P", "occu": 1}], "abc": [0.49147711, 0.02509526, 0.31903617], "xyz": [3.4434635333996404, 0.4005269998439, 14.058272361647909], "label": "P", "properties": {}}, {"species": [{"element": "P", "occu": 1}], "abc": [0.51686709, 0.43225778, 0.3935863], "xyz": [3.6208450009461197, 6.8989487171117, 17.343310644724898], "label": "P", "properties": {}}, {"species": [{"element": "P", "occu": 1}], "abc": [0.99375509, 0.12446505, 0.43204443], "xyz": [6.962509209575001, 1.9864951812382499, 19.03796133608589], "label": "P", "properties": {}}, {"species": [{"element": "S", "occu": 1}], "abc": [0.17062485, 0.00438483, 0.08965697], "xyz": [1.19546385419052, 0.06998304877995, 3.9507185137663097], "label": "S", "properties": {}}, {"species": [{"element": "S", "occu": 1}], "abc": [0.69226041, 0.31626344, 0.04242626], "xyz": [4.8498699549515605, 5.0476483122116, 1.8695056374519798], "label": "S", "properties": {}}, {"species": [{"element": "S", "occu": 1}], "abc": [0.21224318, 0.19827736, 0.06173199000000001], "xyz": [1.48681582485144, 3.1645592091004002, 2.72020921278777], "label": "S", "properties": {}}, {"species": [{"element": "S", "occu": 1}], "abc": [0.34274593, 0.43833735, 0.07264373000000002], "xyz": [2.400871387159, 6.99598026539775, 3.2010331045097904], "label": "S", "properties": {}}, {"species": [{"element": "S", "occu": 1}], "abc": [0.81502899, 0.14212119, 0.10141096], "xyz": [5.71025691190116, 2.26829185451535, 4.4686560026600795], "label": "S", "properties": {}}, {"species": [{"element": "S", "occu": 1}], "abc": [0.65445243, 0.89996861, 0.08238817000000001], "xyz": [4.58423823402644, 14.363737507281648, 3.63042012834391], "label": "S", "properties": {}}, {"species": [{"element": "S", "occu": 1}], "abc": [0.6513267, 0.51719465, 0.02007549], "xyz": [4.5628188209336, 8.25456367058225, 0.88462291348827], "label": "S", "properties": {}}, {"species": [{"element": "S", "occu": 1}], "abc": [0.89848354, 0.06763769, 0.030092680000000004], "xyz": [6.29506809138816, 1.07951545638785, 1.32602861779564], "label": "S", "properties": {}}, {"species": [{"element": "S", "occu": 1}], "abc": [0.85707207, 0.47709409, 0.10581157], "xyz": [6.004407662512359, 7.61454810633385, 4.662568103402109], "label": "S", "properties": {}}, {"species": [{"element": "S", "occu": 1}], "abc": [0.30525971, 0.38027019, 0.00010000000000000286], "xyz": [2.1383001179795604, 6.06921300400035, 0.004406482300000126], "label": "S", "properties": {}}, {"species": [{"element": "S", "occu": 1}], "abc": [0.27605154, 0.76733005, 0.06850887], "xyz": [1.933169264344, 12.24679094046325, 3.01883123048001], "label": "S", "properties": {}}, {"species": [{"element": "S", "occu": 1}], "abc": [0.15754682, 0.81381482, 0.23049419999999998], "xyz": [1.1028170391704801, 12.9887001881273, 10.156686125526598], "label": "S", "properties": {}}, {"species": [{"element": "S", "occu": 1}], "abc": [0.15264628, 0.41089907, 0.16155315], "xyz": [1.06898785988568, 6.558058045453549, 7.11881095984245], "label": "S", "properties": {}}, {"species": [{"element": "S", "occu": 1}], "abc": [0.68076438, 0.1157518, 0.18585316], "xyz": [4.7695757830588, 1.847429402227, 8.18958659939068], "label": "S", "properties": {}}, {"species": [{"element": "S", "occu": 1}], "abc": [0.66354158, 0.70366862, 0.10911331999999999], "xyz": [4.648167189156879, 11.230737647384299, 4.808059132742359], "label": "S", "properties": {}}, {"species": [{"element": "S", "occu": 1}], "abc": [0.18353193, 0.0101906, 0.20325434], "xyz": [1.285888985597, 0.162644676509, 8.95636651608182], "label": "S", "properties": {}}, {"species": [{"element": "S", "occu": 1}], "abc": [0.1761469, 0.60986697, 0.13687932], "xyz": [1.23339317018368, 9.73363845594705, 6.03156300816036], "label": "S", "properties": {}}, {"species": [{"element": "S", "occu": 1}], "abc": [0.3602061, 0.84149397, 0.13938935], "xyz": [2.52269830673568, 13.43046675710205, 6.142167035835049], "label": "S", "properties": {}}, {"species": [{"element": "S", "occu": 1}], "abc": [0.35291483, 0.24509742, 0.21653113], "xyz": [2.47236168084908, 3.9118197740163, 9.541405917439988], "label": "S", "properties": {}}, {"species": [{"element": "S", "occu": 1}], "abc": [0.80619305, 0.95073029, 0.24638448000000002], "xyz": [5.64733299213676, 15.17390737192685, 10.85688850114704], "label": "S", "properties": {}}, {"species": [{"element": "S", "occu": 1}], "abc": [0.79405772, 0.54578469, 0.17752981], "xyz": [5.56281638499176, 8.71086828534285, 7.82281965487363], "label": "S", "properties": {}}, {"species": [{"element": "S", "occu": 1}], "abc": [0.65706649, 0.72067405, 0.23404005], "xyz": [4.602778630259, 11.502148816623249, 10.31293337816115], "label": "S", "properties": {}}, {"species": [{"element": "S", "occu": 1}], "abc": [0.65396549, 0.31602004, 0.16186271], "xyz": [4.5815599672755605, 5.0437635837106, 7.132451666450329], "label": "S", "properties": {}}, {"species": [{"element": "S", "occu": 1}], "abc": [0.85209263, 0.87759703, 0.17517217999999998], "xyz": [5.969016582814921, 14.00668116201295, 7.718931106224138], "label": "S", "properties": {}}, {"species": [{"element": "S", "occu": 1}], "abc": [0.85303419, 0.28927385, 0.24825488], "xyz": [5.9763524815442, 4.61688730357025, 10.93930734608624], "label": "S", "properties": {}}, {"species": [{"element": "S", "occu": 1}], "abc": [0.30537147, 0.18121628, 0.14380386], "xyz": [2.13933316718972, 2.8922598511142, 6.33669163761678], "label": "S", "properties": {}}, {"species": [{"element": "S", "occu": 1}], "abc": [0.30463844, 0.58415478, 0.21794830999999998], "xyz": [2.13369116038112, 9.323265089816699, 9.603853703299128], "label": "S", "properties": {}}, {"species": [{"element": "S", "occu": 1}], "abc": [0.15074254, 0.63444652, 0.38176825], "xyz": [1.0553686822776802, 10.1259345875278, 16.822550363269748], "label": "S", "properties": {}}, {"species": [{"element": "S", "occu": 1}], "abc": [0.15222964, 0.21859799, 0.30311116], "xyz": [1.06631023521336, 3.48888184886735, 13.356539614724678], "label": "S", "properties": {}}, {"species": [{"element": "S", "occu": 1}], "abc": [0.67475793, 0.92589742, 0.32760064], "xyz": [4.72647452875108, 14.7775681860163, 14.43566421628672], "label": "S", "properties": {}}, {"species": [{"element": "S", "occu": 1}], "abc": [0.68107818, 0.52397948, 0.2610109], "xyz": [4.77126166368872, 8.362851355362201, 11.501399109570698], "label": "S", "properties": {}}, {"species": [{"element": "S", "occu": 1}], "abc": [0.16013825, 0.83091723, 0.35528553], "xyz": [1.1209522055241201, 13.261659183865948, 15.65559399391119], "label": "S", "properties": {}}, {"species": [{"element": "S", "occu": 1}], "abc": [0.1806241, 0.41868564, 0.27881446], "xyz": [1.2650024375581603, 6.6823337660946, 12.285909829740579], "label": "S", "properties": {}}, {"species": [{"element": "S", "occu": 1}], "abc": [0.35059898, 0.65690317, 0.28919227], "xyz": [2.45561863507008, 10.48434867254005, 12.743206190518208], "label": "S", "properties": {}}, {"species": [{"element": "S", "occu": 1}], "abc": [0.35468288, 0.05802084, 0.35868761], "xyz": [2.48498434991456, 0.9260279819225999, 15.805506046943028], "label": "S", "properties": {}}, {"species": [{"element": "S", "occu": 1}], "abc": [0.77375403, 0.76761675, 0.39614948], "xyz": [5.4202815842345995, 12.251366748438748, 17.45625671774204], "label": "S", "properties": {}}, {"species": [{"element": "S", "occu": 1}], "abc": [0.80388131, 0.35397558, 0.32084182], "xyz": [5.63188549468172, 5.6495440603287, 14.137838009297859], "label": "S", "properties": {}}, {"species": [{"element": "S", "occu": 1}], "abc": [0.66721179, 0.53113313, 0.37470098], "xyz": [4.67409892648052, 8.47702550507945, 16.51113236162654], "label": "S", "properties": {}}, {"species": [{"element": "S", "occu": 1}], "abc": [0.64984294, 0.12437048, 0.3028], "xyz": [4.55291636235192, 1.9849858189772, 13.3428284044], "label": "S", "properties": {}}, {"species": [{"element": "S", "occu": 1}], "abc": [0.855588, 0.69367081, 0.32502024], "xyz": [5.99373762442264, 11.071169950364649, 14.32195934701752], "label": "S", "properties": {}}, {"species": [{"element": "S", "occu": 1}], "abc": [0.83811704, 0.09851693, 0.39181799], "xyz": [5.87207625413272, 1.57235630978645, 17.26539037756577], "label": "S", "properties": {}}, {"species": [{"element": "S", "occu": 1}], "abc": [0.29151709, 0.98894974, 0.28700315], "xyz": [2.0412490488443598, 15.7838999220811, 12.646743005192448], "label": "S", "properties": {}}, {"species": [{"element": "S", "occu": 1}], "abc": [0.31081056, 0.39375487, 0.36284900999999997], "xyz": [2.1771747676784803, 6.284432070240549, 15.988877401375227], "label": "S", "properties": {}}, {"species": [{"element": "S", "occu": 1}], "abc": [0.146183, 0.0191979, 0.44426439], "xyz": [1.0241953822976, 0.3064035714435, 19.57643171055297], "label": "S", "properties": {}}, {"species": [{"element": "S", "occu": 1}], "abc": [0.70679247, 0.33728254, 0.40265109], "xyz": [4.95166127078716, 5.3831187182731, 17.742749011607067], "label": "S", "properties": {}}, {"species": [{"element": "S", "occu": 1}], "abc": [0.18617331, 0.22061654, 0.42259631999999997], "xyz": [1.30413130827596, 3.5210984417830997, 18.621632041251356], "label": "S", "properties": {}}, {"species": [{"element": "S", "occu": 1}], "abc": [0.39338854, 0.4682562, 0.43415745], "xyz": [2.7556572046396, 7.473493039893, 19.13107118838135], "label": "S", "properties": {}}, {"species": [{"element": "S", "occu": 1}], "abc": [0.79903033, 0.15541603, 0.46459198], "xyz": [5.5981468821849205, 2.48048102404795, 20.47216336591954], "label": "S", "properties": {}}]}, "formula": "", "bandgap": 2.1693000000000002, "slab_thickness": 20.46775688361954}