{"miller": "201_0.28", "final_energy": -391.74694016, "gamma": 0.014920753298322582, "work_function": "Not calculated", "ionization_potentail": "Not calculated", "electron_affinity": "Not calculated", "is_stochiometric": true, "incar_parameters": {"SYSTEM": "unknown system", "LCOMPAT": false, "PREC": "normal", "ENMAX": 520.0, "ENAUG": 368.056, "EDIFF": 1e-05, "IALGO": 38, "IWAVPR": 11, "NBANDS": 360, "NBANDSLOW": -1, "NBANDSHIGH": -1, "NELECT": 600.0, "TURBO": 0, "IRESTART": 0, "NREBOOT": 0, "NMIN": 0, "EREF": 0.0, "ISMEAR": 0, "SIGMA": 0.05, "KSPACING": 0.5, "KGAMMA": true, "KBLOWUP": true, "LREAL": true, "ROPT": [-0.0005, -0.0005, -0.0005], "LMAXPAW": -100, "LMAXMIX": 2, "NLSPLINE": false, "ISTART": 0, "ICHARG": 2, "INIWAV": 1, "ISPIN": 1, "LNONCOLLINEAR": false, "MAGMOM": [0.6, 0.6, 0.6, 0.6, 0.6, 0.6, 0.6, 0.6, 0.6, 0.6, 0.6, 0.6, 0.6, 0.6, 0.6, 0.6, 0.6, 0.6, 0.6, 0.6, 0.6, 0.6, 0.6, 0.6, 0.6, 0.6, 0.6, 0.6, 0.6, 0.6, 0.6, 0.6, 0.6, 0.6, 0.6, 0.6, 0.6, 0.6, 0.6, 0.6, 0.6, 0.6, 0.6, 0.6, 0.6, 0.6, 0.6, 0.6, 0.6, 0.6, 0.6, 0.6, 0.6, 0.6, 0.6, 0.6, 0.6, 0.6, 0.6, 0.6, 0.6, 0.6, 0.6, 0.6, 0.6, 0.6, 0.6, 0.6, 0.6, 0.6, 0.6, 0.6, 0.6, 0.6, 0.6, 0.6, 0.6, 0.6, 0.6, 0.6, 0.6, 0.6, 0.6, 0.6, 0.6, 0.6, 0.6, 0.6, 0.6, 0.6, 0.6, 0.6, 0.6, 0.6, 0.6, 0.6], "NUPDOWN": -1.0, "LSORBIT": false, "SAXIS": [0.0, 0.0, 1.0], "LSPIRAL": false, "QSPIRAL": [0.0, 0.0, 0.0], "LZEROZ": false, "LASPH": false, "LMETAGGA": false, "NELM": 100, "NELMDL": -5, "NELMIN": 6, "ENINI": 520.0, "LDIAG": true, "LSUBROT": false, "WEIMIN": 0.001, "EBREAK": 1e-08, "DEPER": 0.3, "NRMM": 4, "TIME": 0.4, "AMIX": 0.4, "BMIX": 1.0, "AMIN": 0.1, "AMIX_MAG": 1.6, "BMIX_MAG": 1.0, "IMIX": 4, "MIXFIRST": false, "MAXMIX": -45, "WC": 100.0, "INIMIX": 1, "MIXPRE": 1, "MREMOVE": 5, "LDIPOL": false, "LMONO": false, "IDIPOL": 0, "EPSILON": 1.0, "DIPOL": [-100.0, -100.0, -100.0], "EFIELD": 0.0, "NGX": 40, "NGY": 90, "NGZ": 250, "NGXF": 80, "NGYF": 180, "NGZF": 500, "ADDGRID": false, "NSW": 150, "IBRION": 2, "MDALGO": 0, "ISIF": 2, "PSTRESS": 0.0, "EDIFFG": -0.01, "NFREE": 1, "POTIM": 0.5, "SMASS": -3.0, "SCALEE": 1.0, "TEBEG": 0.0001, "TEEND": 0.0001, "NBLOCK": 1, "KBLOCK": 150, "NPACO": 256, "APACO": 10.0, "ISYM": 0, "SYMPREC": 1e-05, "LORBIT": 11, "RWIGS": [-1.0, -1.0, -1.0], "NEDOS": 301, "EMIN": 10.0, "EMAX": -10.0, "EFERMI": 0.0, "NWRITE": 2, "LWAVE": false, "LDOWNSAMPLE": false, "LCHARG": false, "LPARD": false, "LVTOT": false, "LVHAR": false, "LELF": false, "LOPTICS": false, "STM": [0.0, 0.0, 0.0, 0.0, 0.0, 0.0, 0.0], "NPAR": 1, "NSIM": 4, "NBLK": -1, "LPLANE": true, "LSCALAPACK": true, "LSCAAWARE": false, "LSCALU": false, "LASYNC": false, "LORBITALREAL": false, "IDIOT": 3, "PHON_NSTRUCT": -1, "LMUSIC": false, "POMASS": [22.99, 30.974, 32.066], "DARWINR": [0.0, 0.0, 0.0], "DARWINV": [1.0, 1.0, 1.0], "LCORR": true, "GGA_COMPAT": true, "LBERRY": false, "ICORELEVEL": 0, "LDAU": false, "I_CONSTRAINED_M": 0, "GGA": "--", "VOSKOWN": 0, "LHFCALC": false, "PRECFOCK": "", "LSYMGRAD": false, "LHFONE": false, "LRHFCALC": false, "LTHOMAS": false, "LMODELHF": false, "LFOCKACE": false, "ENCUT4O": -1.0, "EXXOEP": 0, "FOURORBIT": 0, "AEXX": 0.0, "HFALPHA": 0.0, "MCALPHA": 0.0, "ALDAX": 1.0, "AGGAX": 1.0, "ALDAC": 1.0, "AGGAC": 1.0, "NKREDX": 1, "NKREDY": 1, "NKREDZ": 1, "SHIFTRED": false, "ODDONLY": false, "EVENONLY": false, "LMAXFOCK": 0, "NMAXFOCKAE": 0, "LFOCKAEDFT": false, "HFSCREEN": 0.0, "HFSCREENC": 0.0, "NBANDSGWLOW": 0, "LUSE_VDW": false, "Zab_VDW": -0.8491, "PARAM1": 0.1234, "PARAM2": 1.0, "PARAM3": 0.0, "MODEL_GW": 0, "MODEL_EPS0": 30.7969929, "MODEL_ALPHA": 1.0, "LEPSILON": false, "LRPA": false, "LNABLA": false, "LVEL": false, "CSHIFT": 0.1, "OMEGAMAX": -1.0, "DEG_THRESHOLD": 0.002, "RTIME": -0.1, "WPLASMAI": 0.0, "DFIELD": [0.0, 0.0, 0.0], "WPLASMA": [0.0, 0.0, 0.0, 0.0, 0.0, 0.0, 0.0, 0.0, 0.0], "NUCIND": false, "MAGPOS": [0.0, 0.0, 0.0], "LNICSALL": true, "ORBITALMAG": false, "LMAGBLOCH": false, "LCHIMAG": false, "LGAUGE": true, "MAGATOM": 0, "MAGDIPOL": [0.0, 0.0, 0.0], "AVECCONST": [0.0, 0.0, 0.0], "LFINITE_TEMPERATURE": false, "LADDER": false, "LRPAFORCE": false, "LFXC": false, "LHARTREE": true, "IBSE": 0, "KPOINT": [-1, 0, 0, 0], "LTCTC": false, "LTCTE": false, "LTETE": false, "LTRIPLET": false, "LFXCEPS": false, "LFXHEG": false, "NATURALO": 2, "LHOLEGF": false, "L2ORDER": false, "LDMP1": false, "LMP2LT": false, "LSMP2LT": false, "LGWLF": false, "ENCUTGW": -2.0, "ENCUTGWSOFT": -2.0, "ENCUTLF": -1.0, "LESF_SPLINES": false, "LMAXMP2": -1, "SCISSOR": 0.0, "NOMEGA": 0, "NOMEGAR": 0, "NBANDSGW": -1, "NBANDSO": -1, "NBANDSV": -1, "NELMGW": 1, "NELMHF": 1, "DIM": 3, "IESPILON": 4, "ANTIRES": 0, "OMEGAMIN": -30.0, "OMEGATL": -200.0, "OMEGAGRID": 0, "LSELFENERGY": false, "LSPECTRAL": false, "LSPECTRALGW": false, "LSINGLES": false, "LFERMIGW": false, "ODDONLYGW": false, "EVENONLYGW": false, "NKREDLFX": 1, "NKREDLFY": 1, "NKREDLFZ": 1, "MAXMEM": 2800, "TELESCOPE": 0, "NTAUPAR": -1, "NOMEGAPAR": -1, "DAMP_NEWTON": 0.80000001, "LAMBDA": 1.0, "OFIELD_KAPPA": 0.0, "OFIELD_K": [0.0, 0.0, 0.0], "OFIELD_Q6_NEAR": 0.0, "OFIELD_Q6_FAR": 0.0, "OFIELD_A": 0.0, "KPOINTS_OPT_MODE": 1, "LKPOINTS_OPT": false, "@module": "pymatgen.io.vasp.inputs", "@class": "Incar"}, "relaxed_structures": {"@module": "pymatgen.core.structure", "@class": "Structure", "charge": 0, "lattice": {"matrix": [[7.00642, 0.0, 0.0], [-0.001256, 15.960265, 0.0], [0.0, 0.0, 44.064823]], "a": 7.00642, "b": 15.960265049420732, "c": 44.064823, "alpha": 90.0, "beta": 90.0, "gamma": 90.00450891629431, "volume": 4927.518863546162}, "sites": [{"species": [{"element": "Na", "occu": 1}], "abc": [0.53484998, 0.11655913, 0.028432369999999995], "xyz": [3.74723719860432, 1.86031460296945, 1.2528673515205098], "label": "Na", "properties": {}}, {"species": [{"element": "Na", "occu": 1}], "abc": [0.50738557, 0.56621705, 0.09708438999999999], "xyz": [3.5542452367446, 9.03697416551825, 4.27800646141297], "label": "Na", "properties": {}}, {"species": [{"element": "Na", "occu": 1}], "abc": [0.49597527, 0.30439872, 0.07181053999999999], "xyz": [3.4746287264410807, 4.8582842368608, 3.1643187346344193], "label": "Na", "properties": {}}, {"species": [{"element": "Na", "occu": 1}], "abc": [0.00563721, 0.35654736, 0.0780689], "xyz": [0.039048837404040006, 5.6905903506504, 3.4400922603046995], "label": "Na", "properties": {}}, {"species": [{"element": "Na", "occu": 1}], "abc": [0.01252605, 0.9656799, 0.01837045], "xyz": [0.08654987328660001, 15.4125071091735, 0.80949062768035], "label": "Na", "properties": {}}, {"species": [{"element": "Na", "occu": 1}], "abc": [0.49189816, 0.0624283, 0.10609860999999998], "xyz": [3.4463666962424, 0.9963722114995, 4.675216470196029], "label": "Na", "properties": {}}, {"species": [{"element": "Na", "occu": 1}], "abc": [0.99452011, 0.68996452, 0.04908459999999999], "xyz": [6.96715899366908, 11.0120165797978, 2.1629042110257997], "label": "Na", "properties": {}}, {"species": [{"element": "Na", "occu": 1}], "abc": [0.98179094, 0.87584925, 0.0868419], "xyz": [6.8777396111768, 13.97878613005125, 3.8266729524836998], "label": "Na", "properties": {}}, {"species": [{"element": "Na", "occu": 1}], "abc": [0.4936422, 0.93632428, 0.17507237], "xyz": [3.45748855962832, 14.9439836347342, 7.71453299624051], "label": "Na", "properties": {}}, {"species": [{"element": "Na", "occu": 1}], "abc": [0.49750323, 0.34595847, 0.24474365], "xyz": [3.48528205689828, 5.52158886019455, 10.78458561762395], "label": "Na", "properties": {}}, {"species": [{"element": "Na", "occu": 1}], "abc": [0.49621482, 0.13516968, 0.21246603], "xyz": [3.4765196660263205, 2.1573439127652, 9.36227800546269], "label": "Na", "properties": {}}, {"species": [{"element": "Na", "occu": 1}], "abc": [0.50440068, 0.73862042, 0.14009626], "xyz": [3.5331153051180806, 11.7885776376113, 6.173316899861979], "label": "Na", "properties": {}}, {"species": [{"element": "Na", "occu": 1}], "abc": [0.99816656, 0.16384138, 0.22232313], "xyz": [6.9933683645419205, 2.6149518427657, 9.796629372255989], "label": "Na", "properties": {}}, {"species": [{"element": "Na", "occu": 1}], "abc": [0.99970264, 0.75134445, 0.15542819], "xyz": [7.0033928823196, 11.99165652827925, 6.848915681560369], "label": "Na", "properties": {}}, {"species": [{"element": "Na", "occu": 1}], "abc": [0.49632353, 0.87549369, 0.2514504], "xyz": [3.4763514869879604, 13.973111298227849, 11.0801173692792], "label": "Na", "properties": {}}, {"species": [{"element": "Na", "occu": 1}], "abc": [0.50013448, 0.47498768, 0.17420075999999998], "xyz": [3.503555638835521, 7.5809292445352, 7.676125655865479], "label": "Na", "properties": {}}, {"species": [{"element": "Na", "occu": 1}], "abc": [0.99167654, 0.09431376, 0.11683709], "xyz": [6.94798388530424, 1.5052726027463998, 5.1484056906850695], "label": "Na", "properties": {}}, {"species": [{"element": "Na", "occu": 1}], "abc": [0.00290036, 0.49843958, 0.18956027], "xyz": [0.019695100198720002, 7.9552277832886995, 8.35293974538221], "label": "Na", "properties": {}}, {"species": [{"element": "Na", "occu": 1}], "abc": [0.99961904, 0.69189966, 0.22926604999999997], "xyz": [7.002881808263841, 11.0429019270099, 10.102567913159149], "label": "Na", "properties": {}}, {"species": [{"element": "Na", "occu": 1}], "abc": [0.00032473, 0.2945119, 0.15474667], "xyz": [0.0019052878202000004, 4.7004879696535, 6.81888462338941], "label": "Na", "properties": {}}, {"species": [{"element": "Na", "occu": 1}], "abc": [0.49997892, 0.74434721, 0.31900363000000004], "xyz": [3.50212740457064, 11.87997872361065, 14.05683849230749], "label": "Na", "properties": {}}, {"species": [{"element": "Na", "occu": 1}], "abc": [0.47997338, 0.16277152, 0.38704434000000004], "xyz": [3.36269064807048, 2.5978765936528, 17.05504033525182], "label": "Na", "properties": {}}, {"species": [{"element": "Na", "occu": 1}], "abc": [0.49097404, 0.94433142, 0.35691168], "xyz": [3.43878425307328, 15.0717797110263, 15.727250005832639], "label": "Na", "properties": {}}, {"species": [{"element": "Na", "occu": 1}], "abc": [0.50072563, 0.54010432, 0.28455093000000004], "xyz": [3.5076156975186805, 8.620208074844799, 12.53868636493539], "label": "Na", "properties": {}}, {"species": [{"element": "Na", "occu": 1}], "abc": [0.99094878, 0.97591628, 0.36761288000000003], "xyz": [6.94177760031992, 15.5758824466142, 16.19879648972024], "label": "Na", "properties": {}}, {"species": [{"element": "Na", "occu": 1}], "abc": [0.99730327, 0.56353815, 0.29975808000000004], "xyz": [6.986817773077, 8.994218211609748, 13.20878673801984], "label": "Na", "properties": {}}, {"species": [{"element": "Na", "occu": 1}], "abc": [0.50495137, 0.6818334, 0.39575187], "xyz": [3.537044995045, 10.882241749851, 17.438736103469008], "label": "Na", "properties": {}}, {"species": [{"element": "Na", "occu": 1}], "abc": [0.49734941, 0.28705567, 0.31856556], "xyz": [3.48427831129068, 4.58148456295255, 14.03753501529588], "label": "Na", "properties": {}}, {"species": [{"element": "Na", "occu": 1}], "abc": [0.99490977, 0.90323666, 0.26124657], "xyz": [6.96962124547844, 14.4158964513149, 11.511783866407109], "label": "Na", "properties": {}}, {"species": [{"element": "Na", "occu": 1}], "abc": [0.0019417, 0.29979365, 0.33394998000000004], "xyz": [0.0132278248896, 4.78478609931725, 14.71544675955354], "label": "Na", "properties": {}}, {"species": [{"element": "Na", "occu": 1}], "abc": [0.00612269, 0.47178982, 0.37710252], "xyz": [0.042305569655880004, 7.529890551502301, 16.616955796653958], "label": "Na", "properties": {}}, {"species": [{"element": "Na", "occu": 1}], "abc": [0.99174082, 0.10227513, 0.29874093], "xyz": [6.94842425850112, 1.6323381777094501, 13.16396620330539], "label": "Na", "properties": {}}, {"species": [{"element": "Na", "occu": 1}], "abc": [0.49356821, 0.34848302, 0.42484984000000003], "xyz": [3.45770848323508, 5.561881347200299, 18.72093300117832], "label": "Na", "properties": {}}, {"species": [{"element": "Na", "occu": 1}], "abc": [0.51279395, 0.07258137, 0.45537544], "xyz": [3.5927586249582806, 1.15841789926305, 20.06603816214712], "label": "Na", "properties": {}}, {"species": [{"element": "Na", "occu": 1}], "abc": [0.99538078, 0.73429029, 0.40174750000000004], "xyz": [6.97313353600336, 11.71946761532685, 17.7029324781925], "label": "Na", "properties": {}}, {"species": [{"element": "Na", "occu": 1}], "abc": [0.03528096, 0.92158763, 0.44539024000000005], "xyz": [0.24603570969992003, 14.70878279552195, 19.62604209152752], "label": "Na", "properties": {}}, {"species": [{"element": "P", "occu": 1}], "abc": [0.02518746, 0.16781955, 0.03878211999999999], "xyz": [0.1762631421384, 2.67844449018075, 1.7089272533647595], "label": "P", "properties": {}}, {"species": [{"element": "P", "occu": 1}], "abc": [0.99861436, 0.56000186, 0.11055199999999998], "xyz": [6.9960082618550405, 8.9377780860929, 4.871454312295999], "label": "P", "properties": {}}, {"species": [{"element": "P", "occu": 1}], "abc": [0.48061874, 0.85599414, 0.07032608], "xyz": [3.3663416236709605, 13.661893312847099, 3.09890626748384], "label": "P", "properties": {}}, {"species": [{"element": "P", "occu": 1}], "abc": [0.9971811, 0.96249528, 0.18394001], "xyz": [6.98546070859032, 15.361679730049199, 8.10528398326823], "label": "P", "properties": {}}, {"species": [{"element": "P", "occu": 1}], "abc": [0.9988384, 0.37163924, 0.2562029], "xyz": [6.99781456364256, 5.9314607547986, 11.2895354405867], "label": "P", "properties": {}}, {"species": [{"element": "P", "occu": 1}], "abc": [0.50123494, 0.2624637, 0.14747609], "xyz": [3.5115328539076005, 4.188990204880501, 6.49850780258207], "label": "P", "properties": {}}, {"species": [{"element": "P", "occu": 1}], "abc": [0.50052192, 0.66733182, 0.21788565], "xyz": [3.50602862196048, 10.6507926901323, 9.601092601489949], "label": "P", "properties": {}}, {"species": [{"element": "P", "occu": 1}], "abc": [0.00074412, 0.77630234, 0.32616456000000005], "xyz": [0.00423858151136, 12.3899910665201, 14.372383605272882], "label": "P", "properties": {}}, {"species": [{"element": "P", "occu": 1}], "abc": [0.97935199, 0.18234443, 0.403633], "xyz": [6.86152234517172, 2.91026542407395, 17.786016701959], "label": "P", "properties": {}}, {"species": [{"element": "P", "occu": 1}], "abc": [0.49573189, 0.07633811, 0.28978359000000004], "xyz": [3.47320994806764, 1.21837646519915, 12.769262601654571], "label": "P", "properties": {}}, {"species": [{"element": "P", "occu": 1}], "abc": [0.49639816, 0.47838035, 0.36336592], "xyz": [3.4773731504675998, 7.63507715679275, 16.01165494903216], "label": "P", "properties": {}}, {"species": [{"element": "P", "occu": 1}], "abc": [0.52592313, 0.87036617, 0.43507891000000004], "xyz": [3.68374515658508, 13.891274720235051, 19.17167516018293], "label": "P", "properties": {}}, {"species": [{"element": "S", "occu": 1}], "abc": [0.18354507, 0.07153398, 0.05837205999999999], "xyz": [1.2859040026705202, 1.1417012773047, 2.5721544920453794], "label": "S", "properties": {}}, {"species": [{"element": "S", "occu": 1}], "abc": [0.65343172, 0.75327965, 0.07834580999999999], "xyz": [4.577270952402001, 12.022542833107249, 3.4522942504416294], "label": "S", "properties": {}}, {"species": [{"element": "S", "occu": 1}], "abc": [0.19983539, 0.26830162, 0.029642119999999997], "xyz": [1.39979368636908, 4.2821649551293, 1.3061747711447598], "label": "S", "properties": {}}, {"species": [{"element": "S", "occu": 1}], "abc": [0.16854727, 0.66398929, 0.10342351], "xyz": [1.18007899292516, 10.597445025561848, 4.557338662188729], "label": "S", "properties": {}}, {"species": [{"element": "S", "occu": 1}], "abc": [0.35170874, 0.88988428, 0.11109632], "xyz": [2.4631014554551203, 14.202788928134199, 4.8954396767513595], "label": "S", "properties": {}}, {"species": [{"element": "S", "occu": 1}], "abc": [0.81600267, 0.20032294, 0.07069091], "xyz": [5.717005821528761, 3.1972072079791, 3.1149824368589294], "label": "S", "properties": {}}, {"species": [{"element": "S", "occu": 1}], "abc": [0.65661791, 0.95328519, 0.056465989999999994], "xyz": [4.59934353078356, 15.21468425297535, 2.4881638548697698], "label": "S", "properties": {}}, {"species": [{"element": "S", "occu": 1}], "abc": [0.89815708, 0.12507557, 9.99999999999994e-05], "xyz": [6.29270863353768, 1.99623924222605, 0.004406482299999973], "label": "S", "properties": {}}, {"species": [{"element": "S", "occu": 1}], "abc": [0.86734731, 0.52713656, 0.07014638999999999], "xyz": [6.07633745621084, 8.413239188788399, 3.0909882594389693], "label": "S", "properties": {}}, {"species": [{"element": "S", "occu": 1}], "abc": [0.30064872, 0.22333406, 0.11622478], "xyz": [2.10619069720304, 3.5644707811259, 5.12142435891394], "label": "S", "properties": {}}, {"species": [{"element": "S", "occu": 1}], "abc": [0.26775134, 0.83036506, 0.03884504999999999], "xyz": [1.87493540508744, 13.2528464043409, 1.7117002526761496], "label": "S", "properties": {}}, {"species": [{"element": "S", "occu": 1}], "abc": [0.15585542, 0.86315063, 0.20042316999999998], "xyz": [1.0909044146051199, 13.77611278971695, 8.831611511148909], "label": "S", "properties": {}}, {"species": [{"element": "S", "occu": 1}], "abc": [0.17077053, 0.46251508, 0.12465959999999998], "xyz": [1.19590913786212, 7.3818632432962, 5.4931032092507985], "label": "S", "properties": {}}, {"species": [{"element": "S", "occu": 1}], "abc": [0.68606668, 0.16514769, 0.15706051], "xyz": [4.80666388258696, 2.6358008965378503, 6.920843573439729], "label": "S", "properties": {}}, {"species": [{"element": "S", "occu": 1}], "abc": [0.67744892, 0.56711125, 0.22676336], "xyz": [4.7457793703364, 9.051245834481248, 9.992287321285279], "label": "S", "properties": {}}, {"species": [{"element": "S", "occu": 1}], "abc": [0.17783598, 0.06016178, 0.17324271], "xyz": [1.24591800379592, 0.9601979516717, 7.633909352190329], "label": "S", "properties": {}}, {"species": [{"element": "S", "occu": 1}], "abc": [0.17738714, 0.47138093, 0.24744925999999998], "xyz": [1.24225675099072, 7.523364558746449, 10.903807843380978], "label": "S", "properties": {}}, {"species": [{"element": "S", "occu": 1}], "abc": [0.35958117, 0.70078997, 0.25721996], "xyz": [2.5184965089090805, 11.18479363054205, 11.33435200946708], "label": "S", "properties": {}}, {"species": [{"element": "S", "occu": 1}], "abc": [0.35630925, 0.29822833, 0.18625508999999998], "xyz": [2.49607768060252, 4.759803177307449, 8.20729757369907], "label": "S", "properties": {}}, {"species": [{"element": "S", "occu": 1}], "abc": [0.80278505, 0.99989579, 0.21663288], "xyz": [5.62339336090876, 15.958601780784349, 9.545889513180239], "label": "S", "properties": {}}, {"species": [{"element": "S", "occu": 1}], "abc": [0.79829716, 0.59056946, 0.1433964], "xyz": [5.59246343252544, 9.4256450825069, 6.3187369848372], "label": "S", "properties": {}}, {"species": [{"element": "S", "occu": 1}], "abc": [0.65957727, 0.76739658, 0.20210289], "xyz": [4.62031152596892, 12.2478527768937, 8.90562807563847], "label": "S", "properties": {}}, {"species": [{"element": "S", "occu": 1}], "abc": [0.65277208, 0.36217834, 0.12983783999999998], "xyz": [4.57314046075856, 5.7804622836601, 5.721281438302319], "label": "S", "properties": {}}, {"species": [{"element": "S", "occu": 1}], "abc": [0.84830599, 0.92693584, 0.14543238], "xyz": [5.94242382304076, 14.794141644397598, 6.40845208316874], "label": "S", "properties": {}}, {"species": [{"element": "S", "occu": 1}], "abc": [0.85833143, 0.33858513, 0.21675487999999998], "xyz": [6.01340523485732, 5.40390839985945, 9.551265421586239], "label": "S", "properties": {}}, {"species": [{"element": "S", "occu": 1}], "abc": [0.30120534, 0.03919815, 0.25708668], "xyz": [2.1103218854064, 0.62561286150975, 11.32847904985764], "label": "S", "properties": {}}, {"species": [{"element": "S", "occu": 1}], "abc": [0.30270354, 0.6343752, 0.18487828], "xyz": [2.1200713614756, 10.124796301428, 8.14662868474444], "label": "S", "properties": {}}, {"species": [{"element": "S", "occu": 1}], "abc": [0.15204606, 0.6766027, 0.34379985], "xyz": [1.0644487427140001, 10.7987583917155, 15.14947953767655], "label": "S", "properties": {}}, {"species": [{"element": "S", "occu": 1}], "abc": [0.15678854, 0.27120937, 0.27196770000000003], "xyz": [1.09818572345808, 4.32857341568305, 11.9842085622171], "label": "S", "properties": {}}, {"species": [{"element": "S", "occu": 1}], "abc": [0.67676593, 0.97871865, 0.30040945], "xyz": [4.7404770766462, 15.62060901444225, 13.23748924177735], "label": "S", "properties": {}}, {"species": [{"element": "S", "occu": 1}], "abc": [0.66710718, 0.3746866, 0.37053093000000004], "xyz": [4.673562481726001, 5.980097427949, 16.32737984647539], "label": "S", "properties": {}}, {"species": [{"element": "S", "occu": 1}], "abc": [0.18542003, 0.87379015, 0.31666568], "xyz": [1.2980331261642, 13.94592234838975, 13.953817139374639], "label": "S", "properties": {}}, {"species": [{"element": "S", "occu": 1}], "abc": [0.15253368, 0.28500892, 0.39566557], "xyz": [1.06835705502208, 4.5488178905638, 17.43493330924411], "label": "S", "properties": {}}, {"species": [{"element": "S", "occu": 1}], "abc": [0.36636612, 0.51152648, 0.40383289], "xyz": [2.56627243323152, 8.1640981753172, 17.79482481942847], "label": "S", "properties": {}}, {"species": [{"element": "S", "occu": 1}], "abc": [0.34655701, 0.11163989, 0.32831949000000005], "xyz": [2.42798374630236, 1.78180222897085, 14.467340214300272], "label": "S", "properties": {}}, {"species": [{"element": "S", "occu": 1}], "abc": [0.7997444, 0.81538938, 0.3573432], "xyz": [5.6023210299867205, 13.013830582985701, 15.7462648582536], "label": "S", "properties": {}}, {"species": [{"element": "S", "occu": 1}], "abc": [0.80077853, 0.40449715, 0.28914445], "xyz": [5.6100826597422, 6.45588170574475, 12.74109901068235], "label": "S", "properties": {}}, {"species": [{"element": "S", "occu": 1}], "abc": [0.6677999, 0.57586517, 0.34901218], "xyz": [4.6781632887044795, 9.19096071747005, 15.37915993654414], "label": "S", "properties": {}}, {"species": [{"element": "S", "occu": 1}], "abc": [0.65450546, 0.17568918, 0.27335664000000004], "xyz": [4.58551947944312, 2.8040458704327, 12.045411957474721], "label": "S", "properties": {}}, {"species": [{"element": "S", "occu": 1}], "abc": [0.85589679, 0.74058024, 0.28741195], "xyz": [5.995842218610361, 11.819856884163599, 12.66475670483485], "label": "S", "properties": {}}, {"species": [{"element": "S", "occu": 1}], "abc": [0.85014115, 0.14869716, 0.36284462], "xyz": [5.956259192550041, 2.3732460783474, 15.988683956802259], "label": "S", "properties": {}}, {"species": [{"element": "S", "occu": 1}], "abc": [0.31689595, 0.83778577, 0.40312506000000004], "xyz": [2.2192538630718803, 13.37128290242905, 17.76363441576438], "label": "S", "properties": {}}, {"species": [{"element": "S", "occu": 1}], "abc": [0.29555581, 0.44724469, 0.33069266], "xyz": [2.07022639896956, 7.13814377224285, 14.571913530299181], "label": "S", "properties": {}}, {"species": [{"element": "S", "occu": 1}], "abc": [0.15513683, 0.08483904, 0.41736948], "xyz": [1.08684723061436, 1.3540535607456001, 18.39131226180204], "label": "S", "properties": {}}, {"species": [{"element": "S", "occu": 1}], "abc": [0.70062064, 0.76987701, 0.44422257000000004], "xyz": [4.90787549898424, 12.28744109700765, 19.57458891965511], "label": "S", "properties": {}}, {"species": [{"element": "S", "occu": 1}], "abc": [0.39881625, 0.91328776, 0.47372431000000004], "xyz": [2.79312706089844, 14.5763146708564, 20.87457787094713], "label": "S", "properties": {}}, {"species": [{"element": "S", "occu": 1}], "abc": [0.76698337, 0.20827359, 0.43513878], "xyz": [5.37354603160636, 3.32410168890135, 19.174313321135937], "label": "S", "properties": {}}, {"species": [{"element": "S", "occu": 1}], "abc": [0.68407519, 0.96657002, 0.41540992000000004], "xyz": [4.791704080774681, 15.4267136602553, 18.30496459724416], "label": "S", "properties": {}}]}, "formula": "", "bandgap": 2.4127, "slab_thickness": 20.870171388647133}