{"miller": "201_0.32", "final_energy": -391.74718508, "gamma": 0.014919658187705248, "work_function": 4.709294409421688, "ionization_potentail": -5.001094409421688, "electron_affinity": -2.5886944094216884, "is_stochiometric": true, "incar_parameters": {"SYSTEM": "unknown system", "LCOMPAT": false, "PREC": "normal", "ENMAX": 520.0, "ENAUG": 368.056, "EDIFF": 1e-05, "IALGO": 38, "IWAVPR": 11, "NBANDS": 360, "NBANDSLOW": -1, "NBANDSHIGH": -1, "NELECT": 600.0, "TURBO": 0, "IRESTART": 0, "NREBOOT": 0, "NMIN": 0, "EREF": 0.0, "ISMEAR": 0, "SIGMA": 0.05, "KSPACING": 0.5, "KGAMMA": true, "KBLOWUP": true, "LREAL": true, "ROPT": [-0.0005, -0.0005, -0.0005], "LMAXPAW": -100, "LMAXMIX": 2, "NLSPLINE": false, "ISTART": 0, "ICHARG": 2, "INIWAV": 1, "ISPIN": 1, "LNONCOLLINEAR": false, "MAGMOM": [0.6, 0.6, 0.6, 0.6, 0.6, 0.6, 0.6, 0.6, 0.6, 0.6, 0.6, 0.6, 0.6, 0.6, 0.6, 0.6, 0.6, 0.6, 0.6, 0.6, 0.6, 0.6, 0.6, 0.6, 0.6, 0.6, 0.6, 0.6, 0.6, 0.6, 0.6, 0.6, 0.6, 0.6, 0.6, 0.6, 0.6, 0.6, 0.6, 0.6, 0.6, 0.6, 0.6, 0.6, 0.6, 0.6, 0.6, 0.6, 0.6, 0.6, 0.6, 0.6, 0.6, 0.6, 0.6, 0.6, 0.6, 0.6, 0.6, 0.6, 0.6, 0.6, 0.6, 0.6, 0.6, 0.6, 0.6, 0.6, 0.6, 0.6, 0.6, 0.6, 0.6, 0.6, 0.6, 0.6, 0.6, 0.6, 0.6, 0.6, 0.6, 0.6, 0.6, 0.6, 0.6, 0.6, 0.6, 0.6, 0.6, 0.6, 0.6, 0.6, 0.6, 0.6, 0.6, 0.6], "NUPDOWN": -1.0, "LSORBIT": false, "SAXIS": [0.0, 0.0, 1.0], "LSPIRAL": false, "QSPIRAL": [0.0, 0.0, 0.0], "LZEROZ": false, "LASPH": false, "LMETAGGA": false, "NELM": 100, "NELMDL": -5, "NELMIN": 6, "ENINI": 520.0, "LDIAG": true, "LSUBROT": false, "WEIMIN": 0.001, "EBREAK": 1e-08, "DEPER": 0.3, "NRMM": 4, "TIME": 0.4, "AMIX": 0.4, "BMIX": 1.0, "AMIN": 0.1, "AMIX_MAG": 1.6, "BMIX_MAG": 1.0, "IMIX": 4, "MIXFIRST": false, "MAXMIX": -45, "WC": 100.0, "INIMIX": 1, "MIXPRE": 1, "MREMOVE": 5, "LDIPOL": false, "LMONO": false, "IDIPOL": 0, "EPSILON": 1.0, "DIPOL": [-100.0, -100.0, -100.0], "EFIELD": 0.0, "NGX": 40, "NGY": 90, "NGZ": 250, "NGXF": 80, "NGYF": 180, "NGZF": 500, "ADDGRID": false, "NSW": 150, "IBRION": 2, "MDALGO": 0, "ISIF": 2, "PSTRESS": 0.0, "EDIFFG": -0.01, "NFREE": 1, "POTIM": 0.5, "SMASS": -3.0, "SCALEE": 1.0, "TEBEG": 0.0001, "TEEND": 0.0001, "NBLOCK": 1, "KBLOCK": 150, "NPACO": 256, "APACO": 10.0, "ISYM": 0, "SYMPREC": 1e-05, "LORBIT": 11, "RWIGS": [-1.0, -1.0, -1.0], "NEDOS": 301, "EMIN": 10.0, "EMAX": -10.0, "EFERMI": 0.0, "NWRITE": 2, "LWAVE": false, "LDOWNSAMPLE": false, "LCHARG": false, "LPARD": false, "LVTOT": false, "LVHAR": false, "LELF": false, "LOPTICS": false, "STM": [0.0, 0.0, 0.0, 0.0, 0.0, 0.0, 0.0], "NPAR": 1, "NSIM": 4, "NBLK": -1, "LPLANE": true, "LSCALAPACK": true, "LSCAAWARE": false, "LSCALU": false, "LASYNC": false, "LORBITALREAL": false, "IDIOT": 3, "PHON_NSTRUCT": -1, "LMUSIC": false, "POMASS": [22.99, 30.974, 32.066], "DARWINR": [0.0, 0.0, 0.0], "DARWINV": [1.0, 1.0, 1.0], "LCORR": true, "GGA_COMPAT": true, "LBERRY": false, "ICORELEVEL": 0, "LDAU": false, "I_CONSTRAINED_M": 0, "GGA": "--", "VOSKOWN": 0, "LHFCALC": false, "PRECFOCK": "", "LSYMGRAD": false, "LHFONE": false, "LRHFCALC": false, "LTHOMAS": false, "LMODELHF": false, "LFOCKACE": false, "ENCUT4O": -1.0, "EXXOEP": 0, "FOURORBIT": 0, "AEXX": 0.0, "HFALPHA": 0.0, "MCALPHA": 0.0, "ALDAX": 1.0, "AGGAX": 1.0, "ALDAC": 1.0, "AGGAC": 1.0, "NKREDX": 1, "NKREDY": 1, "NKREDZ": 1, "SHIFTRED": false, "ODDONLY": false, "EVENONLY": false, "LMAXFOCK": 0, "NMAXFOCKAE": 0, "LFOCKAEDFT": false, "HFSCREEN": 0.0, "HFSCREENC": 0.0, "NBANDSGWLOW": 0, "LUSE_VDW": false, "Zab_VDW": -0.8491, "PARAM1": 0.1234, "PARAM2": 1.0, "PARAM3": 0.0, "MODEL_GW": 0, "MODEL_EPS0": 30.7969929, "MODEL_ALPHA": 1.0, "LEPSILON": false, "LRPA": false, "LNABLA": false, "LVEL": false, "CSHIFT": 0.1, "OMEGAMAX": -1.0, "DEG_THRESHOLD": 0.002, "RTIME": -0.1, "WPLASMAI": 0.0, "DFIELD": [0.0, 0.0, 0.0], "WPLASMA": [0.0, 0.0, 0.0, 0.0, 0.0, 0.0, 0.0, 0.0, 0.0], "NUCIND": false, "MAGPOS": [0.0, 0.0, 0.0], "LNICSALL": true, "ORBITALMAG": false, "LMAGBLOCH": false, "LCHIMAG": false, "LGAUGE": true, "MAGATOM": 0, "MAGDIPOL": [0.0, 0.0, 0.0], "AVECCONST": [0.0, 0.0, 0.0], "LFINITE_TEMPERATURE": false, "LADDER": false, "LRPAFORCE": false, "LFXC": false, "LHARTREE": true, "IBSE": 0, "KPOINT": [-1, 0, 0, 0], "LTCTC": false, "LTCTE": false, "LTETE": false, "LTRIPLET": false, "LFXCEPS": false, "LFXHEG": false, "NATURALO": 2, "LHOLEGF": false, "L2ORDER": false, "LDMP1": false, "LMP2LT": false, "LSMP2LT": false, "LGWLF": false, "ENCUTGW": -2.0, "ENCUTGWSOFT": -2.0, "ENCUTLF": -1.0, "LESF_SPLINES": false, "LMAXMP2": -1, "SCISSOR": 0.0, "NOMEGA": 0, "NOMEGAR": 0, "NBANDSGW": -1, "NBANDSO": -1, "NBANDSV": -1, "NELMGW": 1, "NELMHF": 1, "DIM": 3, "IESPILON": 4, "ANTIRES": 0, "OMEGAMIN": -30.0, "OMEGATL": -200.0, "OMEGAGRID": 0, "LSELFENERGY": false, "LSPECTRAL": false, "LSPECTRALGW": false, "LSINGLES": false, "LFERMIGW": false, "ODDONLYGW": false, "EVENONLYGW": false, "NKREDLFX": 1, "NKREDLFY": 1, "NKREDLFZ": 1, "MAXMEM": 2800, "TELESCOPE": 0, "NTAUPAR": -1, "NOMEGAPAR": -1, "DAMP_NEWTON": 0.80000001, "LAMBDA": 1.0, "OFIELD_KAPPA": 0.0, "OFIELD_K": [0.0, 0.0, 0.0], "OFIELD_Q6_NEAR": 0.0, "OFIELD_Q6_FAR": 0.0, "OFIELD_A": 0.0, "KPOINTS_OPT_MODE": 1, "LKPOINTS_OPT": false, "@module": "pymatgen.io.vasp.inputs", "@class": "Incar"}, "relaxed_structures": {"@module": "pymatgen.core.structure", "@class": "Structure", "charge": 0, "lattice": {"matrix": [[7.00642, 0.0, 0.0], [-0.001256, 15.960265, 0.0], [0.0, 0.0, 44.064823]], "a": 7.00642, "b": 15.960265049420732, "c": 44.064823, "alpha": 90.0, "beta": 90.0, "gamma": 90.00450891629431, "volume": 4927.518863546162}, "sites": [{"species": [{"element": "Na", "occu": 1}], "abc": [0.53491828, 0.12508638, 0.028180339999999998], "xyz": [3.74770502686432, 1.9964117726907, 1.2417616941798197], "label": "Na", "properties": {}}, {"species": [{"element": "Na", "occu": 1}], "abc": [0.50702912, 0.57298503, 0.09785696999999999], "xyz": [3.5517392977527202, 9.14499291983295, 4.312050062366309], "label": "Na", "properties": {}}, {"species": [{"element": "Na", "occu": 1}], "abc": [0.49364411, 0.31208834, 0.07216676], "xyz": [3.4582859822311605, 4.9810126098101, 3.1800155058834796], "label": "Na", "properties": {}}, {"species": [{"element": "Na", "occu": 1}], "abc": [0.00301843, 0.36502572, 0.07858825], "xyz": [0.020689916016279997, 5.8259072230157996, 3.46297732612975], "label": "Na", "properties": {}}, {"species": [{"element": "Na", "occu": 1}], "abc": [0.01303666, 0.97411903, 0.01856368], "xyz": [0.09011682185552002, 15.54719786034295, 0.8180052734286399], "label": "Na", "properties": {}}, {"species": [{"element": "Na", "occu": 1}], "abc": [0.49078111, 0.07226981, 0.10596160000000002], "xyz": [3.4385278138448405, 1.15344531909965, 4.6691791487968], "label": "Na", "properties": {}}, {"species": [{"element": "Na", "occu": 1}], "abc": [0.98985853, 0.10330739, 0.11712204000000001], "xyz": [6.935234847680761, 1.64881332085835, 5.16096196199892], "label": "Na", "properties": {}}, {"species": [{"element": "Na", "occu": 1}], "abc": [0.99444461, 0.69901426, 0.04951773], "xyz": [6.96661864248564, 11.1564528283789, 2.1819900078117898], "label": "Na", "properties": {}}, {"species": [{"element": "Na", "occu": 1}], "abc": [0.98186813, 0.88547239, 0.08697405999999999], "xyz": [6.87826835007276, 14.13237399458335, 3.8324965594913794], "label": "Na", "properties": {}}, {"species": [{"element": "Na", "occu": 1}], "abc": [0.49265194, 0.94585861, 0.17514692], "xyz": [3.45053840704064, 15.09615406813165, 7.71781802879516], "label": "Na", "properties": {}}, {"species": [{"element": "Na", "occu": 1}], "abc": [0.49843893, 0.35565085, 0.24523791000000003], "xyz": [3.4918257904630003, 5.67628181347525, 10.806365097039931], "label": "Na", "properties": {}}, {"species": [{"element": "Na", "occu": 1}], "abc": [0.49582492, 0.14437576, 0.21288455], "xyz": [3.4737763000318402, 2.3042753891763996, 9.38072001518465], "label": "Na", "properties": {}}, {"species": [{"element": "Na", "occu": 1}], "abc": [0.50454288, 0.74799395, 0.14011164], "xyz": [3.5340998448884005, 11.93818166039675, 6.17399461683972], "label": "Na", "properties": {}}, {"species": [{"element": "Na", "occu": 1}], "abc": [0.99771622, 0.17194326, 0.22300111], "xyz": [6.99020291739784, 2.7442599945638997, 9.82650444095353], "label": "Na", "properties": {}}, {"species": [{"element": "Na", "occu": 1}], "abc": [0.99988569, 0.76061712, 0.15538436], "xyz": [7.00466376102708, 12.1396507987368, 6.846984320368279], "label": "Na", "properties": {}}, {"species": [{"element": "Na", "occu": 1}], "abc": [0.4965513, 0.88356414, 0.25143368], "xyz": [3.4779372027861597, 14.1019178188971, 11.079380605438638], "label": "Na", "properties": {}}, {"species": [{"element": "Na", "occu": 1}], "abc": [0.50071893, 0.48341705, 0.17453591000000002], "xyz": [3.5076399537158, 7.71546422351825, 7.6908939812939305], "label": "Na", "properties": {}}, {"species": [{"element": "Na", "occu": 1}], "abc": [0.99492763, 0.91132324, 0.26130836999999996], "xyz": [6.969736223395159, 14.5449604110586, 11.514507072468508], "label": "Na", "properties": {}}, {"species": [{"element": "Na", "occu": 1}], "abc": [0.00389154, 0.50690461, 0.18968706000000002], "xyz": [0.026629091496640004, 8.09033190532165, 8.35852672429038], "label": "Na", "properties": {}}, {"species": [{"element": "Na", "occu": 1}], "abc": [0.99885019, 0.70033686, 0.22912986000000002], "xyz": [6.99748432512364, 11.1775618748679, 10.09656672491478], "label": "Na", "properties": {}}, {"species": [{"element": "Na", "occu": 1}], "abc": [0.99890687, 0.30309947, 0.15549827], "xyz": [6.99838037917108, 4.83754786255955, 6.852003744356209], "label": "Na", "properties": {}}, {"species": [{"element": "Na", "occu": 1}], "abc": [0.49954631, 0.75302116, 0.31900153], "xyz": [3.49908546273324, 12.018417264207399, 14.056745956179189], "label": "Na", "properties": {}}, {"species": [{"element": "Na", "occu": 1}], "abc": [0.48088339, 0.17133562, 0.38714718], "xyz": [3.36905580382508, 2.7345618991392997, 17.059571961649137], "label": "Na", "properties": {}}, {"species": [{"element": "Na", "occu": 1}], "abc": [0.49034424, 0.95276153, 0.35705591], "xyz": [3.4343610215391203, 15.20632650060545, 15.733605475253928], "label": "Na", "properties": {}}, {"species": [{"element": "Na", "occu": 1}], "abc": [0.50288687, 0.54939229, 0.28471968999999997], "xyz": [3.52274658698916, 8.76844653735685, 12.546122744464867], "label": "Na", "properties": {}}, {"species": [{"element": "Na", "occu": 1}], "abc": [0.99116659, 0.98398503, 0.36788283], "xyz": [6.94329353431012, 15.704661834832951, 16.21069178868909], "label": "Na", "properties": {}}, {"species": [{"element": "Na", "occu": 1}], "abc": [0.99890789, 0.57224988, 0.29984357], "xyz": [6.99804947280452, 9.1332597310182, 13.21255383973811], "label": "Na", "properties": {}}, {"species": [{"element": "Na", "occu": 1}], "abc": [0.50441965, 0.69054977, 0.39579074999999997], "xyz": [3.53330859364188, 11.021357324889049, 17.440449343787247], "label": "Na", "properties": {}}, {"species": [{"element": "Na", "occu": 1}], "abc": [0.49904877, 0.29510956, 0.31895069], "xyz": [3.49617462549604, 4.7100267816334, 14.054505700577868], "label": "Na", "properties": {}}, {"species": [{"element": "Na", "occu": 1}], "abc": [0.9951429, 0.74341851, 0.4020433], "xyz": [6.97145538376944, 11.86515642550515, 17.715966852835898], "label": "Na", "properties": {}}, {"species": [{"element": "Na", "occu": 1}], "abc": [0.00339367, 0.30870365, 0.33417617], "xyz": [0.023389745577000003, 4.92699206046725, 14.725413781867909], "label": "Na", "properties": {}}, {"species": [{"element": "Na", "occu": 1}], "abc": [0.00610954, 0.48240514, 0.37672871999999996], "xyz": [0.04220010239096, 7.6993138717621, 16.600484365816556], "label": "Na", "properties": {}}, {"species": [{"element": "Na", "occu": 1}], "abc": [0.9925484, 0.1104482, 0.29907595], "xyz": [6.9540722377888, 1.762782540773, 13.178728800306848], "label": "Na", "properties": {}}, {"species": [{"element": "Na", "occu": 1}], "abc": [0.49347151, 0.35704068, 0.4249035], "xyz": [3.4570202140001203, 5.6984638685802, 18.7232975195805], "label": "Na", "properties": {}}, {"species": [{"element": "Na", "occu": 1}], "abc": [0.51320357, 0.08174259, 0.45544648], "xyz": [3.5956170882263603, 1.30463339818635, 20.069168527173037], "label": "Na", "properties": {}}, {"species": [{"element": "Na", "occu": 1}], "abc": [0.03531135, 0.93087107, 0.44571853], "xyz": [0.24623697480308, 14.85694895803355, 19.640508132270188], "label": "Na", "properties": {}}, {"species": [{"element": "P", "occu": 1}], "abc": [0.02491343, 0.17639163, 0.03886673], "xyz": [0.17433240633332003, 2.8152571585819497, 1.71265557803879], "label": "P", "properties": {}}, {"species": [{"element": "P", "occu": 1}], "abc": [0.99892546, 0.56891512, 0.11091423], "xyz": [6.998176764062481, 9.080036077706799, 4.8874159131312895], "label": "P", "properties": {}}, {"species": [{"element": "P", "occu": 1}], "abc": [0.4808003, 0.86541088, 0.07036181], "xyz": [3.36760188186072, 13.812186978683199, 3.10048070360963], "label": "P", "properties": {}}, {"species": [{"element": "P", "occu": 1}], "abc": [0.99639679, 0.97138136, 0.18410414], "xyz": [6.979954342403641, 15.5035039216604, 8.11251634266722], "label": "P", "properties": {}}, {"species": [{"element": "P", "occu": 1}], "abc": [3.684e-05, 0.38025949, 0.25647348999999997], "xyz": [-0.00021948940663999995, 6.069042229164849, 11.301458941042268], "label": "P", "properties": {}}, {"species": [{"element": "P", "occu": 1}], "abc": [0.49941526, 0.27117454, 0.14785998], "xyz": [3.4987724707469603, 4.3280175196531, 6.5154238474835395], "label": "P", "properties": {}}, {"species": [{"element": "P", "occu": 1}], "abc": [0.50054823, 0.67554572, 0.21791537], "xyz": [3.5062026442122805, 10.7818887108158, 9.60240220802951], "label": "P", "properties": {}}, {"species": [{"element": "P", "occu": 1}], "abc": [0.00031258, 0.78433467, 0.32629384], "xyz": [0.0012049424180800002, 12.51818918188755, 14.37808030559032], "label": "P", "properties": {}}, {"species": [{"element": "P", "occu": 1}], "abc": [0.97974363, 0.19087866, 0.4036764], "xyz": [6.864255620507641, 3.0464739964449, 17.787929115277198], "label": "P", "properties": {}}, {"species": [{"element": "P", "occu": 1}], "abc": [0.49639173, 0.0842356, 0.29010704], "xyz": [3.477823144993, 1.3444224984339999, 12.783515368653918], "label": "P", "properties": {}}, {"species": [{"element": "P", "occu": 1}], "abc": [0.49764306, 0.48704672, 0.36338179], "xyz": [3.4860845577648805, 7.7733947185808, 16.01235425777317], "label": "P", "properties": {}}, {"species": [{"element": "P", "occu": 1}], "abc": [0.52583306, 0.87946889, 0.43511983], "xyz": [3.68310265531936, 14.036556543655848, 19.17347829274009], "label": "P", "properties": {}}, {"species": [{"element": "S", "occu": 1}], "abc": [0.18372596, 0.08051174, 0.058608360000000005], "xyz": [1.28716011791776, 1.2849887060111, 2.58256700972028], "label": "S", "properties": {}}, {"species": [{"element": "S", "occu": 1}], "abc": [0.65368672, 0.76286383, 0.07849681], "xyz": [4.57904555177192, 12.175508885714951, 3.4589480387146296], "label": "S", "properties": {}}, {"species": [{"element": "S", "occu": 1}], "abc": [0.19837444, 0.27736648, 0.029870920000000002], "xyz": [1.3895462716059201, 4.4268425229172, 1.31625680264716], "label": "S", "properties": {}}, {"species": [{"element": "S", "occu": 1}], "abc": [0.17038733, 0.67235798, 0.10364475000000001], "xyz": [1.19296071503572, 10.7310115356647, 4.56708756362925], "label": "S", "properties": {}}, {"species": [{"element": "S", "occu": 1}], "abc": [0.35227591, 0.89947497, 0.11116063000000001], "xyz": [2.46706324077988, 14.35585888206705, 4.89827348551849], "label": "S", "properties": {}}, {"species": [{"element": "S", "occu": 1}], "abc": [0.8145378, 0.20852798, 0.07070087], "xyz": [5.70673202153312, 3.3281618207147, 3.11542132249601], "label": "S", "properties": {}}, {"species": [{"element": "S", "occu": 1}], "abc": [0.65634623, 0.96270429, 0.05639267], "xyz": [4.59742819620836, 15.36501558503685, 2.48493302204741], "label": "S", "properties": {}}, {"species": [{"element": "S", "occu": 1}], "abc": [0.89940701, 0.13337649, 9.99999999999994e-05], "xyz": [6.30145574213276, 2.1287241251698497, 0.004406482299999973], "label": "S", "properties": {}}, {"species": [{"element": "S", "occu": 1}], "abc": [0.86697496, 0.53606629, 0.07058644], "xyz": [6.073717399982961, 8.55576004596685, 3.11037898480012], "label": "S", "properties": {}}, {"species": [{"element": "S", "occu": 1}], "abc": [0.29691191, 0.23276677, 0.11681682000000002], "xyz": [2.07999718939908, 3.71501933239405, 5.14751249672286], "label": "S", "properties": {}}, {"species": [{"element": "S", "occu": 1}], "abc": [0.26742977, 0.83930607, 0.03901984], "xyz": [1.8726711206994802, 13.39554729330855, 1.7194023430883199], "label": "S", "properties": {}}, {"species": [{"element": "S", "occu": 1}], "abc": [0.15551875, 0.87192064, 0.2004405], "xyz": [1.0885345480511601, 13.916084473369601, 8.8323751545315], "label": "S", "properties": {}}, {"species": [{"element": "S", "occu": 1}], "abc": [0.16979321, 0.47108917, 0.12512813], "xyz": [1.18905085441068, 7.51870799183005, 5.51374890077099], "label": "S", "properties": {}}, {"species": [{"element": "S", "occu": 1}], "abc": [0.68300732, 0.17325148, 0.15709841], "xyz": [4.78521854313552, 2.7651395324422, 6.922513630231429], "label": "S", "properties": {}}, {"species": [{"element": "S", "occu": 1}], "abc": [0.67853198, 0.57564952, 0.22682565000000002], "xyz": [4.753357019514481, 9.1875188863228, 9.99503211910995], "label": "S", "properties": {}}, {"species": [{"element": "S", "occu": 1}], "abc": [0.17683507, 0.06915867, 0.1735326], "xyz": [1.2388939078598802, 1.10379070024755, 7.6466833037298], "label": "S", "properties": {}}, {"species": [{"element": "S", "occu": 1}], "abc": [0.17766887, 0.48030814, 0.24760507], "xyz": [1.2442194571215601, 7.6658451960570995, 10.91067358345261], "label": "S", "properties": {}}, {"species": [{"element": "S", "occu": 1}], "abc": [0.35849407, 0.70859787, 0.2572154], "xyz": [2.51087002300468, 11.30940978363555, 11.334151073874198], "label": "S", "properties": {}}, {"species": [{"element": "S", "occu": 1}], "abc": [0.35662075, 0.30711874, 0.18677697000000001], "xyz": [2.49824901407756, 4.9016964768661, 8.23029412352631], "label": "S", "properties": {}}, {"species": [{"element": "S", "occu": 1}], "abc": [0.80209686, 0.00832363, 0.21688035], "xyz": [5.619817027361921, 0.13284734056195, 9.556794234928049], "label": "S", "properties": {}}, {"species": [{"element": "S", "occu": 1}], "abc": [0.7990084, 0.60005234, 0.14375719], "xyz": [5.597434768188959, 9.576994360270099, 6.33463513232737], "label": "S", "properties": {}}, {"species": [{"element": "S", "occu": 1}], "abc": [0.6589599, 0.77601929, 0.20234361], "xyz": [4.61597514232976, 12.385473513511851, 8.91623535983103], "label": "S", "properties": {}}, {"species": [{"element": "S", "occu": 1}], "abc": [0.65217777, 0.3704509, 0.13013278], "xyz": [4.568966084953, 5.9124945334885, 5.7342779171979394], "label": "S", "properties": {}}, {"species": [{"element": "S", "occu": 1}], "abc": [0.84738661, 0.9359074, 0.14559703000000002], "xyz": [5.935970992341801, 14.937330119460999, 6.41570735627569], "label": "S", "properties": {}}, {"species": [{"element": "S", "occu": 1}], "abc": [0.85847644, 0.34695059, 0.21714101], "xyz": [6.01441072880376, 5.53742335830635, 9.56828017169123], "label": "S", "properties": {}}, {"species": [{"element": "S", "occu": 1}], "abc": [0.30231124, 0.04717623, 0.25732354999999996], "xyz": [2.11806026481592, 0.75294513250095, 11.338916684481648], "label": "S", "properties": {}}, {"species": [{"element": "S", "occu": 1}], "abc": [0.30381147, 0.64258721, 0.18481621], "xyz": [2.1278236701016398, 10.255862157210649, 8.14389358118083], "label": "S", "properties": {}}, {"species": [{"element": "S", "occu": 1}], "abc": [0.15251559, 0.68492364, 0.34402736], "xyz": [1.0677280159959601, 10.931562799164599, 15.159504725557278], "label": "S", "properties": {}}, {"species": [{"element": "S", "occu": 1}], "abc": [0.15897011, 0.27994063, 0.27213865], "xyz": [1.1134597526749201, 4.46792663906695, 11.991741443708948], "label": "S", "properties": {}}, {"species": [{"element": "S", "occu": 1}], "abc": [0.67734504, 0.98658865, 0.30070397], "xyz": [4.7445246798124, 15.746216299992248, 13.250467213447308], "label": "S", "properties": {}}, {"species": [{"element": "S", "occu": 1}], "abc": [0.66853501, 0.38347177, 0.37077093], "xyz": [4.683555424221081, 6.12031106921905, 16.337955403995387], "label": "S", "properties": {}}, {"species": [{"element": "S", "occu": 1}], "abc": [0.18410982, 0.88210708, 0.31681672], "xyz": [1.28884279855192, 14.0786627551762, 13.96047269024056], "label": "S", "properties": {}}, {"species": [{"element": "S", "occu": 1}], "abc": [0.15244465, 0.29363098, 0.39576317], "xyz": [1.06772244414212, 4.6864282530097, 17.43923403596891], "label": "S", "properties": {}}, {"species": [{"element": "S", "occu": 1}], "abc": [0.36603501, 0.5202826, 0.40373425999999996], "xyz": [2.5639415398186003, 8.303848170889001, 17.79047870593598], "label": "S", "properties": {}}, {"species": [{"element": "S", "occu": 1}], "abc": [0.34688504, 0.1192855, 0.32865458999999997], "xyz": [2.4302724593688, 1.9038281906575, 14.482106336487568], "label": "S", "properties": {}}, {"species": [{"element": "S", "occu": 1}], "abc": [0.7991298, 0.82322841, 0.35746764], "xyz": [5.59800503843304, 13.13894357912865, 15.751748284827718], "label": "S", "properties": {}}, {"species": [{"element": "S", "occu": 1}], "abc": [0.80222999, 0.41288957, 0.28947489], "xyz": [5.620241657235879, 6.58982695293605, 12.755659790794468], "label": "S", "properties": {}}, {"species": [{"element": "S", "occu": 1}], "abc": [0.66924265, 0.5845994, 0.34912539], "xyz": [4.688260830966601, 9.330361342841, 15.384148515155967], "label": "S", "properties": {}}, {"species": [{"element": "S", "occu": 1}], "abc": [0.65490922, 0.18389667, 0.27381352999999997], "xyz": [4.58833808297488, 2.93503958581755, 12.065544734455187], "label": "S", "properties": {}}, {"species": [{"element": "S", "occu": 1}], "abc": [0.85618103, 0.74832081, 0.28750518999999997], "xyz": [5.99782400127524, 11.943398432614648, 12.668865308931368], "label": "S", "properties": {}}, {"species": [{"element": "S", "occu": 1}], "abc": [0.85131819, 0.15711466, 0.36285013], "xyz": [5.964495456766841, 2.5075916089849, 15.988926753976989], "label": "S", "properties": {}}, {"species": [{"element": "S", "occu": 1}], "abc": [0.31595266, 0.8469912, 0.40329437999999995], "xyz": [2.2126332151300003, 13.518204004668, 17.771095471594737], "label": "S", "properties": {}}, {"species": [{"element": "S", "occu": 1}], "abc": [0.29798978, 0.45586078, 0.3305284], "xyz": [2.08726899324792, 7.2756588519067, 14.564675442473199], "label": "S", "properties": {}}, {"species": [{"element": "S", "occu": 1}], "abc": [0.15534324, 0.09347581, 0.41755591999999997], "xyz": [1.08828257798344, 1.49189869868965, 18.399527707402157], "label": "S", "properties": {}}, {"species": [{"element": "S", "occu": 1}], "abc": [0.69935291, 0.77856728, 0.44424309], "xyz": [4.89898233517852, 12.4261401091292, 19.57549312982307], "label": "S", "properties": {}}, {"species": [{"element": "S", "occu": 1}], "abc": [0.39973137, 0.92253059, 0.47382979999999997], "xyz": [2.79952716697436, 14.72383268700635, 20.879226269125397], "label": "S", "properties": {}}, {"species": [{"element": "S", "occu": 1}], "abc": [0.76665073, 0.21678173, 0.43510693], "xyz": [5.37120472983372, 3.45989385795845, 19.17290985652339], "label": "S", "properties": {}}, {"species": [{"element": "S", "occu": 1}], "abc": [0.6844044, 0.97550529, 0.41544101], "xyz": [4.79399944160376, 15.56932293730185, 18.30633457259123], "label": "S", "properties": {}}]}, "formula": "", "bandgap": 2.4124, "slab_thickness": 20.874819786825398}