{"miller": "201_0.05", "final_energy": -391.42970958, "gamma": 0.016339186159260163, "work_function": "Not calculated", "ionization_potentail": "Not calculated", "electron_affinity": "Not calculated", "is_stochiometric": true, "incar_parameters": {"SYSTEM": "unknown system", "LCOMPAT": false, "PREC": "normal", "ENMAX": 520.0, "ENAUG": 368.056, "EDIFF": 1e-05, "IALGO": 38, "IWAVPR": 11, "NBANDS": 360, "NBANDSLOW": -1, "NBANDSHIGH": -1, "NELECT": 600.0, "TURBO": 0, "IRESTART": 0, "NREBOOT": 0, "NMIN": 0, "EREF": 0.0, "ISMEAR": 0, "SIGMA": 0.05, "KSPACING": 0.5, "KGAMMA": true, "KBLOWUP": true, "LREAL": true, "ROPT": [-0.0005, -0.0005, -0.0005], "LMAXPAW": -100, "LMAXMIX": 2, "NLSPLINE": false, "ISTART": 0, "ICHARG": 2, "INIWAV": 1, "ISPIN": 1, "LNONCOLLINEAR": false, "MAGMOM": [0.6, 0.6, 0.6, 0.6, 0.6, 0.6, 0.6, 0.6, 0.6, 0.6, 0.6, 0.6, 0.6, 0.6, 0.6, 0.6, 0.6, 0.6, 0.6, 0.6, 0.6, 0.6, 0.6, 0.6, 0.6, 0.6, 0.6, 0.6, 0.6, 0.6, 0.6, 0.6, 0.6, 0.6, 0.6, 0.6, 0.6, 0.6, 0.6, 0.6, 0.6, 0.6, 0.6, 0.6, 0.6, 0.6, 0.6, 0.6, 0.6, 0.6, 0.6, 0.6, 0.6, 0.6, 0.6, 0.6, 0.6, 0.6, 0.6, 0.6, 0.6, 0.6, 0.6, 0.6, 0.6, 0.6, 0.6, 0.6, 0.6, 0.6, 0.6, 0.6, 0.6, 0.6, 0.6, 0.6, 0.6, 0.6, 0.6, 0.6, 0.6, 0.6, 0.6, 0.6, 0.6, 0.6, 0.6, 0.6, 0.6, 0.6, 0.6, 0.6, 0.6, 0.6, 0.6, 0.6], "NUPDOWN": -1.0, "LSORBIT": false, "SAXIS": [0.0, 0.0, 1.0], "LSPIRAL": false, "QSPIRAL": [0.0, 0.0, 0.0], "LZEROZ": false, "LASPH": false, "LMETAGGA": false, "NELM": 100, "NELMDL": -5, "NELMIN": 6, "ENINI": 520.0, "LDIAG": true, "LSUBROT": false, "WEIMIN": 0.001, "EBREAK": 1e-08, "DEPER": 0.3, "NRMM": 4, "TIME": 0.4, "AMIX": 0.4, "BMIX": 1.0, "AMIN": 0.1, "AMIX_MAG": 1.6, "BMIX_MAG": 1.0, "IMIX": 4, "MIXFIRST": false, "MAXMIX": -45, "WC": 100.0, "INIMIX": 1, "MIXPRE": 1, "MREMOVE": 5, "LDIPOL": false, "LMONO": false, "IDIPOL": 0, "EPSILON": 1.0, "DIPOL": [-100.0, -100.0, -100.0], "EFIELD": 0.0, "NGX": 40, "NGY": 90, "NGZ": 250, "NGXF": 80, "NGYF": 180, "NGZF": 500, "ADDGRID": false, "NSW": 150, "IBRION": 2, "MDALGO": 0, "ISIF": 2, "PSTRESS": 0.0, "EDIFFG": -0.01, "NFREE": 1, "POTIM": 0.5, "SMASS": -3.0, "SCALEE": 1.0, "TEBEG": 0.0001, "TEEND": 0.0001, "NBLOCK": 1, "KBLOCK": 150, "NPACO": 256, "APACO": 10.0, "ISYM": 0, "SYMPREC": 1e-05, "LORBIT": 11, "RWIGS": [-1.0, -1.0, -1.0], "NEDOS": 301, "EMIN": 10.0, "EMAX": -10.0, "EFERMI": 0.0, "NWRITE": 2, "LWAVE": false, "LDOWNSAMPLE": false, "LCHARG": false, "LPARD": false, "LVTOT": false, "LVHAR": false, "LELF": false, "LOPTICS": false, "STM": [0.0, 0.0, 0.0, 0.0, 0.0, 0.0, 0.0], "NPAR": 1, "NSIM": 4, "NBLK": -1, "LPLANE": true, "LSCALAPACK": true, "LSCAAWARE": false, "LSCALU": false, "LASYNC": false, "LORBITALREAL": false, "IDIOT": 3, "PHON_NSTRUCT": -1, "LMUSIC": false, "POMASS": [22.99, 30.974, 32.066], "DARWINR": [0.0, 0.0, 0.0], "DARWINV": [1.0, 1.0, 1.0], "LCORR": true, "GGA_COMPAT": true, "LBERRY": false, "ICORELEVEL": 0, "LDAU": false, "I_CONSTRAINED_M": 0, "GGA": "--", "VOSKOWN": 0, "LHFCALC": false, "PRECFOCK": "", "LSYMGRAD": false, "LHFONE": false, "LRHFCALC": false, "LTHOMAS": false, "LMODELHF": false, "LFOCKACE": false, "ENCUT4O": -1.0, "EXXOEP": 0, "FOURORBIT": 0, "AEXX": 0.0, "HFALPHA": 0.0, "MCALPHA": 0.0, "ALDAX": 1.0, "AGGAX": 1.0, "ALDAC": 1.0, "AGGAC": 1.0, "NKREDX": 1, "NKREDY": 1, "NKREDZ": 1, "SHIFTRED": false, "ODDONLY": false, "EVENONLY": false, "LMAXFOCK": 0, "NMAXFOCKAE": 0, "LFOCKAEDFT": false, "HFSCREEN": 0.0, "HFSCREENC": 0.0, "NBANDSGWLOW": 0, "LUSE_VDW": false, "Zab_VDW": -0.8491, "PARAM1": 0.1234, "PARAM2": 1.0, "PARAM3": 0.0, "MODEL_GW": 0, "MODEL_EPS0": 30.7969929, "MODEL_ALPHA": 1.0, "LEPSILON": false, "LRPA": false, "LNABLA": false, "LVEL": false, "CSHIFT": 0.1, "OMEGAMAX": -1.0, "DEG_THRESHOLD": 0.002, "RTIME": -0.1, "WPLASMAI": 0.0, "DFIELD": [0.0, 0.0, 0.0], "WPLASMA": [0.0, 0.0, 0.0, 0.0, 0.0, 0.0, 0.0, 0.0, 0.0], "NUCIND": false, "MAGPOS": [0.0, 0.0, 0.0], "LNICSALL": true, "ORBITALMAG": false, "LMAGBLOCH": false, "LCHIMAG": false, "LGAUGE": true, "MAGATOM": 0, "MAGDIPOL": [0.0, 0.0, 0.0], "AVECCONST": [0.0, 0.0, 0.0], "LFINITE_TEMPERATURE": false, "LADDER": false, "LRPAFORCE": false, "LFXC": false, "LHARTREE": true, "IBSE": 0, "KPOINT": [-1, 0, 0, 0], "LTCTC": false, "LTCTE": false, "LTETE": false, "LTRIPLET": false, "LFXCEPS": false, "LFXHEG": false, "NATURALO": 2, "LHOLEGF": false, "L2ORDER": false, "LDMP1": false, "LMP2LT": false, "LSMP2LT": false, "LGWLF": false, "ENCUTGW": -2.0, "ENCUTGWSOFT": -2.0, "ENCUTLF": -1.0, "LESF_SPLINES": false, "LMAXMP2": -1, "SCISSOR": 0.0, "NOMEGA": 0, "NOMEGAR": 0, "NBANDSGW": -1, "NBANDSO": -1, "NBANDSV": -1, "NELMGW": 1, "NELMHF": 1, "DIM": 3, "IESPILON": 4, "ANTIRES": 0, "OMEGAMIN": -30.0, "OMEGATL": -200.0, "OMEGAGRID": 0, "LSELFENERGY": false, "LSPECTRAL": false, "LSPECTRALGW": false, "LSINGLES": false, "LFERMIGW": false, "ODDONLYGW": false, "EVENONLYGW": false, "NKREDLFX": 1, "NKREDLFY": 1, "NKREDLFZ": 1, "MAXMEM": 2800, "TELESCOPE": 0, "NTAUPAR": -1, "NOMEGAPAR": -1, "DAMP_NEWTON": 0.80000001, "LAMBDA": 1.0, "OFIELD_KAPPA": 0.0, "OFIELD_K": [0.0, 0.0, 0.0], "OFIELD_Q6_NEAR": 0.0, "OFIELD_Q6_FAR": 0.0, "OFIELD_A": 0.0, "KPOINTS_OPT_MODE": 1, "LKPOINTS_OPT": false, "@module": "pymatgen.io.vasp.inputs", "@class": "Incar"}, "relaxed_structures": {"@module": "pymatgen.core.structure", "@class": "Structure", "charge": 0, "lattice": {"matrix": [[7.00642, 0.0, 0.0], [-0.001256, 15.960265, 0.0], [0.0, 0.0, 44.064823]], "a": 7.00642, "b": 15.960265049420732, "c": 44.064823, "alpha": 90.0, "beta": 90.0, "gamma": 90.00450891629431, "volume": 4927.518863546162}, "sites": [{"species": [{"element": "Na", "occu": 1}], "abc": [0.52476882, 0.08362422, 0.0585041], "xyz": [3.67664572380408, 1.3346647116183, 2.5779728112743], "label": "Na", "properties": {}}, {"species": [{"element": "Na", "occu": 1}], "abc": [0.51954315, 0.2838141, 0.09825722], "xyz": [3.6397810465133995, 4.5297482467365, 4.32968700777206], "label": "Na", "properties": {}}, {"species": [{"element": "Na", "occu": 1}], "abc": [0.02904977, 0.31703791, 0.10629865999999999], "xyz": [0.20313668990844003, 5.060009058646149, 4.68403163803718], "label": "Na", "properties": {}}, {"species": [{"element": "Na", "occu": 1}], "abc": [0.01274544, 0.91035336, 0.045745560000000005], "xyz": [0.08815650190464001, 14.5294808692404, 2.01577000443588], "label": "Na", "properties": {}}, {"species": [{"element": "Na", "occu": 1}], "abc": [0.48018754, 0.6108504, 0.06540671], "xyz": [3.3636283559044005, 9.749334259356, 2.8821350991623302], "label": "Na", "properties": {}}, {"species": [{"element": "Na", "occu": 1}], "abc": [0.01535367, 0.24857073, 0.010455259999999997], "xyz": [0.10726205572452, 3.96725472204345, 0.46070918131897987], "label": "Na", "properties": {}}, {"species": [{"element": "Na", "occu": 1}], "abc": [0.99388711, 0.63950881, 0.08334991], "xyz": [6.96278730218084, 10.206730077434651, 3.6727990312159298], "label": "Na", "properties": {}}, {"species": [{"element": "Na", "occu": 1}], "abc": [0.98540938, 0.84278915, 0.11633017000000001], "xyz": [6.9031334450472, 13.45113817312475, 5.12606835060991], "label": "Na", "properties": {}}, {"species": [{"element": "Na", "occu": 1}], "abc": [0.99258536, 0.44388224, 0.036507540000000005], "xyz": [6.95391240191776, 7.084478179193599, 1.6086982882654202], "label": "Na", "properties": {}}, {"species": [{"element": "Na", "occu": 1}], "abc": [0.49364975, 0.89346187, 0.20353835], "xyz": [3.4575952932862806, 14.25988821259555, 8.96888136646205], "label": "Na", "properties": {}}, {"species": [{"element": "Na", "occu": 1}], "abc": [0.49036771, 0.48370989, 0.13323277], "xyz": [3.4351145910763603, 7.720138027520849, 5.87087842784971], "label": "Na", "properties": {}}, {"species": [{"element": "Na", "occu": 1}], "abc": [0.49778866, 0.09091878, 0.24197694], "xyz": [3.48760222920952, 1.4510878222767, 10.662671031181619], "label": "Na", "properties": {}}, {"species": [{"element": "Na", "occu": 1}], "abc": [0.50368112, 0.68541567, 0.17030939], "xyz": [3.52814059070888, 10.93941572835255, 7.50465312558797], "label": "Na", "properties": {}}, {"species": [{"element": "Na", "occu": 1}], "abc": [0.00030663, 0.12078654, 0.25378258], "xyz": [0.0019966706703600005, 1.9277851868331, 11.182884468183339], "label": "Na", "properties": {}}, {"species": [{"element": "Na", "occu": 1}], "abc": [1.568e-05, 0.70900289, 0.18643490000000001], "xyz": [-0.0007806469642400001, 11.315874010165851, 8.2152208695227], "label": "Na", "properties": {}}, {"species": [{"element": "Na", "occu": 1}], "abc": [0.50201451, 0.02453145, 0.13402195], "xyz": [3.5172936916529998, 0.39152844283425, 5.9056535048648495], "label": "Na", "properties": {}}, {"species": [{"element": "Na", "occu": 1}], "abc": [0.50070565, 0.42726704, 0.21086024], "xyz": [3.50761743287076, 6.8192951841655995, 9.29151915333752], "label": "Na", "properties": {}}, {"species": [{"element": "Na", "occu": 1}], "abc": [0.00104132, 0.05617346, 0.14859634], "xyz": [0.007225371408640001, 0.8965433075669, 6.5478714205478195], "label": "Na", "properties": {}}, {"species": [{"element": "Na", "occu": 1}], "abc": [0.99849175, 0.45673853, 0.22267915000000002], "xyz": [6.995278903441321, 7.28966797451045, 9.81231733054045], "label": "Na", "properties": {}}, {"species": [{"element": "Na", "occu": 1}], "abc": [0.99464563, 0.65502178, 0.26118176], "xyz": [6.968082327588919, 10.454321189571699, 11.508928025228478], "label": "Na", "properties": {}}, {"species": [{"element": "Na", "occu": 1}], "abc": [0.99573965, 0.25467228, 0.18557975], "xyz": [6.976250330169321, 4.0646370769542, 8.177538836134248], "label": "Na", "properties": {}}, {"species": [{"element": "Na", "occu": 1}], "abc": [0.48575271, 0.70583858, 0.34842547999999995], "xyz": [3.40250096914172, 11.2653707840237, 15.353307104890037], "label": "Na", "properties": {}}, {"species": [{"element": "Na", "occu": 1}], "abc": [0.49494054, 0.2938255, 0.27891928], "xyz": [3.4673922534388, 4.6895328437575, 12.29052870448744], "label": "Na", "properties": {}}, {"species": [{"element": "Na", "occu": 1}], "abc": [0.49024339, 0.90958085, 0.38143836999999997], "xyz": [3.4337086590162005, 14.517151404925249, 16.808014259458506], "label": "Na", "properties": {}}, {"species": [{"element": "Na", "occu": 1}], "abc": [0.5004816, 0.49256806, 0.31609798], "xyz": [3.50596562638864, 7.8615167681359, 13.92880153935754], "label": "Na", "properties": {}}, {"species": [{"element": "Na", "occu": 1}], "abc": [0.97647876, 0.93786021, 0.39868467999999996], "xyz": [6.840442361215441, 14.96849748455565, 17.567969857011636], "label": "Na", "properties": {}}, {"species": [{"element": "Na", "occu": 1}], "abc": [0.00080846, 0.52332634, 0.3306788], "xyz": [0.005007112430160001, 8.3524270678801, 14.571302791852398], "label": "Na", "properties": {}}, {"species": [{"element": "Na", "occu": 1}], "abc": [0.5007032, 0.83885166, 0.27830195999999996], "xyz": [3.5070833168590405, 13.3882947892899, 12.263326607953077], "label": "Na", "properties": {}}, {"species": [{"element": "Na", "occu": 1}], "abc": [0.53153821, 0.23218466, 0.35802171], "xyz": [3.7238883213752403, 3.7057287025348997, 15.776163281307328], "label": "Na", "properties": {}}, {"species": [{"element": "Na", "occu": 1}], "abc": [0.00319068, 0.86271479, 0.29448368999999996], "xyz": [0.021271674389360003, 13.769156667819349, 12.976371676236868], "label": "Na", "properties": {}}, {"species": [{"element": "Na", "occu": 1}], "abc": [0.02058238, 0.26521051, 0.36668658], "xyz": [0.14387569447904, 4.23283002038515, 16.157979244175337], "label": "Na", "properties": {}}, {"species": [{"element": "Na", "occu": 1}], "abc": [0.02489382, 0.46612576, 0.40628472], "xyz": [0.17383110436984, 7.4394906529264, 17.902864274404557], "label": "Na", "properties": {}}, {"species": [{"element": "Na", "occu": 1}], "abc": [0.98951689, 0.06563196, 0.33131035], "xyz": [6.93288849469204, 1.0475034740694, 14.599131930818048], "label": "Na", "properties": {}}, {"species": [{"element": "Na", "occu": 1}], "abc": [0.49027887, 0.10498589, 0.42793544], "xyz": [3.4349678180675602, 1.67560262566085, 18.85689941902712], "label": "Na", "properties": {}}, {"species": [{"element": "Na", "occu": 1}], "abc": [0.5164067, 0.29966604, 0.45424541999999996], "xyz": [3.6177858504677602, 4.7827494099006005, 20.01624403086066], "label": "Na", "properties": {}}, {"species": [{"element": "Na", "occu": 1}], "abc": [0.51317341, 0.63855746, 0.41901539], "xyz": [3.5947064151224404, 10.1915462793269, 18.463838994625966], "label": "Na", "properties": {}}, {"species": [{"element": "P", "occu": 1}], "abc": [0.01856666, 0.1096648, 0.07079694], "xyz": [0.1299480789684, 1.7502792691720002, 3.11965463004162], "label": "P", "properties": {}}, {"species": [{"element": "P", "occu": 1}], "abc": [0.49581926, 0.41739698, 0.03245697], "xyz": [3.47339372904232, 6.661766410999699, 1.43021063816631], "label": "P", "properties": {}}, {"species": [{"element": "P", "occu": 1}], "abc": [0.48735711, 0.81111837, 0.09945773999999999], "xyz": [3.41360983797348, 12.94566413156805, 4.38258770908002], "label": "P", "properties": {}}, {"species": [{"element": "P", "occu": 1}], "abc": [0.99906138, 0.91955347, 0.21418433], "xyz": [6.99868867490128, 14.676317062869549, 9.437994590823589], "label": "P", "properties": {}}, {"species": [{"element": "P", "occu": 1}], "abc": [0.99377409, 0.51633118, 0.14527602], "xyz": [6.962150147695721, 8.2407824605627, 6.40156210744446], "label": "P", "properties": {}}, {"species": [{"element": "P", "occu": 1}], "abc": [0.49707653, 0.22089446, 0.17696214], "xyz": [3.4824494978808405, 3.5255341186319, 7.797805376801219], "label": "P", "properties": {}}, {"species": [{"element": "P", "occu": 1}], "abc": [0.4996795, 0.6279902, 0.25053883], "xyz": [3.5001756866988, 10.022890009403001, 11.039949198577089], "label": "P", "properties": {}}, {"species": [{"element": "P", "occu": 1}], "abc": [0.98722848, 0.73693705, 0.36509665999999996], "xyz": [6.916011773906799, 11.76171060631825, 16.087919700791176], "label": "P", "properties": {}}, {"species": [{"element": "P", "occu": 1}], "abc": [0.99615496, 0.32695535, 0.28782009], "xyz": [6.979069378923601, 5.218294029167749, 12.682741321694069], "label": "P", "properties": {}}, {"species": [{"element": "P", "occu": 1}], "abc": [0.49296737, 0.03219685, 0.31927739], "xyz": [3.4538960012718003, 0.51387025816525, 14.068901678251969], "label": "P", "properties": {}}, {"species": [{"element": "P", "occu": 1}], "abc": [0.51859141, 0.43927362, 0.39400615], "xyz": [3.63291749918548, 7.0109233827093, 17.361811260661447], "label": "P", "properties": {}}, {"species": [{"element": "P", "occu": 1}], "abc": [0.99404401, 0.13057533, 0.43218803], "xyz": [6.964525829929721, 2.0840168692624497, 19.044289044668687], "label": "P", "properties": {}}, {"species": [{"element": "S", "occu": 1}], "abc": [0.16971184, 0.01086166, 0.08966104], "xyz": [1.1890587877678402, 0.17335497193990002, 3.9508978575959195], "label": "S", "properties": {}}, {"species": [{"element": "S", "occu": 1}], "abc": [0.68940924, 0.3219912, 0.04231783], "xyz": [4.8298862663736, 5.139064879667999, 1.86472768869409], "label": "S", "properties": {}}, {"species": [{"element": "S", "occu": 1}], "abc": [0.20815118, 0.20473768, 0.06166355], "xyz": [1.45813744004952, 3.2676676282852, 2.7171934163016496], "label": "S", "properties": {}}, {"species": [{"element": "S", "occu": 1}], "abc": [0.33976953, 0.44421434, 0.07251682], "xyz": [2.38001009717156, 7.0897785832001, 3.1954408378228596], "label": "S", "properties": {}}, {"species": [{"element": "S", "occu": 1}], "abc": [0.81218998, 0.14762494, 0.10155934], "xyz": [5.69035870274696, 2.3561331630091003, 4.475194341096819], "label": "S", "properties": {}}, {"species": [{"element": "S", "occu": 1}], "abc": [0.65330726, 0.90714085, 0.08293828], "xyz": [4.5762056837016, 14.478208358325249, 3.65466062812444], "label": "S", "properties": {}}, {"species": [{"element": "S", "occu": 1}], "abc": [0.64738336, 0.52244433, 0.01972072], "xyz": [4.53518353109272, 8.33834995454745, 0.86899003623256], "label": "S", "properties": {}}, {"species": [{"element": "S", "occu": 1}], "abc": [0.89529298, 0.07341843, 0.030252739999999997], "xyz": [6.27270642738352, 1.17177759868395, 1.3330816333650197], "label": "S", "properties": {}}, {"species": [{"element": "S", "occu": 1}], "abc": [0.85614488, 0.48410935, 0.10558856999999999], "xyz": [5.997902568786, 7.72651351497775, 4.65274164787311], "label": "S", "properties": {}}, {"species": [{"element": "S", "occu": 1}], "abc": [0.30133807, 0.38489039, 9.99999999999994e-05], "xyz": [2.11081765807956, 6.14295262035335, 0.004406482299999973], "label": "S", "properties": {}}, {"species": [{"element": "S", "occu": 1}], "abc": [0.27675051, 0.77379925, 0.06833851], "xyz": [1.9380584164162002, 12.35004108680125, 3.01132434723373], "label": "S", "properties": {}}, {"species": [{"element": "S", "occu": 1}], "abc": [0.15745126, 0.82042461, 0.23089521999999998], "xyz": [1.10213920377904, 13.09419418812165, 10.174357000846058], "label": "S", "properties": {}}, {"species": [{"element": "S", "occu": 1}], "abc": [0.15178758, 0.41664459, 0.161201], "xyz": [1.06296423065856, 6.649758067216349, 7.103293532423], "label": "S", "properties": {}}, {"species": [{"element": "S", "occu": 1}], "abc": [0.68047525, 0.12226216, 0.18585049], "xyz": [4.76754183983204, 1.9513364730723999, 8.18946894631327], "label": "S", "properties": {}}, {"species": [{"element": "S", "occu": 1}], "abc": [0.66384324, 0.71039045, 0.10903496000000001], "xyz": [4.6502723031955995, 11.33801983546925, 4.804606213212081], "label": "S", "properties": {}}, {"species": [{"element": "S", "occu": 1}], "abc": [0.18157694, 0.01660573, 0.20351892], "xyz": [1.27218344715792, 0.26503185131845, 8.96802518695116], "label": "S", "properties": {}}, {"species": [{"element": "S", "occu": 1}], "abc": [0.17682822, 0.61575951, 0.13689217], "xyz": [1.2381593832278401, 9.827684955870149, 6.03212924113591], "label": "S", "properties": {}}, {"species": [{"element": "S", "occu": 1}], "abc": [0.35846239, 0.84691807, 0.13958039], "xyz": [2.5104743294478804, 13.51703683048855, 6.150585179620969], "label": "S", "properties": {}}, {"species": [{"element": "S", "occu": 1}], "abc": [0.35148168, 0.25137847, 0.21635896], "xyz": [2.46231254102728, 4.01206699649455, 9.53381927686408], "label": "S", "properties": {}}, {"species": [{"element": "S", "occu": 1}], "abc": [0.80517877, 0.95705556, 0.2467576], "xyz": [5.6402185759200405, 15.2748603573234, 10.873329967904798], "label": "S", "properties": {}}, {"species": [{"element": "S", "occu": 1}], "abc": [0.7943771, 0.5517853, 0.17748886], "xyz": [5.5650465586452, 8.8066396111045, 7.82101520037178], "label": "S", "properties": {}}, {"species": [{"element": "S", "occu": 1}], "abc": [0.65687191, 0.72730646, 0.23369021999999998], "xyz": [4.6014069907484405, 11.6080038378119, 10.297518181131059], "label": "S", "properties": {}}, {"species": [{"element": "S", "occu": 1}], "abc": [0.65218878, 0.32241265, 0.16175836], "xyz": [4.569103561679201, 5.145791333352251, 7.127853502170279], "label": "S", "properties": {}}, {"species": [{"element": "S", "occu": 1}], "abc": [0.8512792, 0.88336576, 0.17559177], "xyz": [5.963310105069441, 14.0987516215264, 7.73742026530671], "label": "S", "properties": {}}, {"species": [{"element": "S", "occu": 1}], "abc": [0.85210229, 0.29603646, 0.24832532999999998], "xyz": [5.969814704908041, 4.7248203512619, 10.942411712866589], "label": "S", "properties": {}}, {"species": [{"element": "S", "occu": 1}], "abc": [0.30491142, 0.18704537, 0.14366261], "xyz": [2.1361025423316797, 2.9852936722230496, 6.3304674813680295], "label": "S", "properties": {}}, {"species": [{"element": "S", "occu": 1}], "abc": [0.30522897, 0.59039011, 0.2180446], "xyz": [2.13782083000924, 9.42278260897915, 9.6080967051058], "label": "S", "properties": {}}, {"species": [{"element": "S", "occu": 1}], "abc": [0.15364256, 0.64122119, 0.38165819999999995], "xyz": [1.0756789314205601, 10.23406011601535, 16.817701029498597], "label": "S", "properties": {}}, {"species": [{"element": "S", "occu": 1}], "abc": [0.15220938, 0.2259432, 0.30322541999999997], "xyz": [1.0661590595604, 3.6061133469480002, 13.361574461400657], "label": "S", "properties": {}}, {"species": [{"element": "S", "occu": 1}], "abc": [0.67624568, 0.93306926, 0.32799888], "xyz": [4.73688932227504, 14.8920326529539, 14.45321259139824], "label": "S", "properties": {}}, {"species": [{"element": "S", "occu": 1}], "abc": [0.68248853, 0.53102599, 0.26108658999999995], "xyz": [4.78113431771916, 8.47531552228735, 11.504734376023567], "label": "S", "properties": {}}, {"species": [{"element": "S", "occu": 1}], "abc": [0.16347799, 0.83769968, 0.35548049], "xyz": [1.1443433078977199, 13.3699088832152, 15.664184871803268], "label": "S", "properties": {}}, {"species": [{"element": "S", "occu": 1}], "abc": [0.17907124, 0.42583986, 0.27903374999999997], "xyz": [1.2541134624966401, 6.7965170131629, 12.295572804776247], "label": "S", "properties": {}}, {"species": [{"element": "S", "occu": 1}], "abc": [0.3529128, 0.6640383, 0.28923706], "xyz": [2.4718212680712, 10.5982272381495, 12.745179853940378], "label": "S", "properties": {}}, {"species": [{"element": "S", "occu": 1}], "abc": [0.35553604, 0.0653528, 0.35885663999999995], "xyz": [2.49095273826, 1.043048006492, 15.812954323974717], "label": "S", "properties": {}}, {"species": [{"element": "S", "occu": 1}], "abc": [0.77638002, 0.77407646, 0.39618067999999995], "xyz": [5.4386722596946395, 12.354465431861898, 17.457631540219637], "label": "S", "properties": {}}, {"species": [{"element": "S", "occu": 1}], "abc": [0.80237067, 0.36063804, 0.32092221], "xyz": [5.62129294832316, 5.7558786874806, 14.141380380418829], "label": "S", "properties": {}}, {"species": [{"element": "S", "occu": 1}], "abc": [0.66911659, 0.53807348, 0.37503107999999996], "xyz": [4.68743603821692, 8.5877953302722, 16.52567815969884], "label": "S", "properties": {}}, {"species": [{"element": "S", "occu": 1}], "abc": [0.65088666, 0.13148215, 0.30295063], "xyz": [4.5602201707768, 2.09848995676975, 13.349465888688488], "label": "S", "properties": {}}, {"species": [{"element": "S", "occu": 1}], "abc": [0.85874339, 0.7009052, 0.32499342999999997], "xyz": [6.015836525632601, 11.186632731878, 14.320777969112887], "label": "S", "properties": {}}, {"species": [{"element": "S", "occu": 1}], "abc": [0.83859701, 0.10482032, 0.39195570999999996], "xyz": [5.87543120848228, 1.6729600845847998, 17.271458984989327], "label": "S", "properties": {}}, {"species": [{"element": "S", "occu": 1}], "abc": [0.29350026, 0.99585791, 0.28722110999999995], "xyz": [2.05513529413424, 15.89415614594615, 12.656347374013526], "label": "S", "properties": {}}, {"species": [{"element": "S", "occu": 1}], "abc": [0.31236558, 0.40092853, 0.36328919], "xyz": [2.18806088078992, 6.39892558486045, 16.008273855163367], "label": "S", "properties": {}}, {"species": [{"element": "S", "occu": 1}], "abc": [0.1461123, 0.02527502, 0.44445841999999997], "xyz": [1.02369239554088, 0.4033960170803, 19.58498160815966], "label": "S", "properties": {}}, {"species": [{"element": "S", "occu": 1}], "abc": [0.70899033, 0.34447442, 0.40309410999999995], "xyz": [4.9670513680470805, 5.4979030289213, 17.762270609492525], "label": "S", "properties": {}}, {"species": [{"element": "S", "occu": 1}], "abc": [0.18675436, 0.22666367, 0.42291983], "xyz": [1.30819479342168, 3.61761223907255, 18.63588745214009], "label": "S", "properties": {}}, {"species": [{"element": "S", "occu": 1}], "abc": [0.39572367, 0.47557826, 0.43457713], "xyz": [2.77200890966684, 7.5903550578389, 19.149564313297986], "label": "S", "properties": {}}, {"species": [{"element": "S", "occu": 1}], "abc": [0.79896742, 0.16155858, 0.46463331999999996], "xyz": [5.59769839325992, 2.5785177498237, 20.473985005702357], "label": "S", "properties": {}}]}, "formula": "", "bandgap": 2.1708, "slab_thickness": 20.469578523402358}