{"miller": "210_0.20", "final_energy": -423.99808201, "gamma": 0.017847535549874383, "work_function": "Not calculated", "ionization_potentail": "Not calculated", "electron_affinity": "Not calculated", "is_stochiometric": true, "incar_parameters": {"SYSTEM": "unknown system", "LCOMPAT": false, "PREC": "normal", "ENMAX": 520.0, "ENAUG": 368.056, "EDIFF": 1e-05, "IALGO": 38, "IWAVPR": 11, "NBANDS": 390, "NBANDSLOW": -1, "NBANDSHIGH": -1, "NELECT": 650.0, "TURBO": 0, "IRESTART": 0, "NREBOOT": 0, "NMIN": 0, "EREF": 0.0, "ISMEAR": 0, "SIGMA": 0.05, "KSPACING": 0.5, "KGAMMA": true, "KBLOWUP": true, "LREAL": true, "ROPT": [-0.0005, -0.0005, -0.0005], "LMAXPAW": -100, "LMAXMIX": 2, "NLSPLINE": false, "ISTART": 0, "ICHARG": 2, "INIWAV": 1, "ISPIN": 1, "LNONCOLLINEAR": false, "MAGMOM": [0.6, 0.6, 0.6, 0.6, 0.6, 0.6, 0.6, 0.6, 0.6, 0.6, 0.6, 0.6, 0.6, 0.6, 0.6, 0.6, 0.6, 0.6, 0.6, 0.6, 0.6, 0.6, 0.6, 0.6, 0.6, 0.6, 0.6, 0.6, 0.6, 0.6, 0.6, 0.6, 0.6, 0.6, 0.6, 0.6, 0.6, 0.6, 0.6, 0.6, 0.6, 0.6, 0.6, 0.6, 0.6, 0.6, 0.6, 0.6, 0.6, 0.6, 0.6, 0.6, 0.6, 0.6, 0.6, 0.6, 0.6, 0.6, 0.6, 0.6, 0.6, 0.6, 0.6, 0.6, 0.6, 0.6, 0.6, 0.6, 0.6, 0.6, 0.6, 0.6, 0.6, 0.6, 0.6, 0.6, 0.6, 0.6, 0.6, 0.6, 0.6, 0.6, 0.6, 0.6, 0.6, 0.6, 0.6, 0.6, 0.6, 0.6, 0.6, 0.6, 0.6, 0.6, 0.6, 0.6, 0.6, 0.6, 0.6, 0.6, 0.6, 0.6, 0.6, 0.6], "NUPDOWN": -1.0, "LSORBIT": false, "SAXIS": [0.0, 0.0, 1.0], "LSPIRAL": false, "QSPIRAL": [0.0, 0.0, 0.0], "LZEROZ": false, "LASPH": false, "LMETAGGA": false, "NELM": 100, "NELMDL": -5, "NELMIN": 6, "ENINI": 520.0, "LDIAG": true, "LSUBROT": false, "WEIMIN": 0.001, "EBREAK": 1e-08, "DEPER": 0.3, "NRMM": 4, "TIME": 0.4, "AMIX": 0.4, "BMIX": 1.0, "AMIN": 0.1, "AMIX_MAG": 1.6, "BMIX_MAG": 1.0, "IMIX": 4, "MIXFIRST": false, "MAXMIX": -45, "WC": 100.0, "INIMIX": 1, "MIXPRE": 1, "MREMOVE": 5, "LDIPOL": false, "LMONO": false, "IDIPOL": 0, "EPSILON": 1.0, "DIPOL": [-100.0, -100.0, -100.0], "EFIELD": 0.0, "NGX": 40, "NGY": 90, "NGZ": 250, "NGXF": 80, "NGYF": 180, "NGZF": 500, "ADDGRID": false, "NSW": 150, "IBRION": 2, "MDALGO": 0, "ISIF": 2, "PSTRESS": 0.0, "EDIFFG": -0.01, "NFREE": 1, "POTIM": 0.5, "SMASS": -3.0, "SCALEE": 1.0, "TEBEG": 0.0001, "TEEND": 0.0001, "NBLOCK": 1, "KBLOCK": 150, "NPACO": 256, "APACO": 10.0, "ISYM": 0, "SYMPREC": 1e-05, "LORBIT": 11, "RWIGS": [-1.0, -1.0, -1.0], "NEDOS": 301, "EMIN": 10.0, "EMAX": -10.0, "EFERMI": 0.0, "NWRITE": 2, "LWAVE": false, "LDOWNSAMPLE": false, "LCHARG": false, "LPARD": false, "LVTOT": false, "LVHAR": false, "LELF": false, "LOPTICS": false, "STM": [0.0, 0.0, 0.0, 0.0, 0.0, 0.0, 0.0], "NPAR": 1, "NSIM": 4, "NBLK": -1, "LPLANE": true, "LSCALAPACK": true, "LSCAAWARE": false, "LSCALU": false, "LASYNC": false, "LORBITALREAL": false, "IDIOT": 3, "PHON_NSTRUCT": -1, "LMUSIC": false, "POMASS": [22.99, 30.974, 32.066], "DARWINR": [0.0, 0.0, 0.0], "DARWINV": [1.0, 1.0, 1.0], "LCORR": true, "GGA_COMPAT": true, "LBERRY": false, "ICORELEVEL": 0, "LDAU": false, "I_CONSTRAINED_M": 0, "GGA": "--", "VOSKOWN": 0, "LHFCALC": false, "PRECFOCK": "", "LSYMGRAD": false, "LHFONE": false, "LRHFCALC": false, "LTHOMAS": false, "LMODELHF": false, "LFOCKACE": false, "ENCUT4O": -1.0, "EXXOEP": 0, "FOURORBIT": 0, "AEXX": 0.0, "HFALPHA": 0.0, "MCALPHA": 0.0, "ALDAX": 1.0, "AGGAX": 1.0, "ALDAC": 1.0, "AGGAC": 1.0, "NKREDX": 1, "NKREDY": 1, "NKREDZ": 1, "SHIFTRED": false, "ODDONLY": false, "EVENONLY": false, "LMAXFOCK": 0, "NMAXFOCKAE": 0, "LFOCKAEDFT": false, "HFSCREEN": 0.0, "HFSCREENC": 0.0, "NBANDSGWLOW": 0, "LUSE_VDW": false, "Zab_VDW": -0.8491, "PARAM1": 0.1234, "PARAM2": 1.0, "PARAM3": 0.0, "MODEL_GW": 0, "MODEL_EPS0": 28.42799558, "MODEL_ALPHA": 1.0, "LEPSILON": false, "LRPA": false, "LNABLA": false, "LVEL": false, "CSHIFT": 0.1, "OMEGAMAX": -1.0, "DEG_THRESHOLD": 0.002, "RTIME": -0.1, "WPLASMAI": 0.0, "DFIELD": [0.0, 0.0, 0.0], "WPLASMA": [0.0, 0.0, 0.0, 0.0, 0.0, 0.0, 0.0, 0.0, 0.0], "NUCIND": false, "MAGPOS": [0.0, 0.0, 0.0], "LNICSALL": true, "ORBITALMAG": false, "LMAGBLOCH": false, "LCHIMAG": false, "LGAUGE": true, "MAGATOM": 0, "MAGDIPOL": [0.0, 0.0, 0.0], "AVECCONST": [0.0, 0.0, 0.0], "LFINITE_TEMPERATURE": false, "LADDER": false, "LRPAFORCE": false, "LFXC": false, "LHARTREE": true, "IBSE": 0, "KPOINT": [-1, 0, 0, 0], "LTCTC": false, "LTCTE": false, "LTETE": false, "LTRIPLET": false, "LFXCEPS": false, "LFXHEG": false, "NATURALO": 2, "LHOLEGF": false, "L2ORDER": false, "LDMP1": false, "LMP2LT": false, "LSMP2LT": false, "LGWLF": false, "ENCUTGW": -2.0, "ENCUTGWSOFT": -2.0, "ENCUTLF": -1.0, "LESF_SPLINES": false, "LMAXMP2": -1, "SCISSOR": 0.0, "NOMEGA": 0, "NOMEGAR": 0, "NBANDSGW": -1, "NBANDSO": -1, "NBANDSV": -1, "NELMGW": 1, "NELMHF": 1, "DIM": 3, "IESPILON": 4, "ANTIRES": 0, "OMEGAMIN": -30.0, "OMEGATL": -200.0, "OMEGAGRID": 0, "LSELFENERGY": false, "LSPECTRAL": false, "LSPECTRALGW": false, "LSINGLES": false, "LFERMIGW": false, "ODDONLYGW": false, "EVENONLYGW": false, "NKREDLFX": 1, "NKREDLFY": 1, "NKREDLFZ": 1, "MAXMEM": 2800, "TELESCOPE": 0, "NTAUPAR": -1, "NOMEGAPAR": -1, "DAMP_NEWTON": 0.80000001, "LAMBDA": 1.0, "OFIELD_KAPPA": 0.0, "OFIELD_K": [0.0, 0.0, 0.0], "OFIELD_Q6_NEAR": 0.0, "OFIELD_Q6_FAR": 0.0, "OFIELD_A": 0.0, "KPOINTS_OPT_MODE": 1, "LKPOINTS_OPT": false, "@module": "pymatgen.io.vasp.inputs", "@class": "Incar"}, "relaxed_structures": {"@module": "pymatgen.core.structure", "@class": "Structure", "charge": 0, "lattice": {"matrix": [[7.169815, 0.0, 0.0], [-0.000529, 15.666677, 0.0], [0.0, 0.0, 43.867561]], "a": 7.169815, "b": 15.66667700893109, "c": 43.867561, "alpha": 90.0, "beta": 90.0, "gamma": 90.00193464557613, "volume": 4927.519234379436}, "sites": [{"species": [{"element": "Na", "occu": 1}], "abc": [0.54664482, 0.13766693, 0.07539595], "xyz": [3.91926940430233, 2.15678332589161, 3.30743643577795], "label": "Na", "properties": {}}, {"species": [{"element": "Na", "occu": 1}], "abc": [0.07777457, 0.13045163, 0.07929876999999999], "xyz": [0.55756026969228, 2.04374355133351, 3.47864363019997], "label": "Na", "properties": {}}, {"species": [{"element": "Na", "occu": 1}], "abc": [0.13808845, 0.74168436, 0.00805368], "xyz": [0.98967628911031, 11.61972930407172, 0.35329529867448006], "label": "Na", "properties": {}}, {"species": [{"element": "Na", "occu": 1}], "abc": [0.97798153, 0.94884267, 0.03423761], "xyz": [7.01144470574452, 14.86521163470759, 1.50192044516921], "label": "Na", "properties": {}}, {"species": [{"element": "Na", "occu": 1}], "abc": [0.98667954, 0.35951075, 0.10789222999999999], "xyz": [7.07411958489835, 5.6323387982777495, 4.73296898095103], "label": "Na", "properties": {}}, {"species": [{"element": "Na", "occu": 1}], "abc": [0.48952558, 0.68796282, 0.06926644], "xyz": [3.50944391403592, 10.77809128894914, 3.03854978195284], "label": "Na", "properties": {}}, {"species": [{"element": "Na", "occu": 1}], "abc": [0.55181318, 0.47044761, 0.05002468], "xyz": [3.9561495483760103, 7.37035075129197, 2.19446070140548], "label": "Na", "properties": {}}, {"species": [{"element": "Na", "occu": 1}], "abc": [0.41093445, 0.85236073, 0.11118797999999999], "xyz": [2.9458730848005796, 13.35366024439421, 4.87754549511678], "label": "Na", "properties": {}}, {"species": [{"element": "Na", "occu": 1}], "abc": [0.91214653, 0.84156814, 0.10433020999999999], "xyz": [6.53947668344589, 13.18457622287078, 4.5767118513178096], "label": "Na", "properties": {}}, {"species": [{"element": "Na", "occu": 1}], "abc": [0.57842066, 0.9357752, 0.21933938], "xyz": [4.1466740992971, 14.660487803010401, 9.62188363185218], "label": "Na", "properties": {}}, {"species": [{"element": "Na", "occu": 1}], "abc": [0.5956573, 0.54212171, 0.14018717], "xyz": [4.27046586201491, 8.493245725257669, 6.14966923139237], "label": "Na", "properties": {}}, {"species": [{"element": "Na", "occu": 1}], "abc": [0.0761048, 0.93678297, 0.21823201], "xyz": [0.54516177842087, 14.67627621009069, 9.573306010827611], "label": "Na", "properties": {}}, {"species": [{"element": "Na", "occu": 1}], "abc": [0.09757636, 0.54434014, 0.14388609000000002], "xyz": [0.69931649363934, 8.528001151514779, 6.3119318301264915], "label": "Na", "properties": {}}, {"species": [{"element": "Na", "occu": 1}], "abc": [0.9980008, 0.74206107, 0.17753581000000002], "xyz": [7.15508855554597, 11.62563109796439, 7.788062974859411], "label": "Na", "properties": {}}, {"species": [{"element": "Na", "occu": 1}], "abc": [0.99167824, 0.14041901, 0.25194589], "xyz": [7.11007523866931, 2.1998992743297703, 11.05225169827429], "label": "Na", "properties": {}}, {"species": [{"element": "Na", "occu": 1}], "abc": [0.49505693, 0.03643487, 0.15004142], "xyz": [3.54944732852172, 0.57081333982699, 6.581951144376621], "label": "Na", "properties": {}}, {"species": [{"element": "Na", "occu": 1}], "abc": [0.49710956, 0.44417644, 0.21073717], "xyz": [3.56394861059464, 6.95876881648988, 9.24452565994237], "label": "Na", "properties": {}}, {"species": [{"element": "Na", "occu": 1}], "abc": [0.40448494, 0.23806543, 0.18048577000000002], "xyz": [2.89995625347363, 3.72969419667611, 7.917470525106971], "label": "Na", "properties": {}}, {"species": [{"element": "Na", "occu": 1}], "abc": [0.41904655, 0.64015685, 0.25198054], "xyz": [3.0041475969146, 10.02913059828745, 11.05377170926294], "label": "Na", "properties": {}}, {"species": [{"element": "Na", "occu": 1}], "abc": [0.91004623, 0.23999589, 0.17986052000000002], "xyz": [6.52473615272164, 3.75993808995753, 7.8900423325917215], "label": "Na", "properties": {}}, {"species": [{"element": "Na", "occu": 1}], "abc": [0.91993269, 0.64027642, 0.25197481], "xyz": [6.59540849352617, 10.03100386285634, 11.05352034813841], "label": "Na", "properties": {}}, {"species": [{"element": "Na", "occu": 1}], "abc": [0.59790423, 0.73780189, 0.36395034], "xyz": [4.28647241961764, 11.55890390061953, 15.96561374092074], "label": "Na", "properties": {}}, {"species": [{"element": "Na", "occu": 1}], "abc": [0.5799529, 0.34436871, 0.28476458], "xyz": [4.15797283066591, 5.39511334847667, 12.49192758378938], "label": "Na", "properties": {}}, {"species": [{"element": "Na", "occu": 1}], "abc": [0.09976496, 0.73565963, 0.36007705], "xyz": [0.7149071427381299, 11.52534180514951, 15.795701955575051], "label": "Na", "properties": {}}, {"species": [{"element": "Na", "occu": 1}], "abc": [0.07722542, 0.34355714, 0.28585654], "xyz": [0.55351023297024, 5.38239874342378, 12.53982920569894], "label": "Na", "properties": {}}, {"species": [{"element": "Na", "occu": 1}], "abc": [0.99933811, 0.5383354, 0.32632545999999996], "xyz": [7.164784591723049, 8.4339268294658, 14.315102022403059], "label": "Na", "properties": {}}, {"species": [{"element": "Na", "occu": 1}], "abc": [0.9865813, 0.9204846, 0.39573859], "xyz": [7.0731184671061005, 14.4209349116742, 17.36008673687899], "label": "Na", "properties": {}}, {"species": [{"element": "Na", "occu": 1}], "abc": [0.49779175, 0.83610091, 0.29358928], "xyz": [3.56863245864486, 13.09892289637607, 12.87904564934608], "label": "Na", "properties": {}}, {"species": [{"element": "Na", "occu": 1}], "abc": [0.49558336, 0.24405951, 0.35412972], "xyz": [3.5531119007976097, 3.82360151194827, 15.534807094012919], "label": "Na", "properties": {}}, {"species": [{"element": "Na", "occu": 1}], "abc": [0.40353059, 0.04235888, 0.32359947], "xyz": [2.89321726929333, 0.66362289104176, 14.195519489792671], "label": "Na", "properties": {}}, {"species": [{"element": "Na", "occu": 1}], "abc": [0.41152118, 0.42815285, 0.3928388], "xyz": [2.95030423632405, 6.707732407579449, 17.2328800221668], "label": "Na", "properties": {}}, {"species": [{"element": "Na", "occu": 1}], "abc": [0.90931579, 0.04068056, 0.32396476999999996], "xyz": [6.5196044708626095, 0.63732919369912, 14.21154430982597], "label": "Na", "properties": {}}, {"species": [{"element": "Na", "occu": 1}], "abc": [0.91290978, 0.43874771, 0.39959131], "xyz": [6.54516213675211, 6.87371865705967, 17.52909616649491], "label": "Na", "properties": {}}, {"species": [{"element": "Na", "occu": 1}], "abc": [0.54799796, 0.14186835, 0.42845427999999997], "xyz": [3.92896894522025, 2.22260561597295, 18.795244263611078], "label": "Na", "properties": {}}, {"species": [{"element": "Na", "occu": 1}], "abc": [0.13958444, 0.53779106, 0.49601444999999994], "xyz": [1.00051012020786, 8.42539883050762, 21.75894414225645], "label": "Na", "properties": {}}, {"species": [{"element": "Na", "occu": 1}], "abc": [0.07955251, 0.1494902, 0.42464673], "xyz": [0.5702976991698501, 2.3420146780653996, 18.62821633172553], "label": "Na", "properties": {}}, {"species": [{"element": "Na", "occu": 1}], "abc": [0.97847728, 0.33122459, 0.46940238], "xyz": [7.01532586149509, 5.189188665987429, 20.59153753819518], "label": "Na", "properties": {}}, {"species": [{"element": "Na", "occu": 1}], "abc": [0.49096735, 0.59206148, 0.43488700999999996], "xyz": [3.51983187001733, 9.275635971301961, 19.07743243928261], "label": "Na", "properties": {}}, {"species": [{"element": "Na", "occu": 1}], "abc": [0.55040265, 0.80919078, 0.45390515], "xyz": [3.94585711408713, 12.67733058163806, 19.91171185583915], "label": "Na", "properties": {}}, {"species": [{"element": "P", "occu": 1}], "abc": [0.48720906, 0.95066917, 0.03692722], "xyz": [3.49269592253297, 14.893826820248089, 1.61990707591042], "label": "P", "properties": {}}, {"species": [{"element": "P", "occu": 1}], "abc": [0.49406294, 0.33545504, 0.1089736], "xyz": [3.54216242243994, 5.25546575970208, 4.780406045389601], "label": "P", "properties": {}}, {"species": [{"element": "P", "occu": 1}], "abc": [0.0176976, 0.63587025, 0.07021405], "xyz": [0.12655214258175, 9.96197382065925, 3.08011912143205], "label": "P", "properties": {}}, {"species": [{"element": "P", "occu": 1}], "abc": [0.50116979, 0.73959331, 0.17966961], "xyz": [3.5929034330278595, 11.58696949913087, 7.8816675765212105], "label": "P", "properties": {}}, {"species": [{"element": "P", "occu": 1}], "abc": [0.49006162, 0.14015833, 0.2521017], "xyz": [3.51357701024373, 2.19581528496941, 11.0590867029537], "label": "P", "properties": {}}, {"species": [{"element": "P", "occu": 1}], "abc": [0.99081166, 0.03606905, 0.14764009], "xyz": [7.1039172215154505, 0.56508215604685, 6.47661065412049], "label": "P", "properties": {}}, {"species": [{"element": "P", "occu": 1}], "abc": [0.99730261, 0.44207124, 0.21412164], "xyz": [7.15024135703119, 6.92578732806948, 9.39299410412004], "label": "P", "properties": {}}, {"species": [{"element": "P", "occu": 1}], "abc": [0.50275825, 0.54061844, 0.32438896], "xyz": [3.60439765506899, 8.46969447972388, 14.23015249052656], "label": "P", "properties": {}}, {"species": [{"element": "P", "occu": 1}], "abc": [0.49334218, 0.94394648, 0.39486541999999997], "xyz": [3.5366728146087802, 14.78850460744696, 17.32178289864062], "label": "P", "properties": {}}, {"species": [{"element": "P", "occu": 1}], "abc": [0.99791759, 0.8383691, 0.28994396], "xyz": [7.15444100829195, 13.134457896480699, 12.71913435188156], "label": "P", "properties": {}}, {"species": [{"element": "P", "occu": 1}], "abc": [0.99139448, 0.24412809, 0.35644602], "xyz": [7.10798586986159, 3.82467593265693, 15.636417525557219], "label": "P", "properties": {}}, {"species": [{"element": "P", "occu": 1}], "abc": [0.4878517, 0.32929867, 0.46685076999999997], "xyz": [3.49763223743907, 5.1590158994195905, 20.479604630871968], "label": "P", "properties": {}}, {"species": [{"element": "P", "occu": 1}], "abc": [0.01902225, 0.6443157, 0.43404908999999997], "xyz": [0.13604517037845001, 10.0942859579289, 19.04067493256949], "label": "P", "properties": {}}, {"species": [{"element": "S", "occu": 1}], "abc": [0.66521197, 0.30885185, 0.07206992999999999], "xyz": [4.769283378056899, 4.838682174802449, 3.1615320505407296], "label": "S", "properties": {}}, {"species": [{"element": "S", "occu": 1}], "abc": [0.64585583, 0.92780064, 0.00010000000000000026], "xyz": [4.630176011232891, 14.53555294727328, 0.004386756100000012], "label": "S", "properties": {}}, {"species": [{"element": "S", "occu": 1}], "abc": [0.16092043, 0.99167653, 0.11315185], "xyz": [1.1532451159360801, 15.53627588399081, 4.96369568213785], "label": "S", "properties": {}}, {"species": [{"element": "S", "occu": 1}], "abc": [0.20864451, 0.59258842, 0.03798032], "xyz": [1.4956290581914702, 9.28389137008034, 1.6661040043995199], "label": "S", "properties": {}}, {"species": [{"element": "S", "occu": 1}], "abc": [0.31327147, 0.23461122, 0.1165881], "xyz": [2.24597437534267, 3.67557820431594, 5.1144355886241], "label": "S", "properties": {}}, {"species": [{"element": "S", "occu": 1}], "abc": [0.30967947, 0.84910552, 0.047982010000000005], "xyz": [2.2198953323779698, 13.30266192075704, 2.10485375057761], "label": "S", "properties": {}}, {"species": [{"element": "S", "occu": 1}], "abc": [0.82386588, 0.13234185, 0.13044404], "xyz": [5.906895935573551, 2.0733570175324503, 5.722261881786441], "label": "S", "properties": {}}, {"species": [{"element": "S", "occu": 1}], "abc": [0.85074902, 0.727307, 0.050088690000000005], "xyz": [6.0993283394282996, 11.394483848839, 2.1972686639850902], "label": "S", "properties": {}}, {"species": [{"element": "S", "occu": 1}], "abc": [0.31667433, 0.05723422, 0.030997180000000003], "xyz": [2.27046608444657, 0.89667003808694, 1.3597706844779802], "label": "S", "properties": {}}, {"species": [{"element": "S", "occu": 1}], "abc": [0.3397847, 0.44323191, 0.09997673], "xyz": [2.43595896915011, 6.94397117006307, 4.38573530185553], "label": "S", "properties": {}}, {"species": [{"element": "S", "occu": 1}], "abc": [0.85115196, 0.53752704, 0.08601655999999999], "xyz": [6.10231773828324, 8.421262514446079, 3.77333669281016], "label": "S", "properties": {}}, {"species": [{"element": "S", "occu": 1}], "abc": [0.65848268, 0.96919224, 0.07528727], "xyz": [4.72068629360924, 15.18402177498648, 3.3026689092484705], "label": "S", "properties": {}}, {"species": [{"element": "S", "occu": 1}], "abc": [0.15974243, 0.68806852, 0.10695472], "xyz": [1.1449596825033699, 10.77974725670804, 4.691842703837921], "label": "S", "properties": {}}, {"species": [{"element": "S", "occu": 1}], "abc": [0.65549255, 0.11589818, 0.21446872], "xyz": [4.699699007241029, 1.81573935094786, 9.408219657191921], "label": "S", "properties": {}}, {"species": [{"element": "S", "occu": 1}], "abc": [0.6591604, 0.72079829, 0.14055606], "xyz": [4.72567682103059, 11.292513991582329, 6.165851535969661], "label": "S", "properties": {}}, {"species": [{"element": "S", "occu": 1}], "abc": [0.16845177, 0.79490884, 0.25522224], "xyz": [1.2073475205461899, 12.45358004072468, 11.195977181756641], "label": "S", "properties": {}}, {"species": [{"element": "S", "occu": 1}], "abc": [0.15687665, 0.39390652, 0.17883523], "xyz": [1.12456818177067, 6.171206217034039, 7.845065360974031], "label": "S", "properties": {}}, {"species": [{"element": "S", "occu": 1}], "abc": [0.32683247, 0.03419609, 0.26076367], "xyz": [2.34331025616144, 0.53573909669293, 11.43906620030887], "label": "S", "properties": {}}, {"species": [{"element": "S", "occu": 1}], "abc": [0.33820728, 0.63327744, 0.18752921], "xyz": [2.42454862548744, 9.92135310386688, 8.22644905895681], "label": "S", "properties": {}}, {"species": [{"element": "S", "occu": 1}], "abc": [0.82763469, 0.93411902, 0.27321921], "xyz": [5.93349346592077, 14.63454096589654, 11.98546036104681], "label": "S", "properties": {}}, {"species": [{"element": "S", "occu": 1}], "abc": [0.8368468, 0.5416481, 0.19793508], "xyz": [5.9997502074971, 8.4858258303637, 8.68292919593988], "label": "S", "properties": {}}, {"species": [{"element": "S", "occu": 1}], "abc": [0.33340591, 0.84559904, 0.17386033], "xyz": [2.3900113727144903, 13.24772703119008, 7.626828631755131], "label": "S", "properties": {}}, {"species": [{"element": "S", "occu": 1}], "abc": [0.32724657, 0.2462661, 0.24338547000000002], "xyz": [2.3461670915176502, 3.8581714447496998, 10.676726951738672], "label": "S", "properties": {}}, {"species": [{"element": "S", "occu": 1}], "abc": [0.83125403, 0.9357701, 0.16318114], "xyz": [5.95944259072155, 14.6604079029577, 7.158358612999541], "label": "S", "properties": {}}, {"species": [{"element": "S", "occu": 1}], "abc": [0.82802112, 0.34587771, 0.23077206], "xyz": [5.93657527718421, 5.41875436406967, 10.12340741914566], "label": "S", "properties": {}}, {"species": [{"element": "S", "occu": 1}], "abc": [0.67109994, 0.75956691, 0.21701267000000002], "xyz": [4.811260605415709, 11.89988943885807, 9.51981653899787], "label": "S", "properties": {}}, {"species": [{"element": "S", "occu": 1}], "abc": [0.65386247, 0.35783811, 0.14734229000000001], "xyz": [4.68788364898286, 5.60613408766047, 6.463546894454691], "label": "S", "properties": {}}, {"species": [{"element": "S", "occu": 1}], "abc": [0.15193063, 0.0847205, 0.18265729], "xyz": [1.08926969278895, 1.3272887087785001, 8.01272981116969], "label": "S", "properties": {}}, {"species": [{"element": "S", "occu": 1}], "abc": [0.16720365, 0.4859831, 0.24887541], "xyz": [1.19856215276485, 7.6137402551587, 10.91755722957501], "label": "S", "properties": {}}, {"species": [{"element": "S", "occu": 1}], "abc": [0.65315773, 0.92209621, 0.356468], "xyz": [4.682532301024859, 14.446183484994169, 15.637381734548], "label": "S", "properties": {}}, {"species": [{"element": "S", "occu": 1}], "abc": [0.67221049, 0.52049943, 0.28701646], "xyz": [4.81934951016088, 8.15449644849411, 12.59071206705406], "label": "S", "properties": {}}, {"species": [{"element": "S", "occu": 1}], "abc": [0.16114562, 0.59213259, 0.397323], "xyz": [1.1550710453201898, 9.276750028703429, 17.429590939203], "label": "S", "properties": {}}, {"species": [{"element": "S", "occu": 1}], "abc": [0.15240877, 0.1955397, 0.32141895], "xyz": [1.0926392447762499, 3.0634573205769002, 14.09986539568095], "label": "S", "properties": {}}, {"species": [{"element": "S", "occu": 1}], "abc": [0.33945718, 0.83602038, 0.40379905], "xyz": [2.43340292624068, 13.09766125887726, 17.71367945761705], "label": "S", "properties": {}}, {"species": [{"element": "S", "occu": 1}], "abc": [0.33496131, 0.43460298, 0.33026807999999996], "xyz": [2.40138071988123, 6.8087845108974605, 14.48805514575288], "label": "S", "properties": {}}, {"species": [{"element": "S", "occu": 1}], "abc": [0.85260137, 0.74266244, 0.41825001], "xyz": [6.1126012232157905, 11.635052567511881, 18.34760782692561], "label": "S", "properties": {}}, {"species": [{"element": "S", "occu": 1}], "abc": [0.83172128, 0.34437289, 0.34089747], "xyz": [5.96310553590439, 5.39517883518653, 14.95434055997067], "label": "S", "properties": {}}, {"species": [{"element": "S", "occu": 1}], "abc": [0.33968311, 0.64684659, 0.31645616], "xyz": [2.43512287547854, 10.13393659408143, 13.88215990262576], "label": "S", "properties": {}}, {"species": [{"element": "S", "occu": 1}], "abc": [0.31268082, 0.0448269, 0.38736320999999996], "xyz": [2.2418399200182, 0.7022885632113001, 16.99267924383081], "label": "S", "properties": {}}, {"species": [{"element": "S", "occu": 1}], "abc": [0.83831961, 0.73846265, 0.3061199], "xyz": [6.0102058678303, 11.56925581411405, 13.4287333865639], "label": "S", "properties": {}}, {"species": [{"element": "S", "occu": 1}], "abc": [0.82467652, 0.14771845, 0.37362192], "xyz": [5.9126999401837494, 2.31425724309065, 16.38988236653712], "label": "S", "properties": {}}, {"species": [{"element": "S", "occu": 1}], "abc": [0.66099496, 0.55944142, 0.36346035], "xyz": [4.73891563462122, 8.76458802756134, 15.94411907470635], "label": "S", "properties": {}}, {"species": [{"element": "S", "occu": 1}], "abc": [0.65571236, 0.1644077, 0.28969921], "xyz": [4.7012493427401, 2.5757223322128997, 12.70839776632681], "label": "S", "properties": {}}, {"species": [{"element": "S", "occu": 1}], "abc": [0.15645241, 0.88691437, 0.32527458], "xyz": [1.1212656583024199, 13.895000961448488, 14.26900247989938], "label": "S", "properties": {}}, {"species": [{"element": "S", "occu": 1}], "abc": [0.16175025, 0.2885233, 0.39089838], "xyz": [1.15956673987805, 4.5202013480740995, 17.14775852945118], "label": "S", "properties": {}}, {"species": [{"element": "S", "occu": 1}], "abc": [0.65875689, 0.31073707, 0.42845245], "xyz": [4.72300065136532, 4.86821730761639, 18.79516398597445], "label": "S", "properties": {}}, {"species": [{"element": "S", "occu": 1}], "abc": [0.31816258, 0.22250646, 0.4728479], "xyz": [2.28104913260536, 3.48593683923342, 20.7426840969719], "label": "S", "properties": {}}, {"species": [{"element": "S", "occu": 1}], "abc": [0.31010949, 0.43073227, 0.45583223], "xyz": [2.22319981567352, 6.748143347566789, 19.99624815529103], "label": "S", "properties": {}}, {"species": [{"element": "S", "occu": 1}], "abc": [0.85205076, 0.55271386, 0.4541009], "xyz": [6.10875393417746, 8.65918951804322, 19.9202989309049], "label": "S", "properties": {}}, {"species": [{"element": "S", "occu": 1}], "abc": [0.64653234, 0.35253297, 0.5036415000000001], "xyz": [4.635330779375971, 5.52302017284069, 22.093524223381504], "label": "S", "properties": {}}, {"species": [{"element": "S", "occu": 1}], "abc": [0.66482162, 0.97042858, 0.43171877999999997], "xyz": [4.76613466668148, 15.20339111442866, 18.93844991649558], "label": "S", "properties": {}}, {"species": [{"element": "S", "occu": 1}], "abc": [0.20996189, 0.68744205, 0.46633448], "xyz": [1.5050242515059, 10.76993255356785, 20.45695624780328], "label": "S", "properties": {}}]}, "formula": "", "bandgap": 2.2682, "slab_thickness": 22.089137467281503}