{"miller": "001_0.16", "final_energy": -209.63697062, "gamma": 0.014238573603281082, "work_function": "Not calculated", "ionization_potentail": "Not calculated", "electron_affinity": "Not calculated", "is_stochiometric": true, "incar_parameters": {"SYSTEM": "unknown system", "LCOMPAT": false, "PREC": "normal", "ENMAX": 520.0, "ENAUG": 628.945, "EDIFF": 1e-05, "IALGO": 38, "IWAVPR": 11, "NBANDS": 140, "NBANDSLOW": -1, "NBANDSHIGH": -1, "NELECT": 228.0, "TURBO": 0, "IRESTART": 0, "NREBOOT": 0, "NMIN": 0, "EREF": 0.0, "ISMEAR": 0, "SIGMA": 0.05, "KSPACING": 0.5, "KGAMMA": true, "KBLOWUP": true, "LREAL": true, "ROPT": [-0.0005, -0.0005, -0.0005], "LMAXPAW": -100, "LMAXMIX": 2, "NLSPLINE": false, "ISTART": 0, "ICHARG": 2, "INIWAV": 1, "ISPIN": 1, "LNONCOLLINEAR": false, "MAGMOM": [0.6, 0.6, 0.6, 0.6, 0.6, 0.6, 0.6, 0.6, 0.6, 0.6, 0.6, 0.6, 0.6, 0.6, 0.6, 0.6, 0.6, 0.6, 0.6, 0.6, 0.6, 0.6, 0.6, 0.6, 0.6, 0.6, 0.6, 0.6, 0.6, 0.6, 0.6, 0.6, 0.6, 0.6, 0.6, 0.6, 0.6, 0.6, 0.6, 0.6, 0.6, 0.6, 0.6, 0.6, 0.6, 0.6, 0.6, 0.6], "NUPDOWN": -1.0, "LSORBIT": false, "SAXIS": [0.0, 0.0, 1.0], "LSPIRAL": false, "QSPIRAL": [0.0, 0.0, 0.0], "LZEROZ": false, "LASPH": false, "LMETAGGA": false, "NELM": 100, "NELMDL": -5, "NELMIN": 6, "ENINI": 520.0, "LDIAG": true, "LSUBROT": false, "WEIMIN": 0.001, "EBREAK": 2e-08, "DEPER": 0.3, "NRMM": 4, "TIME": 0.4, "AMIX": 0.4, "BMIX": 1.0, "AMIN": 0.1, "AMIX_MAG": 1.6, "BMIX_MAG": 1.0, "IMIX": 4, "MIXFIRST": false, "MAXMIX": -45, "WC": 100.0, "INIMIX": 1, "MIXPRE": 1, "MREMOVE": 5, "LDIPOL": false, "LMONO": false, "IDIPOL": 0, "EPSILON": 1.0, "DIPOL": [-100.0, -100.0, -100.0], "EFIELD": 0.0, "NGX": 36, "NGY": 48, "NGZ": 294, "NGXF": 72, "NGYF": 96, "NGZF": 588, "ADDGRID": false, "NSW": 150, "IBRION": 2, "MDALGO": 0, "ISIF": 2, "PSTRESS": 0.0, "EDIFFG": -0.01, "NFREE": 1, "POTIM": 0.5, "SMASS": -3.0, "SCALEE": 1.0, "TEBEG": 0.0001, "TEEND": 0.0001, "NBLOCK": 1, "KBLOCK": 150, "NPACO": 256, "APACO": 10.0, "ISYM": 0, "SYMPREC": 1e-05, "LORBIT": 11, "RWIGS": [-1.0, -1.0, -1.0], "NEDOS": 301, "EMIN": 10.0, "EMAX": -10.0, "EFERMI": 0.0, "NWRITE": 2, "LWAVE": false, "LDOWNSAMPLE": false, "LCHARG": false, "LPARD": false, "LVTOT": false, "LVHAR": false, "LELF": false, "LOPTICS": false, "STM": [0.0, 0.0, 0.0, 0.0, 0.0, 0.0, 0.0], "NPAR": 2, "NSIM": 4, "NBLK": -1, "LPLANE": true, "LSCALAPACK": true, "LSCAAWARE": false, "LSCALU": false, "LASYNC": false, "LORBITALREAL": false, "IDIOT": 3, "PHON_NSTRUCT": -1, "LMUSIC": false, "POMASS": [7.01, 30.974, 32.066], "DARWINR": [0.0, 0.0, 0.0], "DARWINV": [1.0, 1.0, 1.0], "LCORR": true, "GGA_COMPAT": true, "LBERRY": false, "ICORELEVEL": 0, "LDAU": false, "I_CONSTRAINED_M": 0, "GGA": "--", "VOSKOWN": 0, "LHFCALC": false, "PRECFOCK": "", "LSYMGRAD": false, "LHFONE": false, "LRHFCALC": false, "LTHOMAS": false, "LMODELHF": false, "LFOCKACE": false, "ENCUT4O": -1.0, "EXXOEP": 0, "FOURORBIT": 0, "AEXX": 0.0, "HFALPHA": 0.0, "MCALPHA": 0.0, "ALDAX": 1.0, "AGGAX": 1.0, "ALDAC": 1.0, "AGGAC": 1.0, "NKREDX": 1, "NKREDY": 1, "NKREDZ": 1, "SHIFTRED": false, "ODDONLY": false, "EVENONLY": false, "LMAXFOCK": 0, "NMAXFOCKAE": 0, "LFOCKAEDFT": false, "HFSCREEN": 0.0, "HFSCREENC": 0.0, "NBANDSGWLOW": 0, "LUSE_VDW": false, "Zab_VDW": -0.8491, "PARAM1": 0.1234, "PARAM2": 1.0, "PARAM3": 0.0, "MODEL_GW": 0, "MODEL_EPS0": 33.13317621, "MODEL_ALPHA": 1.0, "LEPSILON": false, "LRPA": false, "LNABLA": false, "LVEL": false, "CSHIFT": 0.1, "OMEGAMAX": -1.0, "DEG_THRESHOLD": 0.002, "RTIME": -0.1, "WPLASMAI": 0.0, "DFIELD": [0.0, 0.0, 0.0], "WPLASMA": [0.0, 0.0, 0.0, 0.0, 0.0, 0.0, 0.0, 0.0, 0.0], "NUCIND": false, "MAGPOS": [0.0, 0.0, 0.0], "LNICSALL": true, "ORBITALMAG": false, "LMAGBLOCH": false, "LCHIMAG": false, "LGAUGE": true, "MAGATOM": 0, "MAGDIPOL": [0.0, 0.0, 0.0], "AVECCONST": [0.0, 0.0, 0.0], "LFINITE_TEMPERATURE": false, "LADDER": false, "LRPAFORCE": false, "LFXC": false, "LHARTREE": true, "IBSE": 0, "KPOINT": [-1, 0, 0, 0], "LTCTC": false, "LTCTE": false, "LTETE": false, "LTRIPLET": false, "LFXCEPS": false, "LFXHEG": false, "NATURALO": 2, "LHOLEGF": false, "L2ORDER": false, "LDMP1": false, "LMP2LT": false, "LSMP2LT": false, "LGWLF": false, "ENCUTGW": -2.0, "ENCUTGWSOFT": -2.0, "ENCUTLF": -1.0, "LESF_SPLINES": false, "LMAXMP2": -1, "SCISSOR": 0.0, "NOMEGA": 0, "NOMEGAR": 0, "NBANDSGW": -1, "NBANDSO": -1, "NBANDSV": -1, "NELMGW": 1, "NELMHF": 1, "DIM": 3, "IESPILON": 4, "ANTIRES": 0, "OMEGAMIN": -30.0, "OMEGATL": -200.0, "OMEGAGRID": 0, "LSELFENERGY": false, "LSPECTRAL": false, "LSPECTRALGW": false, "LSINGLES": false, "LFERMIGW": false, "ODDONLYGW": false, "EVENONLYGW": false, "NKREDLFX": 1, "NKREDLFY": 1, "NKREDLFZ": 1, "MAXMEM": 2800, "TELESCOPE": 0, "NTAUPAR": -1, "NOMEGAPAR": -1, "DAMP_NEWTON": 0.80000001, "LAMBDA": 1.0, "OFIELD_KAPPA": 0.0, "OFIELD_K": [0.0, 0.0, 0.0], "OFIELD_Q6_NEAR": 0.0, "OFIELD_Q6_FAR": 0.0, "OFIELD_A": 0.0, "KPOINTS_OPT_MODE": 1, "LKPOINTS_OPT": false, "@module": "pymatgen.io.vasp.inputs", "@class": "Incar"}, "relaxed_structures": {"@module": "pymatgen.core.structure", "@class": "Structure", "charge": 0, "lattice": {"matrix": [[6.259951, 0.0, 0.0], [0.0, 8.106791, 0.0], [0.0, 0.0, 52.231578]], "a": 6.259951, "b": 8.106791, "c": 52.231578, "alpha": 90.0, "beta": 90.0, "gamma": 90.0, "volume": 2650.6540970593637}, "sites": [{"species": [{"element": "Li", "occu": 1}], "abc": [0.10744822, 0.96792195, 0.12260945000000001], "xyz": [0.67262059223722, 7.84674095296245, 6.404085051212101], "label": "Li", "properties": {}}, {"species": [{"element": "Li", "occu": 1}], "abc": [0.60894426, 0.03677433, 0.08108751], "xyz": [3.81196122933126, 0.29812180747503, 4.23532860339078], "label": "Li", "properties": {}}, {"species": [{"element": "Li", "occu": 1}], "abc": [0.41157128, 0.97596838, 0.0035862400000000044], "xyz": [2.57641604580728, 7.9119716792685795, 0.18731497428672023], "label": "Li", "properties": {}}, {"species": [{"element": "Li", "occu": 1}], "abc": [0.41503566, 0.52387676, 0.0040428500000000075], "xyz": [2.59810289485266, 4.2469594030771605, 0.2111644351173004], "label": "Li", "properties": {}}, {"species": [{"element": "Li", "occu": 1}], "abc": [0.60860271, 0.46386732, 0.08112121], "xyz": [3.80982314306721, 3.76047541497012, 4.23708880756938], "label": "Li", "properties": {}}, {"species": [{"element": "Li", "occu": 1}], "abc": [0.10764363, 0.53206327, 0.12265059], "xyz": [0.67384384926213, 4.31332572866657, 6.40623385833102], "label": "Li", "properties": {}}, {"species": [{"element": "Li", "occu": 1}], "abc": [0.50047207, 0.99902107, 0.16443818000000002], "xyz": [3.13293063506857, 8.098855019086368, 8.58886562484804], "label": "Li", "properties": {}}, {"species": [{"element": "Li", "occu": 1}], "abc": [0.97532103, 0.98969364, 0.03992806], "xyz": [6.10546185706953, 8.023239493509239, 2.08550558027868], "label": "Li", "properties": {}}, {"species": [{"element": "Li", "occu": 1}], "abc": [0.98028756, 0.50799174, 0.03961788000000001], "xyz": [6.13655209150956, 4.1181828659063395, 2.0693043894146403], "label": "Li", "properties": {}}, {"species": [{"element": "Li", "occu": 1}], "abc": [0.50014407, 0.50100485, 0.16441658], "xyz": [3.13087737114057, 4.061541608936349, 8.58773742276324], "label": "Li", "properties": {}}, {"species": [{"element": "Li", "occu": 1}], "abc": [0.89201399, 0.03279451, 0.2067092], "xyz": [5.58396386871449, 0.26585823851741, 10.7967477031176], "label": "Li", "properties": {}}, {"species": [{"element": "Li", "occu": 1}], "abc": [0.58809719, 0.02475947, 0.3262469], "xyz": [3.6814595926376903, 0.20071984856076996, 17.0403904046082], "label": "Li", "properties": {}}, {"species": [{"element": "Li", "occu": 1}], "abc": [0.39201651, 0.96280302, 0.24857284], "xyz": [2.45400414379101, 7.805242857308819, 12.983351681141519], "label": "Li", "properties": {}}, {"species": [{"element": "Li", "occu": 1}], "abc": [0.39184288, 0.53705157, 0.24858690000000003], "xyz": [2.45291722849888, 4.35376483421187, 12.9840860571282], "label": "Li", "properties": {}}, {"species": [{"element": "Li", "occu": 1}], "abc": [0.58798582, 0.4753068, 0.32624655], "xyz": [3.68076242189482, 3.8532128884787995, 17.0403721235559], "label": "Li", "properties": {}}, {"species": [{"element": "Li", "occu": 1}], "abc": [0.89194354, 0.4678863, 0.20665929000000002], "xyz": [5.58352285516654, 3.7930564458632996, 10.794140825059621], "label": "Li", "properties": {}}, {"species": [{"element": "Li", "occu": 1}], "abc": [0.0183662, 0.00614507, 0.29033332], "xyz": [0.1149715120562, 0.04981679817037, 15.16456744957896], "label": "Li", "properties": {}}, {"species": [{"element": "Li", "occu": 1}], "abc": [0.01828702, 0.49392946, 0.29029581000000004], "xyz": [0.11447584913602, 4.00418290096286, 15.162608243088181], "label": "Li", "properties": {}}, {"species": [{"element": "P", "occu": 1}], "abc": [0.84579602, 0.25014001, 0.14212277], "xyz": [5.29464164119502, 2.02783278180791, 7.42329654683106], "label": "P", "properties": {}}, {"species": [{"element": "P", "occu": 1}], "abc": [0.15476023, 0.7501126, 0.18719359], "xyz": [0.96879145654873, 6.0810060746665995, 9.77741659718502], "label": "P", "properties": {}}, {"species": [{"element": "P", "occu": 1}], "abc": [0.34484814, 0.75044382, 0.06188408000000001], "xyz": [2.1587324588411403, 6.083691205981619, 3.2323031514782405], "label": "P", "properties": {}}, {"species": [{"element": "P", "occu": 1}], "abc": [0.66638337, 0.24961201, 0.016779480000000006], "xyz": [4.17152724341487, 2.02355239615991, 0.8764187184194403], "label": "P", "properties": {}}, {"species": [{"element": "P", "occu": 1}], "abc": [0.33417293, 0.75010389, 0.31341459000000005], "xyz": [2.09190616732643, 6.0809354645169895, 16.37013860392302], "label": "P", "properties": {}}, {"species": [{"element": "P", "occu": 1}], "abc": [0.65432582, 0.24998072, 0.26765032], "xyz": [4.09604757123482, 2.02654145106952, 13.979798565804959], "label": "P", "properties": {}}, {"species": [{"element": "S", "occu": 1}], "abc": [0.72782546, 0.46358584, 0.12607491], "xyz": [4.55615171615246, 3.75819351543944, 6.585091495507981], "label": "S", "properties": {}}, {"species": [{"element": "S", "occu": 1}], "abc": [0.27305614, 0.53703226, 0.20326169], "xyz": [1.70931805664914, 4.35360829207766, 10.61667881564682], "label": "S", "properties": {}}, {"species": [{"element": "S", "occu": 1}], "abc": [0.22692024, 0.5370301, 0.07753497000000001], "xyz": [1.42050958330824, 4.3535907814091, 4.049773833282661], "label": "S", "properties": {}}, {"species": [{"element": "S", "occu": 1}], "abc": [0.78032615, 0.45991218, 0.00010000000000000286], "xyz": [4.884803463018651, 3.72841192161438, 0.005223157800000149], "label": "S", "properties": {}}, {"species": [{"element": "S", "occu": 1}], "abc": [0.77843424, 0.03839814, 0.00020093000000000194], "xyz": [4.87296019912224, 0.31128569576873993, 0.010494890967540102], "label": "S", "properties": {}}, {"species": [{"element": "S", "occu": 1}], "abc": [0.22679601, 0.96376157, 0.07751881000000001], "xyz": [1.4197319095955099, 7.813013621821869, 4.0489297709821805], "label": "S", "properties": {}}, {"species": [{"element": "S", "occu": 1}], "abc": [0.27327612, 0.96309864, 0.20325995], "xyz": [1.71069512067012, 7.807639386864239, 10.6165879327011], "label": "S", "properties": {}}, {"species": [{"element": "S", "occu": 1}], "abc": [0.72760699, 0.03683329, 0.12606633], "xyz": [4.5547841046574895, 0.29859978387238995, 6.58464334856874], "label": "S", "properties": {}}, {"species": [{"element": "S", "occu": 1}], "abc": [0.2725092, 0.75008142, 0.14966227000000001], "xyz": [1.7058942390492, 6.08075330492322, 7.81709652916206], "label": "S", "properties": {}}, {"species": [{"element": "S", "occu": 1}], "abc": [0.72746616, 0.25011592, 0.17957922], "xyz": [4.55390251575816, 2.0276374892127196, 9.37970603660916], "label": "S", "properties": {}}, {"species": [{"element": "S", "occu": 1}], "abc": [0.78147178, 0.25000374, 0.05474548], "xyz": [4.89197505068278, 2.02672806939834, 2.8594428087674397], "label": "S", "properties": {}}, {"species": [{"element": "S", "occu": 1}], "abc": [0.22674369, 0.7499235, 0.02417669], "xyz": [1.41940438895919, 6.0794730804884995, 1.26278666951682], "label": "S", "properties": {}}, {"species": [{"element": "S", "occu": 1}], "abc": [0.17083847, 0.2500198, 0.1391017], "xyz": [1.06944045111497, 2.0268582644618, 7.2655012934825995], "label": "S", "properties": {}}, {"species": [{"element": "S", "occu": 1}], "abc": [0.8295172, 0.75023607, 0.19011822], "xyz": [5.1927370256572, 6.082007020151369, 9.93017463715116], "label": "S", "properties": {}}, {"species": [{"element": "S", "occu": 1}], "abc": [0.67069351, 0.75023219, 0.06481119], "xyz": [4.19850850861801, 6.081975565802289, 3.38519072575782], "label": "S", "properties": {}}, {"species": [{"element": "S", "occu": 1}], "abc": [0.33775021, 0.25004603, 0.015358620000000003], "xyz": [2.11429976483971, 2.0270709055897296, 0.8022049585023602], "label": "S", "properties": {}}, {"species": [{"element": "S", "occu": 1}], "abc": [0.22133606, 0.53927191, 0.33001409000000004], "xyz": [1.38555289013306, 4.371764666540809, 17.23715668293402], "label": "S", "properties": {}}, {"species": [{"element": "S", "occu": 1}], "abc": [0.77305372, 0.46333988, 0.25201143000000004], "xyz": [4.83927840756772, 3.7561995691250796, 13.162954662936542], "label": "S", "properties": {}}, {"species": [{"element": "S", "occu": 1}], "abc": [0.77324255, 0.03664588, 0.25202369], "xyz": [4.84046047411505, 0.29708049017107996, 13.163595022082822], "label": "S", "properties": {}}, {"species": [{"element": "S", "occu": 1}], "abc": [0.22159425, 0.96101684, 0.33002849], "xyz": [1.38716914688175, 7.790762669360439, 17.23790881765722], "label": "S", "properties": {}}, {"species": [{"element": "S", "occu": 1}], "abc": [0.77257293, 0.25007011, 0.30540733], "xyz": [4.836268685726431, 2.02726611711701, 15.95190677866674], "label": "S", "properties": {}}, {"species": [{"element": "S", "occu": 1}], "abc": [0.21875741, 0.75008025, 0.27540598000000005], "xyz": [1.36941066748691, 6.08074381997775, 14.384888926036442], "label": "S", "properties": {}}, {"species": [{"element": "S", "occu": 1}], "abc": [0.66301542, 0.75005107, 0.31467899], "xyz": [4.150444041444421, 6.0805072638163695, 16.43618021114622], "label": "S", "properties": {}}, {"species": [{"element": "S", "occu": 1}], "abc": [0.32888597, 0.24996079, 0.26477613], "xyz": [2.05881005678747, 2.0263798827248896, 13.82967508663314], "label": "S", "properties": {}}]}, "formula": "(Li3PS4)6.0", "bandgap": 2.7656, "slab_thickness": 17.23268565985722}