{"miller": "001_0.03", "final_energy": -209.63904745, "gamma": 0.014218111463717547, "work_function": "Not calculated", "ionization_potentail": "Not calculated", "electron_affinity": "Not calculated", "is_stochiometric": true, "incar_parameters": {"SYSTEM": "unknown system", "LCOMPAT": false, "PREC": "normal", "ENMAX": 520.0, "ENAUG": 628.945, "EDIFF": 1e-05, "IALGO": 38, "IWAVPR": 11, "NBANDS": 140, "NBANDSLOW": -1, "NBANDSHIGH": -1, "NELECT": 228.0, "TURBO": 0, "IRESTART": 0, "NREBOOT": 0, "NMIN": 0, "EREF": 0.0, "ISMEAR": 0, "SIGMA": 0.05, "KSPACING": 0.5, "KGAMMA": true, "KBLOWUP": true, "LREAL": true, "ROPT": [-0.0005, -0.0005, -0.0005], "LMAXPAW": -100, "LMAXMIX": 2, "NLSPLINE": false, "ISTART": 0, "ICHARG": 2, "INIWAV": 1, "ISPIN": 1, "LNONCOLLINEAR": false, "MAGMOM": [0.6, 0.6, 0.6, 0.6, 0.6, 0.6, 0.6, 0.6, 0.6, 0.6, 0.6, 0.6, 0.6, 0.6, 0.6, 0.6, 0.6, 0.6, 0.6, 0.6, 0.6, 0.6, 0.6, 0.6, 0.6, 0.6, 0.6, 0.6, 0.6, 0.6, 0.6, 0.6, 0.6, 0.6, 0.6, 0.6, 0.6, 0.6, 0.6, 0.6, 0.6, 0.6, 0.6, 0.6, 0.6, 0.6, 0.6, 0.6], "NUPDOWN": -1.0, "LSORBIT": false, "SAXIS": [0.0, 0.0, 1.0], "LSPIRAL": false, "QSPIRAL": [0.0, 0.0, 0.0], "LZEROZ": false, "LASPH": false, "LMETAGGA": false, "NELM": 100, "NELMDL": -5, "NELMIN": 6, "ENINI": 520.0, "LDIAG": true, "LSUBROT": false, "WEIMIN": 0.001, "EBREAK": 2e-08, "DEPER": 0.3, "NRMM": 4, "TIME": 0.4, "AMIX": 0.4, "BMIX": 1.0, "AMIN": 0.1, "AMIX_MAG": 1.6, "BMIX_MAG": 1.0, "IMIX": 4, "MIXFIRST": false, "MAXMIX": -45, "WC": 100.0, "INIMIX": 1, "MIXPRE": 1, "MREMOVE": 5, "LDIPOL": false, "LMONO": false, "IDIPOL": 0, "EPSILON": 1.0, "DIPOL": [-100.0, -100.0, -100.0], "EFIELD": 0.0, "NGX": 36, "NGY": 48, "NGZ": 294, "NGXF": 72, "NGYF": 96, "NGZF": 588, "ADDGRID": false, "NSW": 150, "IBRION": 2, "MDALGO": 0, "ISIF": 2, "PSTRESS": 0.0, "EDIFFG": -0.01, "NFREE": 1, "POTIM": 0.5, "SMASS": -3.0, "SCALEE": 1.0, "TEBEG": 0.0001, "TEEND": 0.0001, "NBLOCK": 1, "KBLOCK": 150, "NPACO": 256, "APACO": 10.0, "ISYM": 0, "SYMPREC": 1e-05, "LORBIT": 11, "RWIGS": [-1.0, -1.0, -1.0], "NEDOS": 301, "EMIN": 10.0, "EMAX": -10.0, "EFERMI": 0.0, "NWRITE": 2, "LWAVE": false, "LDOWNSAMPLE": false, "LCHARG": false, "LPARD": false, "LVTOT": false, "LVHAR": false, "LELF": false, "LOPTICS": false, "STM": [0.0, 0.0, 0.0, 0.0, 0.0, 0.0, 0.0], "NPAR": 2, "NSIM": 4, "NBLK": -1, "LPLANE": true, "LSCALAPACK": true, "LSCAAWARE": false, "LSCALU": false, "LASYNC": false, "LORBITALREAL": false, "IDIOT": 3, "PHON_NSTRUCT": -1, "LMUSIC": false, "POMASS": [7.01, 30.974, 32.066], "DARWINR": [0.0, 0.0, 0.0], "DARWINV": [1.0, 1.0, 1.0], "LCORR": true, "GGA_COMPAT": true, "LBERRY": false, "ICORELEVEL": 0, "LDAU": false, "I_CONSTRAINED_M": 0, "GGA": "--", "VOSKOWN": 0, "LHFCALC": false, "PRECFOCK": "", "LSYMGRAD": false, "LHFONE": false, "LRHFCALC": false, "LTHOMAS": false, "LMODELHF": false, "LFOCKACE": false, "ENCUT4O": -1.0, "EXXOEP": 0, "FOURORBIT": 0, "AEXX": 0.0, "HFALPHA": 0.0, "MCALPHA": 0.0, "ALDAX": 1.0, "AGGAX": 1.0, "ALDAC": 1.0, "AGGAC": 1.0, "NKREDX": 1, "NKREDY": 1, "NKREDZ": 1, "SHIFTRED": false, "ODDONLY": false, "EVENONLY": false, "LMAXFOCK": 0, "NMAXFOCKAE": 0, "LFOCKAEDFT": false, "HFSCREEN": 0.0, "HFSCREENC": 0.0, "NBANDSGWLOW": 0, "LUSE_VDW": false, "Zab_VDW": -0.8491, "PARAM1": 0.1234, "PARAM2": 1.0, "PARAM3": 0.0, "MODEL_GW": 0, "MODEL_EPS0": 33.13317621, "MODEL_ALPHA": 1.0, "LEPSILON": false, "LRPA": false, "LNABLA": false, "LVEL": false, "CSHIFT": 0.1, "OMEGAMAX": -1.0, "DEG_THRESHOLD": 0.002, "RTIME": -0.1, "WPLASMAI": 0.0, "DFIELD": [0.0, 0.0, 0.0], "WPLASMA": [0.0, 0.0, 0.0, 0.0, 0.0, 0.0, 0.0, 0.0, 0.0], "NUCIND": false, "MAGPOS": [0.0, 0.0, 0.0], "LNICSALL": true, "ORBITALMAG": false, "LMAGBLOCH": false, "LCHIMAG": false, "LGAUGE": true, "MAGATOM": 0, "MAGDIPOL": [0.0, 0.0, 0.0], "AVECCONST": [0.0, 0.0, 0.0], "LFINITE_TEMPERATURE": false, "LADDER": false, "LRPAFORCE": false, "LFXC": false, "LHARTREE": true, "IBSE": 0, "KPOINT": [-1, 0, 0, 0], "LTCTC": false, "LTCTE": false, "LTETE": false, "LTRIPLET": false, "LFXCEPS": false, "LFXHEG": false, "NATURALO": 2, "LHOLEGF": false, "L2ORDER": false, "LDMP1": false, "LMP2LT": false, "LSMP2LT": false, "LGWLF": false, "ENCUTGW": -2.0, "ENCUTGWSOFT": -2.0, "ENCUTLF": -1.0, "LESF_SPLINES": false, "LMAXMP2": -1, "SCISSOR": 0.0, "NOMEGA": 0, "NOMEGAR": 0, "NBANDSGW": -1, "NBANDSO": -1, "NBANDSV": -1, "NELMGW": 1, "NELMHF": 1, "DIM": 3, "IESPILON": 4, "ANTIRES": 0, "OMEGAMIN": -30.0, "OMEGATL": -200.0, "OMEGAGRID": 0, "LSELFENERGY": false, "LSPECTRAL": false, "LSPECTRALGW": false, "LSINGLES": false, "LFERMIGW": false, "ODDONLYGW": false, "EVENONLYGW": false, "NKREDLFX": 1, "NKREDLFY": 1, "NKREDLFZ": 1, "MAXMEM": 2800, "TELESCOPE": 0, "NTAUPAR": -1, "NOMEGAPAR": -1, "DAMP_NEWTON": 0.80000001, "LAMBDA": 1.0, "OFIELD_KAPPA": 0.0, "OFIELD_K": [0.0, 0.0, 0.0], "OFIELD_Q6_NEAR": 0.0, "OFIELD_Q6_FAR": 0.0, "OFIELD_A": 0.0, "KPOINTS_OPT_MODE": 1, "LKPOINTS_OPT": false, "@module": "pymatgen.io.vasp.inputs", "@class": "Incar"}, "relaxed_structures": {"@module": "pymatgen.core.structure", "@class": "Structure", "charge": 0, "lattice": {"matrix": [[6.259951, 0.0, 0.0], [0.0, 8.106791, 0.0], [0.0, 0.0, 52.231578]], "a": 6.259951, "b": 8.106791, "c": 52.231578, "alpha": 90.0, "beta": 90.0, "gamma": 90.0, "volume": 2650.6540970593637}, "sites": [{"species": [{"element": "Li", "occu": 1}], "abc": [0.1075628, 0.96798878, 0.12342769999999999], "xyz": [0.6733378574228001, 7.847282729804979, 6.446823539910599], "label": "Li", "properties": {}}, {"species": [{"element": "Li", "occu": 1}], "abc": [0.60788766, 0.03723026, 0.08151909], "xyz": [3.8053469651046603, 0.30181793669566, 4.25787070782402], "label": "Li", "properties": {}}, {"species": [{"element": "Li", "occu": 1}], "abc": [0.4163653, 0.97522997, 0.004336320000000005], "xyz": [2.6064263761003, 7.90598554372627, 0.22649283631296024], "label": "Li", "properties": {}}, {"species": [{"element": "Li", "occu": 1}], "abc": [0.41643698, 0.52574926, 0.0040117499999999945], "xyz": [2.60687508938798, 4.26213936922466, 0.2095400330414997], "label": "Li", "properties": {}}, {"species": [{"element": "Li", "occu": 1}], "abc": [0.60800171, 0.46309771, 0.08149418000000001], "xyz": [3.80606091251621, 3.7542363475486096, 4.256569619216041], "label": "Li", "properties": {}}, {"species": [{"element": "Li", "occu": 1}], "abc": [0.10761884, 0.53183361, 0.12343565], "xyz": [0.67368866507684, 4.311463923045509, 6.4472387809557], "label": "Li", "properties": {}}, {"species": [{"element": "Li", "occu": 1}], "abc": [0.49997375, 0.00041717, 0.16576342], "xyz": [3.12981117628625, 0.00338191000147, 8.65808500127676], "label": "Li", "properties": {}}, {"species": [{"element": "Li", "occu": 1}], "abc": [0.98168956, 0.99378918, 0.03982757000000001], "xyz": [6.145328542811559, 8.05644118032138, 2.08025682900546], "label": "Li", "properties": {}}, {"species": [{"element": "Li", "occu": 1}], "abc": [0.9819137, 0.5061007, 0.03980206], "xyz": [6.1467316482287, 4.1028525998536995, 2.07892440145068], "label": "Li", "properties": {}}, {"species": [{"element": "Li", "occu": 1}], "abc": [0.50000821, 0.49948083, 0.16576014], "xyz": [3.1300268941977096, 4.04918669731653, 8.65791368170092], "label": "Li", "properties": {}}, {"species": [{"element": "Li", "occu": 1}], "abc": [0.89231324, 0.0320773, 0.20745775], "xyz": [5.58583715905124, 0.2600439669443, 10.8358456508295], "label": "Li", "properties": {}}, {"species": [{"element": "Li", "occu": 1}], "abc": [0.58586128, 0.02417864, 0.32610444], "xyz": [3.6674629055972803, 0.19601118114424, 17.03294949400632], "label": "Li", "properties": {}}, {"species": [{"element": "Li", "occu": 1}], "abc": [0.39066843, 0.96363432, 0.2490133], "xyz": [2.44556522904693, 7.81198203266712, 13.0063576019874], "label": "Li", "properties": {}}, {"species": [{"element": "Li", "occu": 1}], "abc": [0.39067643, 0.53630814, 0.24900585999999997], "xyz": [2.44561530865493, 4.34773800257874, 13.005968999047077], "label": "Li", "properties": {}}, {"species": [{"element": "Li", "occu": 1}], "abc": [0.58556968, 0.47590411, 0.32605743], "xyz": [3.66563750388568, 3.8580551558110097, 17.030494087524538], "label": "Li", "properties": {}}, {"species": [{"element": "Li", "occu": 1}], "abc": [0.89187303, 0.46738147, 0.20747985999999996], "xyz": [5.58308146602153, 3.78896389456277, 10.837000491019078], "label": "Li", "properties": {}}, {"species": [{"element": "Li", "occu": 1}], "abc": [0.01844932, 0.00713762, 0.29070388999999996], "xyz": [0.11549183918332001, 0.057863193577419994, 15.183922905438418], "label": "Li", "properties": {}}, {"species": [{"element": "Li", "occu": 1}], "abc": [0.01877508, 0.49341145, 0.29071704], "xyz": [0.11753108082107999, 3.9999835021569496, 15.184609750689118], "label": "Li", "properties": {}}, {"species": [{"element": "P", "occu": 1}], "abc": [0.84427786, 0.24988754, 0.14288941], "xyz": [5.28513803398486, 2.02578606028414, 7.46333936378898], "label": "P", "properties": {}}, {"species": [{"element": "P", "occu": 1}], "abc": [0.34567986, 0.74994907, 0.06246107999999999], "xyz": [2.16393898528686, 6.079680371134369, 3.2624407719842394], "label": "P", "properties": {}}, {"species": [{"element": "P", "occu": 1}], "abc": [0.66798184, 0.25013922, 0.01662503], "xyz": [4.181533587289841, 2.0278263774430196, 0.86835155119734], "label": "P", "properties": {}}, {"species": [{"element": "P", "occu": 1}], "abc": [0.15373966, 0.74968273, 0.18795354999999997], "xyz": [0.96240273835666, 6.077521208419429, 9.817110507201898], "label": "P", "properties": {}}, {"species": [{"element": "P", "occu": 1}], "abc": [0.3333204, 0.75011546, 0.31335562], "xyz": [2.0865693713004, 6.081029260088859, 16.36705850776836], "label": "P", "properties": {}}, {"species": [{"element": "P", "occu": 1}], "abc": [0.65492958, 0.24994231, 0.26818997], "xyz": [4.09982707925058, 2.0262300692272097, 14.00798533687266], "label": "P", "properties": {}}, {"species": [{"element": "S", "occu": 1}], "abc": [0.72597396, 0.46301846, 0.12684717], "xyz": [4.54456141687596, 3.7535938843618597, 6.62542785393426], "label": "S", "properties": {}}, {"species": [{"element": "S", "occu": 1}], "abc": [0.22672615, 0.53661204, 0.07806846999999999], "xyz": [1.41929458941865, 4.350201656363639, 4.077639380145659], "label": "S", "properties": {}}, {"species": [{"element": "S", "occu": 1}], "abc": [0.78184843, 0.46082867, 0.00010000000000000286], "xyz": [4.89433286122693, 3.73584171449797, 0.005223157800000149], "label": "S", "properties": {}}, {"species": [{"element": "S", "occu": 1}], "abc": [0.78160196, 0.03922949, 0.00013243999999999756], "xyz": [4.89278997110396, 0.31802527646658996, 0.0069175501903198724], "label": "S", "properties": {}}, {"species": [{"element": "S", "occu": 1}], "abc": [0.22668632, 0.96328401, 0.07807164000000001], "xyz": [1.41904525557032, 7.809142142711909, 4.07780495424792], "label": "S", "properties": {}}, {"species": [{"element": "S", "occu": 1}], "abc": [0.72582259, 0.03674565, 0.12685243000000002], "xyz": [4.5436138480930905, 0.29788930470915, 6.625702592034541], "label": "S", "properties": {}}, {"species": [{"element": "S", "occu": 1}], "abc": [0.27207884, 0.74984159, 0.15050126000000003], "xyz": [1.70320020653684, 6.0788090532376895, 7.860918300788281], "label": "S", "properties": {}}, {"species": [{"element": "S", "occu": 1}], "abc": [0.78106934, 0.25006357, 0.05474447], "xyz": [4.8894557960023395, 2.02721309870387, 2.85939005487366], "label": "S", "properties": {}}, {"species": [{"element": "S", "occu": 1}], "abc": [0.22831311, 0.7500967, 0.024690450000000003], "xyz": [1.4292288812576102, 6.080877176689699, 1.2896211650301002], "label": "S", "properties": {}}, {"species": [{"element": "S", "occu": 1}], "abc": [0.16948569, 0.24988661, 0.13996967], "xyz": [1.06097211460119, 2.02577852096851, 7.310836736239259], "label": "S", "properties": {}}, {"species": [{"element": "S", "occu": 1}], "abc": [0.67117076, 0.75006749, 0.06536915], "xyz": [4.20149607023276, 6.080640377324589, 3.4143338570187], "label": "S", "properties": {}}, {"species": [{"element": "S", "occu": 1}], "abc": [0.33922918, 0.25048926, 0.015013390000000001], "xyz": [2.12355804457018, 2.03066407856466, 0.78417305082942], "label": "S", "properties": {}}, {"species": [{"element": "S", "occu": 1}], "abc": [0.27164652, 0.53629739, 0.20402238], "xyz": [1.70049390452052, 4.347650854575489, 10.65641085471564], "label": "S", "properties": {}}, {"species": [{"element": "S", "occu": 1}], "abc": [0.22031639, 0.53977343, 0.33007609], "xyz": [1.37916980589689, 4.375830384363129, 17.240395040770018], "label": "S", "properties": {}}, {"species": [{"element": "S", "occu": 1}], "abc": [0.77301266, 0.46344418, 0.25258762], "xyz": [4.83902137397966, 3.7570451074263795, 13.19304997586436], "label": "S", "properties": {}}, {"species": [{"element": "S", "occu": 1}], "abc": [0.77299009, 0.03646847, 0.25257377], "xyz": [4.83888008688559, 0.29564226437977, 13.192326568509058], "label": "S", "properties": {}}, {"species": [{"element": "S", "occu": 1}], "abc": [0.22043576, 0.96060366, 0.33003347], "xyz": [1.37991705624776, 7.787413105455059, 17.23816893091566], "label": "S", "properties": {}}, {"species": [{"element": "S", "occu": 1}], "abc": [0.2719553, 0.96291021, 0.2040261], "xyz": [1.7024268521903, 7.806111824236109, 10.6566051561858], "label": "S", "properties": {}}, {"species": [{"element": "S", "occu": 1}], "abc": [0.72680924, 0.24985592, 0.18044095999999998], "xyz": [4.5497902287472405, 2.02552972355272, 9.424716076634878], "label": "S", "properties": {}}, {"species": [{"element": "S", "occu": 1}], "abc": [0.77300745, 0.24994139, 0.30592511], "xyz": [4.83898875963495, 2.02622261097949, 15.97895124512358], "label": "S", "properties": {}}, {"species": [{"element": "S", "occu": 1}], "abc": [0.21811027, 0.75000368, 0.27541888999999997], "xyz": [1.36535960279677, 6.0801230829908794, 14.385563235708418], "label": "S", "properties": {}}, {"species": [{"element": "S", "occu": 1}], "abc": [0.82866655, 0.74980057, 0.19099387], "xyz": [5.18741199833905, 6.0784765126708695, 9.97591121842686], "label": "S", "properties": {}}, {"species": [{"element": "S", "occu": 1}], "abc": [0.6621394, 0.75009572, 0.31475879], "xyz": [4.1449601991694, 6.0808692320345195, 16.44034829107062], "label": "S", "properties": {}}, {"species": [{"element": "S", "occu": 1}], "abc": [0.32932984, 0.24997501, 0.26532498], "xyz": [2.06158866123784, 2.02649516129291, 13.85834238821844], "label": "S", "properties": {}}]}, "formula": "(Li3PS4)6.0", "bandgap": 2.7771999999999997, "slab_thickness": 17.23517188297002}