{"miller": "001_0.07", "final_energy": -209.64209446, "gamma": 0.014188090545360217, "work_function": "Not calculated", "ionization_potentail": "Not calculated", "electron_affinity": "Not calculated", "is_stochiometric": true, "incar_parameters": {"SYSTEM": "unknown system", "LCOMPAT": false, "PREC": "normal", "ENMAX": 520.0, "ENAUG": 628.945, "EDIFF": 1e-05, "IALGO": 38, "IWAVPR": 11, "NBANDS": 140, "NBANDSLOW": -1, "NBANDSHIGH": -1, "NELECT": 228.0, "TURBO": 0, "IRESTART": 0, "NREBOOT": 0, "NMIN": 0, "EREF": 0.0, "ISMEAR": 0, "SIGMA": 0.05, "KSPACING": 0.5, "KGAMMA": true, "KBLOWUP": true, "LREAL": true, "ROPT": [-0.0005, -0.0005, -0.0005], "LMAXPAW": -100, "LMAXMIX": 2, "NLSPLINE": false, "ISTART": 0, "ICHARG": 2, "INIWAV": 1, "ISPIN": 1, "LNONCOLLINEAR": false, "MAGMOM": [0.6, 0.6, 0.6, 0.6, 0.6, 0.6, 0.6, 0.6, 0.6, 0.6, 0.6, 0.6, 0.6, 0.6, 0.6, 0.6, 0.6, 0.6, 0.6, 0.6, 0.6, 0.6, 0.6, 0.6, 0.6, 0.6, 0.6, 0.6, 0.6, 0.6, 0.6, 0.6, 0.6, 0.6, 0.6, 0.6, 0.6, 0.6, 0.6, 0.6, 0.6, 0.6, 0.6, 0.6, 0.6, 0.6, 0.6, 0.6], "NUPDOWN": -1.0, "LSORBIT": false, "SAXIS": [0.0, 0.0, 1.0], "LSPIRAL": false, "QSPIRAL": [0.0, 0.0, 0.0], "LZEROZ": false, "LASPH": false, "LMETAGGA": false, "NELM": 100, "NELMDL": -5, "NELMIN": 6, "ENINI": 520.0, "LDIAG": true, "LSUBROT": false, "WEIMIN": 0.001, "EBREAK": 2e-08, "DEPER": 0.3, "NRMM": 4, "TIME": 0.4, "AMIX": 0.4, "BMIX": 1.0, "AMIN": 0.1, "AMIX_MAG": 1.6, "BMIX_MAG": 1.0, "IMIX": 4, "MIXFIRST": false, "MAXMIX": -45, "WC": 100.0, "INIMIX": 1, "MIXPRE": 1, "MREMOVE": 5, "LDIPOL": false, "LMONO": false, "IDIPOL": 0, "EPSILON": 1.0, "DIPOL": [-100.0, -100.0, -100.0], "EFIELD": 0.0, "NGX": 36, "NGY": 48, "NGZ": 294, "NGXF": 72, "NGYF": 96, "NGZF": 588, "ADDGRID": false, "NSW": 150, "IBRION": 2, "MDALGO": 0, "ISIF": 2, "PSTRESS": 0.0, "EDIFFG": -0.01, "NFREE": 1, "POTIM": 0.5, "SMASS": -3.0, "SCALEE": 1.0, "TEBEG": 0.0001, "TEEND": 0.0001, "NBLOCK": 1, "KBLOCK": 150, "NPACO": 256, "APACO": 10.0, "ISYM": 0, "SYMPREC": 1e-05, "LORBIT": 11, "RWIGS": [-1.0, -1.0, -1.0], "NEDOS": 301, "EMIN": 10.0, "EMAX": -10.0, "EFERMI": 0.0, "NWRITE": 2, "LWAVE": false, "LDOWNSAMPLE": false, "LCHARG": false, "LPARD": false, "LVTOT": false, "LVHAR": false, "LELF": false, "LOPTICS": false, "STM": [0.0, 0.0, 0.0, 0.0, 0.0, 0.0, 0.0], "NPAR": 2, "NSIM": 4, "NBLK": -1, "LPLANE": true, "LSCALAPACK": true, "LSCAAWARE": false, "LSCALU": false, "LASYNC": false, "LORBITALREAL": false, "IDIOT": 3, "PHON_NSTRUCT": -1, "LMUSIC": false, "POMASS": [7.01, 30.974, 32.066], "DARWINR": [0.0, 0.0, 0.0], "DARWINV": [1.0, 1.0, 1.0], "LCORR": true, "GGA_COMPAT": true, "LBERRY": false, "ICORELEVEL": 0, "LDAU": false, "I_CONSTRAINED_M": 0, "GGA": "--", "VOSKOWN": 0, "LHFCALC": false, "PRECFOCK": "", "LSYMGRAD": false, "LHFONE": false, "LRHFCALC": false, "LTHOMAS": false, "LMODELHF": false, "LFOCKACE": false, "ENCUT4O": -1.0, "EXXOEP": 0, "FOURORBIT": 0, "AEXX": 0.0, "HFALPHA": 0.0, "MCALPHA": 0.0, "ALDAX": 1.0, "AGGAX": 1.0, "ALDAC": 1.0, "AGGAC": 1.0, "NKREDX": 1, "NKREDY": 1, "NKREDZ": 1, "SHIFTRED": false, "ODDONLY": false, "EVENONLY": false, "LMAXFOCK": 0, "NMAXFOCKAE": 0, "LFOCKAEDFT": false, "HFSCREEN": 0.0, "HFSCREENC": 0.0, "NBANDSGWLOW": 0, "LUSE_VDW": false, "Zab_VDW": -0.8491, "PARAM1": 0.1234, "PARAM2": 1.0, "PARAM3": 0.0, "MODEL_GW": 0, "MODEL_EPS0": 33.13317621, "MODEL_ALPHA": 1.0, "LEPSILON": false, "LRPA": false, "LNABLA": false, "LVEL": false, "CSHIFT": 0.1, "OMEGAMAX": -1.0, "DEG_THRESHOLD": 0.002, "RTIME": -0.1, "WPLASMAI": 0.0, "DFIELD": [0.0, 0.0, 0.0], "WPLASMA": [0.0, 0.0, 0.0, 0.0, 0.0, 0.0, 0.0, 0.0, 0.0], "NUCIND": false, "MAGPOS": [0.0, 0.0, 0.0], "LNICSALL": true, "ORBITALMAG": false, "LMAGBLOCH": false, "LCHIMAG": false, "LGAUGE": true, "MAGATOM": 0, "MAGDIPOL": [0.0, 0.0, 0.0], "AVECCONST": [0.0, 0.0, 0.0], "LFINITE_TEMPERATURE": false, "LADDER": false, "LRPAFORCE": false, "LFXC": false, "LHARTREE": true, "IBSE": 0, "KPOINT": [-1, 0, 0, 0], "LTCTC": false, "LTCTE": false, "LTETE": false, "LTRIPLET": false, "LFXCEPS": false, "LFXHEG": false, "NATURALO": 2, "LHOLEGF": false, "L2ORDER": false, "LDMP1": false, "LMP2LT": false, "LSMP2LT": false, "LGWLF": false, "ENCUTGW": -2.0, "ENCUTGWSOFT": -2.0, "ENCUTLF": -1.0, "LESF_SPLINES": false, "LMAXMP2": -1, "SCISSOR": 0.0, "NOMEGA": 0, "NOMEGAR": 0, "NBANDSGW": -1, "NBANDSO": -1, "NBANDSV": -1, "NELMGW": 1, "NELMHF": 1, "DIM": 3, "IESPILON": 4, "ANTIRES": 0, "OMEGAMIN": -30.0, "OMEGATL": -200.0, "OMEGAGRID": 0, "LSELFENERGY": false, "LSPECTRAL": false, "LSPECTRALGW": false, "LSINGLES": false, "LFERMIGW": false, "ODDONLYGW": false, "EVENONLYGW": false, "NKREDLFX": 1, "NKREDLFY": 1, "NKREDLFZ": 1, "MAXMEM": 2800, "TELESCOPE": 0, "NTAUPAR": -1, "NOMEGAPAR": -1, "DAMP_NEWTON": 0.80000001, "LAMBDA": 1.0, "OFIELD_KAPPA": 0.0, "OFIELD_K": [0.0, 0.0, 0.0], "OFIELD_Q6_NEAR": 0.0, "OFIELD_Q6_FAR": 0.0, "OFIELD_A": 0.0, "KPOINTS_OPT_MODE": 1, "LKPOINTS_OPT": false, "@module": "pymatgen.io.vasp.inputs", "@class": "Incar"}, "relaxed_structures": {"@module": "pymatgen.core.structure", "@class": "Structure", "charge": 0, "lattice": {"matrix": [[6.259951, 0.0, 0.0], [0.0, 8.106791, 0.0], [0.0, 0.0, 52.231578]], "a": 6.259951, "b": 8.106791, "c": 52.231578, "alpha": 90.0, "beta": 90.0, "gamma": 90.0, "volume": 2650.6540970593637}, "sites": [{"species": [{"element": "Li", "occu": 1}], "abc": [0.10751656, 0.96770467, 0.12278641000000001], "xyz": [0.67304839728856, 7.84497950941397, 6.41332795125498], "label": "Li", "properties": {}}, {"species": [{"element": "Li", "occu": 1}], "abc": [0.60806456, 0.03803696, 0.08119949000000001], "xyz": [3.8064543504365598, 0.30835768499536, 4.24117749549522], "label": "Li", "properties": {}}, {"species": [{"element": "Li", "occu": 1}], "abc": [0.41448598, 0.97606642, 0.0033746300000000035], "xyz": [2.59466192498698, 7.912766469058219, 0.17626225006614019], "label": "Li", "properties": {}}, {"species": [{"element": "Li", "occu": 1}], "abc": [0.41448986, 0.52392791, 0.0033749200000000035], "xyz": [2.59468621359686, 4.24737406543681, 0.17627739722376018], "label": "Li", "properties": {}}, {"species": [{"element": "Li", "occu": 1}], "abc": [0.60806556, 0.46195673, 0.08119956], "xyz": [3.80646061038756, 3.7449866611534297, 4.24118115170568], "label": "Li", "properties": {}}, {"species": [{"element": "Li", "occu": 1}], "abc": [0.1075179, 0.53229111, 0.12278653], "xyz": [0.6730567856229001, 4.31517277992801, 6.41333421904434], "label": "Li", "properties": {}}, {"species": [{"element": "Li", "occu": 1}], "abc": [0.49994031, 0.99997153, 0.16462185000000001], "xyz": [3.12960184352481, 8.10656019966023, 8.5984589987793], "label": "Li", "properties": {}}, {"species": [{"element": "Li", "occu": 1}], "abc": [0.9812745, 0.99245766, 0.039711800000000005], "xyz": [6.1427302875495, 8.04564682596906, 2.0742099792204], "label": "Li", "properties": {}}, {"species": [{"element": "Li", "occu": 1}], "abc": [0.98124675, 0.50754456, 0.039711540000000004], "xyz": [6.14255657390925, 4.11455767110696, 2.07419639901012], "label": "Li", "properties": {}}, {"species": [{"element": "Li", "occu": 1}], "abc": [0.49994023, 0.50002408, 0.1646217], "xyz": [3.12960134272873, 4.05359071152728, 8.5984511640426], "label": "Li", "properties": {}}, {"species": [{"element": "Li", "occu": 1}], "abc": [0.89108803, 0.03214081, 0.20654777000000002], "xyz": [5.57816740448653, 0.26055882924071, 10.78831595948106], "label": "Li", "properties": {}}, {"species": [{"element": "Li", "occu": 1}], "abc": [0.58609374, 0.02420665, 0.32602962], "xyz": [3.6689180938067403, 0.19623825236015, 17.02904152734036], "label": "Li", "properties": {}}, {"species": [{"element": "Li", "occu": 1}], "abc": [0.39188445, 0.96205627, 0.24818409000000002], "xyz": [2.45317745466195, 7.79918911112957, 12.96304665519402], "label": "Li", "properties": {}}, {"species": [{"element": "Li", "occu": 1}], "abc": [0.39188177, 0.53795497, 0.24818552], "xyz": [2.45316067799327, 4.36108850920127, 12.96312134635056], "label": "Li", "properties": {}}, {"species": [{"element": "Li", "occu": 1}], "abc": [0.58608147, 0.47580308, 0.32602957], "xyz": [3.66884128420797, 3.8572361267162796, 17.029038915761458], "label": "Li", "properties": {}}, {"species": [{"element": "Li", "occu": 1}], "abc": [0.89105737, 0.46783608, 0.20654761], "xyz": [5.57797547438887, 3.7926493228192797, 10.78830760242858], "label": "Li", "properties": {}}, {"species": [{"element": "Li", "occu": 1}], "abc": [0.01889171, 0.00745111, 0.28970415], "xyz": [0.11826117890620999, 0.06040459148801, 15.1317049076487], "label": "Li", "properties": {}}, {"species": [{"element": "Li", "occu": 1}], "abc": [0.01889942, 0.49255457, 0.2897031], "xyz": [0.11830944312842, 3.99303695508487, 15.131650064491799], "label": "Li", "properties": {}}, {"species": [{"element": "P", "occu": 1}], "abc": [0.84545592, 0.24999741, 0.14217109], "xyz": [5.29251263185992, 2.02667675341131, 7.4258203766800195], "label": "P", "properties": {}}, {"species": [{"element": "P", "occu": 1}], "abc": [0.34642806, 0.74999623, 0.062088350000000014], "xyz": [2.16862268062506, 6.0800626873979295, 3.242972495916301], "label": "P", "properties": {}}, {"species": [{"element": "P", "occu": 1}], "abc": [0.66776007, 0.24999442, 0.016709600000000005], "xyz": [4.18014531795657, 2.0266525141062197, 0.8727687757488003], "label": "P", "properties": {}}, {"species": [{"element": "P", "occu": 1}], "abc": [0.1544355, 0.74999061, 0.18714904], "xyz": [0.9667586626605, 6.08001712723251, 9.775089680385118], "label": "P", "properties": {}}, {"species": [{"element": "P", "occu": 1}], "abc": [0.33273242, 0.75001383, 0.31268717], "xyz": [2.08288864531142, 6.08020536691953, 16.33214430945426], "label": "P", "properties": {}}, {"species": [{"element": "P", "occu": 1}], "abc": [0.65364179, 0.2500049, 0.2673087], "xyz": [4.09176557695229, 2.0267374732758996, 13.9619552141286], "label": "P", "properties": {}}, {"species": [{"element": "S", "occu": 1}], "abc": [0.72786445, 0.46329347, 0.12610273], "xyz": [4.55639579164195, 3.7558233329547694, 6.586544578007939], "label": "S", "properties": {}}, {"species": [{"element": "S", "occu": 1}], "abc": [0.22725477, 0.53665576, 0.07768776], "xyz": [1.42260372471627, 4.35055608526616, 4.05775429608528], "label": "S", "properties": {}}, {"species": [{"element": "S", "occu": 1}], "abc": [0.78094878, 0.46080722, 0.00010000000000000286], "xyz": [4.88870109630978, 3.7356678238310197, 0.005223157800000149], "label": "S", "properties": {}}, {"species": [{"element": "S", "occu": 1}], "abc": [0.7809429, 0.03917323, 0.00010163000000000533], "xyz": [4.8886642877979, 0.31756918840493, 0.005308295272140278], "label": "S", "properties": {}}, {"species": [{"element": "S", "occu": 1}], "abc": [0.2272546, 0.96333984, 0.07768720000000001], "xyz": [1.4226026605246, 7.809594744853439, 4.0577250464016], "label": "S", "properties": {}}, {"species": [{"element": "S", "occu": 1}], "abc": [0.72786405, 0.03670066, 0.12610295], "xyz": [4.55639328766155, 0.29752458018206, 6.586556068955099], "label": "S", "properties": {}}, {"species": [{"element": "S", "occu": 1}], "abc": [0.2736469, 0.7499969, 0.1497197], "xyz": [1.7130161853019001, 6.080068118947899, 7.8200961886866], "label": "S", "properties": {}}, {"species": [{"element": "S", "occu": 1}], "abc": [0.72614094, 0.2499958, 0.17958576], "xyz": [4.54560670349394, 2.0266637014778, 9.38004763112928], "label": "S", "properties": {}}, {"species": [{"element": "S", "occu": 1}], "abc": [0.78214447, 0.25000062, 0.054713189999999995], "xyz": [4.89618605712097, 2.0267027762104197, 2.8577562511138197], "label": "S", "properties": {}}, {"species": [{"element": "S", "occu": 1}], "abc": [0.22942729, 0.74999366, 0.024292190000000005], "xyz": [1.4362035934627901, 6.08004185294506, 1.2688194167758202], "label": "S", "properties": {}}, {"species": [{"element": "S", "occu": 1}], "abc": [0.17055197, 0.24999688, 0.13936256], "xyz": [1.06764697515347, 2.0266724568120797, 7.2791264229196795], "label": "S", "properties": {}}, {"species": [{"element": "S", "occu": 1}], "abc": [0.67181457, 0.74999697, 0.06516532], "xyz": [4.20552628928607, 6.080068686423269, 3.4036874944749598], "label": "S", "properties": {}}, {"species": [{"element": "S", "occu": 1}], "abc": [0.33900525, 0.25000064, 0.015236769999999997], "xyz": [2.12215625374275, 2.0267029383462396, 0.7958405407230598], "label": "S", "properties": {}}, {"species": [{"element": "S", "occu": 1}], "abc": [0.27185627, 0.53657905, 0.20320540999999998], "xyz": [1.70180692924277, 4.34993421332855, 10.613739222436978], "label": "S", "properties": {}}, {"species": [{"element": "S", "occu": 1}], "abc": [0.21971092, 0.53913774, 0.32928553], "xyz": [1.37537959336492, 4.37067697839234, 17.19910284446634], "label": "S", "properties": {}}, {"species": [{"element": "S", "occu": 1}], "abc": [0.77270284, 0.46335874, 0.25171258], "xyz": [4.83708191596084, 3.75635246320334, 13.14734525585124], "label": "S", "properties": {}}, {"species": [{"element": "S", "occu": 1}], "abc": [0.77269485, 0.03664443, 0.25171513], "xyz": [4.83703189895235, 0.29706873532413, 13.14747844637514], "label": "S", "properties": {}}, {"species": [{"element": "S", "occu": 1}], "abc": [0.21971606, 0.9608777, 0.3292897], "xyz": [1.3754117695130599, 7.789634690460699, 17.1993206501466], "label": "S", "properties": {}}, {"species": [{"element": "S", "occu": 1}], "abc": [0.27185613, 0.96341578, 0.20320515], "xyz": [1.70180605284963, 7.81021037456198, 10.613725642226699], "label": "S", "properties": {}}, {"species": [{"element": "S", "occu": 1}], "abc": [0.77105036, 0.2500123, 0.30508758], "xyz": [4.82673747213236, 2.0267974635293, 15.935205731601242], "label": "S", "properties": {}}, {"species": [{"element": "S", "occu": 1}], "abc": [0.2178828, 0.75003822, 0.27470225], "xyz": [1.3639356517427998, 6.08040309155202, 14.3481319976505], "label": "S", "properties": {}}, {"species": [{"element": "S", "occu": 1}], "abc": [0.82912561, 0.7499972, 0.18988212999999998], "xyz": [5.190285691445109, 6.0800705509852, 9.917843283901139], "label": "S", "properties": {}}, {"species": [{"element": "S", "occu": 1}], "abc": [0.66138342, 0.75000294, 0.31416552], "xyz": [4.14022780141242, 6.08011708396554, 16.409360862790557], "label": "S", "properties": {}}, {"species": [{"element": "S", "occu": 1}], "abc": [0.32828588, 0.25000169, 0.26423505], "xyz": [2.05505352279188, 2.02671145047679, 13.801413624408902], "label": "S", "properties": {}}]}, "formula": "(Li3PS4)6.0", "bandgap": 2.7914000000000003, "slab_thickness": 17.1940974923466}