{"miller": "010_0.14", "final_energy": -418.62096656, "gamma": 0.0216737242930725, "work_function": 5.227078997413602, "ionization_potentail": -5.453278997413602, "electron_affinity": -2.7323789974136017, "is_stochiometric": true, "incar_parameters": {"SYSTEM": "unknown system", "LCOMPAT": false, "PREC": "normal", "ENMAX": 520.0, "ENAUG": 628.945, "EDIFF": 1e-05, "IALGO": 38, "IWAVPR": 11, "NBANDS": 278, "NBANDSLOW": -1, "NBANDSHIGH": -1, "NELECT": 456.0, "TURBO": 0, "IRESTART": 0, "NREBOOT": 0, "NMIN": 0, "EREF": 0.0, "ISMEAR": 0, "SIGMA": 0.05, "KSPACING": 0.5, "KGAMMA": true, "KBLOWUP": true, "LREAL": true, "ROPT": [-0.0005, -0.0005, -0.0005], "LMAXPAW": -100, "LMAXMIX": 2, "NLSPLINE": false, "ISTART": 0, "ICHARG": 2, "INIWAV": 1, "ISPIN": 1, "LNONCOLLINEAR": false, "MAGMOM": [0.6, 0.6, 0.6, 0.6, 0.6, 0.6, 0.6, 0.6, 0.6, 0.6, 0.6, 0.6, 0.6, 0.6, 0.6, 0.6, 0.6, 0.6, 0.6, 0.6, 0.6, 0.6, 0.6, 0.6, 0.6, 0.6, 0.6, 0.6, 0.6, 0.6, 0.6, 0.6, 0.6, 0.6, 0.6, 0.6, 0.6, 0.6, 0.6, 0.6, 0.6, 0.6, 0.6, 0.6, 0.6, 0.6, 0.6, 0.6, 0.6, 0.6, 0.6, 0.6, 0.6, 0.6, 0.6, 0.6, 0.6, 0.6, 0.6, 0.6, 0.6, 0.6, 0.6, 0.6, 0.6, 0.6, 0.6, 0.6, 0.6, 0.6, 0.6, 0.6, 0.6, 0.6, 0.6, 0.6, 0.6, 0.6, 0.6, 0.6, 0.6, 0.6, 0.6, 0.6, 0.6, 0.6, 0.6, 0.6, 0.6, 0.6, 0.6, 0.6, 0.6, 0.6, 0.6, 0.6], "NUPDOWN": -1.0, "LSORBIT": false, "SAXIS": [0.0, 0.0, 1.0], "LSPIRAL": false, "QSPIRAL": [0.0, 0.0, 0.0], "LZEROZ": false, "LASPH": false, "LMETAGGA": false, "NELM": 100, "NELMDL": -5, "NELMIN": 6, "ENINI": 520.0, "LDIAG": true, "LSUBROT": false, "WEIMIN": 0.001, "EBREAK": 1e-08, "DEPER": 0.3, "NRMM": 4, "TIME": 0.4, "AMIX": 0.4, "BMIX": 1.0, "AMIN": 0.1, "AMIX_MAG": 1.6, "BMIX_MAG": 1.0, "IMIX": 4, "MIXFIRST": false, "MAXMIX": -45, "WC": 100.0, "INIMIX": 1, "MIXPRE": 1, "MREMOVE": 5, "LDIPOL": false, "LMONO": false, "IDIPOL": 0, "EPSILON": 1.0, "DIPOL": [-100.0, -100.0, -100.0], "EFIELD": 0.0, "NGX": 36, "NGY": 80, "NGZ": 280, "NGXF": 72, "NGYF": 160, "NGZF": 560, "ADDGRID": false, "NSW": 150, "IBRION": 2, "MDALGO": 0, "ISIF": 2, "PSTRESS": 0.0, "EDIFFG": -0.01, "NFREE": 1, "POTIM": 0.5, "SMASS": -3.0, "SCALEE": 1.0, "TEBEG": 0.0001, "TEEND": 0.0001, "NBLOCK": 1, "KBLOCK": 150, "NPACO": 256, "APACO": 10.0, "ISYM": 0, "SYMPREC": 1e-05, "LORBIT": 11, "RWIGS": [-1.0, -1.0, -1.0], "NEDOS": 301, "EMIN": 10.0, "EMAX": -10.0, "EFERMI": 0.0, "NWRITE": 2, "LWAVE": false, "LDOWNSAMPLE": false, "LCHARG": false, "LPARD": false, "LVTOT": false, "LVHAR": false, "LELF": false, "LOPTICS": false, "STM": [0.0, 0.0, 0.0, 0.0, 0.0, 0.0, 0.0], "NPAR": 2, "NSIM": 4, "NBLK": -1, "LPLANE": true, "LSCALAPACK": true, "LSCAAWARE": false, "LSCALU": false, "LASYNC": false, "LORBITALREAL": false, "IDIOT": 3, "PHON_NSTRUCT": -1, "LMUSIC": false, "POMASS": [7.01, 30.974, 32.066], "DARWINR": [0.0, 0.0, 0.0], "DARWINV": [1.0, 1.0, 1.0], "LCORR": true, "GGA_COMPAT": true, "LBERRY": false, "ICORELEVEL": 0, "LDAU": false, "I_CONSTRAINED_M": 0, "GGA": "--", "VOSKOWN": 0, "LHFCALC": false, "PRECFOCK": "", "LSYMGRAD": false, "LHFONE": false, "LRHFCALC": false, "LTHOMAS": false, "LMODELHF": false, "LFOCKACE": false, "ENCUT4O": -1.0, "EXXOEP": 0, "FOURORBIT": 0, "AEXX": 0.0, "HFALPHA": 0.0, "MCALPHA": 0.0, "ALDAX": 1.0, "AGGAX": 1.0, "ALDAC": 1.0, "AGGAC": 1.0, "NKREDX": 1, "NKREDY": 1, "NKREDZ": 1, "SHIFTRED": false, "ODDONLY": false, "EVENONLY": false, "LMAXFOCK": 0, "NMAXFOCKAE": 0, "LFOCKAEDFT": false, "HFSCREEN": 0.0, "HFSCREENC": 0.0, "NBANDSGWLOW": 0, "LUSE_VDW": false, "Zab_VDW": -0.8491, "PARAM1": 0.1234, "PARAM2": 1.0, "PARAM3": 0.0, "MODEL_GW": 0, "MODEL_EPS0": 24.84988311, "MODEL_ALPHA": 1.0, "LEPSILON": false, "LRPA": false, "LNABLA": false, "LVEL": false, "CSHIFT": 0.1, "OMEGAMAX": -1.0, "DEG_THRESHOLD": 0.002, "RTIME": -0.1, "WPLASMAI": 0.0, "DFIELD": [0.0, 0.0, 0.0], "WPLASMA": [0.0, 0.0, 0.0, 0.0, 0.0, 0.0, 0.0, 0.0, 0.0], "NUCIND": false, "MAGPOS": [0.0, 0.0, 0.0], "LNICSALL": true, "ORBITALMAG": false, "LMAGBLOCH": false, "LCHIMAG": false, "LGAUGE": true, "MAGATOM": 0, "MAGDIPOL": [0.0, 0.0, 0.0], "AVECCONST": [0.0, 0.0, 0.0], "LFINITE_TEMPERATURE": false, "LADDER": false, "LRPAFORCE": false, "LFXC": false, "LHARTREE": true, "IBSE": 0, "KPOINT": [-1, 0, 0, 0], "LTCTC": false, "LTCTE": false, "LTETE": false, "LTRIPLET": false, "LFXCEPS": false, "LFXHEG": false, "NATURALO": 2, "LHOLEGF": false, "L2ORDER": false, "LDMP1": false, "LMP2LT": false, "LSMP2LT": false, "LGWLF": false, "ENCUTGW": -2.0, "ENCUTGWSOFT": -2.0, "ENCUTLF": -1.0, "LESF_SPLINES": false, "LMAXMP2": -1, "SCISSOR": 0.0, "NOMEGA": 0, "NOMEGAR": 0, "NBANDSGW": -1, "NBANDSO": -1, "NBANDSV": -1, "NELMGW": 1, "NELMHF": 1, "DIM": 3, "IESPILON": 4, "ANTIRES": 0, "OMEGAMIN": -30.0, "OMEGATL": -200.0, "OMEGAGRID": 0, "LSELFENERGY": false, "LSPECTRAL": false, "LSPECTRALGW": false, "LSINGLES": false, "LFERMIGW": false, "ODDONLYGW": false, "EVENONLYGW": false, "NKREDLFX": 1, "NKREDLFY": 1, "NKREDLFZ": 1, "MAXMEM": 2800, "TELESCOPE": 0, "NTAUPAR": -1, "NOMEGAPAR": -1, "DAMP_NEWTON": 0.80000001, "LAMBDA": 1.0, "OFIELD_KAPPA": 0.0, "OFIELD_K": [0.0, 0.0, 0.0], "OFIELD_Q6_NEAR": 0.0, "OFIELD_Q6_FAR": 0.0, "OFIELD_A": 0.0, "KPOINTS_OPT_MODE": 1, "LKPOINTS_OPT": false, "@module": "pymatgen.io.vasp.inputs", "@class": "Incar"}, "relaxed_structures": {"@module": "pymatgen.core.structure", "@class": "Structure", "charge": 0, "lattice": {"matrix": [[6.259951, 0.0, 0.0], [0.0, 13.057895, 0.0], [0.0, 0.0, 48.640746]], "a": 6.259951, "b": 13.057895, "c": 48.640746, "alpha": 90.0, "beta": 90.0, "gamma": 90.0, "volume": 3975.981297833389}, "sites": [{"species": [{"element": "Li", "occu": 1}], "abc": [0.89580315, 0.16243578, 0.08691471], "xyz": [5.60768382464565, 2.1210693594831, 4.22759633277366], "label": "Li", "properties": {}}, {"species": [{"element": "Li", "occu": 1}], "abc": [0.08998175, 0.83917694, 0.07588391], "xyz": [0.56328134589425, 10.9578843689413, 3.6910499917968598], "label": "Li", "properties": {}}, {"species": [{"element": "Li", "occu": 1}], "abc": [0.3882998, 0.33874176, 0.0798266], "xyz": [2.4307377213098, 4.4232543341952, 3.8828253746435997], "label": "Li", "properties": {}}, {"species": [{"element": "Li", "occu": 1}], "abc": [0.56726627, 0.66838022, 0.08957493], "xyz": [3.55105905415277, 8.7276387328369, 4.35699141809778], "label": "Li", "properties": {}}, {"species": [{"element": "Li", "occu": 1}], "abc": [0.34946411, 0.30814306, 0.013198000000000008], "xyz": [2.1876282048586098, 4.023699722458701, 0.6419605657080004], "label": "Li", "properties": {}}, {"species": [{"element": "Li", "occu": 1}], "abc": [0.96062818, 0.68338589, 0.024968460000000005], "xyz": [6.013485336019181, 8.923581196101551, 1.2144845208711603], "label": "Li", "properties": {}}, {"species": [{"element": "Li", "occu": 1}], "abc": [0.44330453, 0.99693193, 0.08749498], "xyz": [2.7750646358780298, 13.01783246408735, 4.25582109845508], "label": "Li", "properties": {}}, {"species": [{"element": "Li", "occu": 1}], "abc": [0.95199185, 0.50265192, 0.07651827], "xyz": [5.95942233339935, 6.5635759929084, 3.72190573542942], "label": "Li", "properties": {}}, {"species": [{"element": "Li", "occu": 1}], "abc": [0.55085252, 0.02063138, 0.014957470000000007], "xyz": [3.4483097834265197, 0.2694023937451, 0.7275424990726204], "label": "Li", "properties": {}}, {"species": [{"element": "Li", "occu": 1}], "abc": [0.88859331, 0.16591462, 0.25541039], "xyz": [5.56255057952781, 2.1664956869249004, 12.42335190575094], "label": "Li", "properties": {}}, {"species": [{"element": "Li", "occu": 1}], "abc": [0.10037877, 0.83312065, 0.24426452], "xyz": [0.62836618164027, 10.87880197003175, 11.88120847413192], "label": "Li", "properties": {}}, {"species": [{"element": "Li", "occu": 1}], "abc": [0.39169416, 0.3344183, 0.24464326], "xyz": [2.4519862485861603, 4.3667990474785, 11.89963067027196], "label": "Li", "properties": {}}, {"species": [{"element": "Li", "occu": 1}], "abc": [0.60325717, 0.66557906, 0.25685559999999996], "xyz": [3.77636032459867, 8.6910614796787, 12.493647998277599], "label": "Li", "properties": {}}, {"species": [{"element": "Li", "occu": 1}], "abc": [0.62917913, 0.66444101, 0.16265146], "xyz": [3.93863052402263, 8.676200942273951, 7.91148835238916], "label": "Li", "properties": {}}, {"species": [{"element": "Li", "occu": 1}], "abc": [0.41597383, 0.33375101, 0.17361942], "xyz": [2.6039757930823297, 4.358085644723951, 8.44497810888732], "label": "Li", "properties": {}}, {"species": [{"element": "Li", "occu": 1}], "abc": [0.12845967, 0.8370983, 0.17011040000000002], "xyz": [0.80415123967617, 10.9307417060785, 8.274296758358402], "label": "Li", "properties": {}}, {"species": [{"element": "Li", "occu": 1}], "abc": [0.91431469, 0.17340498, 0.15981092000000002], "xyz": [5.72356515798019, 2.2643040213170997, 7.773322367746321], "label": "Li", "properties": {}}, {"species": [{"element": "Li", "occu": 1}], "abc": [0.48241436, 0.99720891, 0.25241525], "xyz": [3.01989025529636, 13.02144923984445, 12.277666061776499], "label": "Li", "properties": {}}, {"species": [{"element": "Li", "occu": 1}], "abc": [0.9984921, 0.50005968, 0.25060066999999997], "xyz": [6.2505116198871, 6.5297267951736, 12.18940353689982], "label": "Li", "properties": {}}, {"species": [{"element": "Li", "occu": 1}], "abc": [0.06094521, 0.49598155, 0.16049675000000002], "xyz": [0.38151402828471, 6.47647500183725, 7.806681650575501], "label": "Li", "properties": {}}, {"species": [{"element": "Li", "occu": 1}], "abc": [0.56610719, 0.01025193, 0.17325427000000002], "xyz": [3.54380327014769, 0.13386862548734998, 8.42721694048542], "label": "Li", "properties": {}}, {"species": [{"element": "Li", "occu": 1}], "abc": [0.91071661, 0.15995338, 0.42484573999999997], "xyz": [5.701041353486111, 2.0886544409351, 20.664813728522038], "label": "Li", "properties": {}}, {"species": [{"element": "Li", "occu": 1}], "abc": [0.10821778, 0.83805795, 0.41418680999999996], "xyz": [0.67743800012878, 10.943272715015251, 20.14635542176026], "label": "Li", "properties": {}}, {"species": [{"element": "Li", "occu": 1}], "abc": [0.43427986, 0.33233709, 0.41118973999999997], "xyz": [2.71857064388686, 4.3396228258255505, 20.00057570114604], "label": "Li", "properties": {}}, {"species": [{"element": "Li", "occu": 1}], "abc": [0.6103566, 0.66198221, 0.42167025999999996], "xyz": [3.8208024085266, 8.64409419004795, 20.510356012413958], "label": "Li", "properties": {}}, {"species": [{"element": "Li", "occu": 1}], "abc": [0.59219722, 0.66818108, 0.32787561], "xyz": [3.70712557953622, 8.7250383836266, 15.94811426560506], "label": "Li", "properties": {}}, {"species": [{"element": "Li", "occu": 1}], "abc": [0.3680991, 0.33523018, 0.33838126999999996], "xyz": [2.3042823291441, 4.3774004912711, 16.459117405227417], "label": "Li", "properties": {}}, {"species": [{"element": "Li", "occu": 1}], "abc": [0.09286814, 0.82689381, 0.34096387], "xyz": [0.58135000586114, 10.79749254712995, 16.58473699584702], "label": "Li", "properties": {}}, {"species": [{"element": "Li", "occu": 1}], "abc": [0.87093372, 0.16385092, 0.33060769], "xyz": [5.452002411447721, 2.1395481090134, 16.08100467493674], "label": "Li", "properties": {}}, {"species": [{"element": "Li", "occu": 1}], "abc": [0.55819078, 0.00265729, 0.41362311999999996], "xyz": [3.49424693145178, 0.03469861380455, 20.11893711964752], "label": "Li", "properties": {}}, {"species": [{"element": "Li", "occu": 1}], "abc": [0.0497439, 0.4971986, 0.42483171], "xyz": [0.3113943765489, 6.492367112947, 20.664131298855658], "label": "Li", "properties": {}}, {"species": [{"element": "Li", "occu": 1}], "abc": [0.94237471, 0.50361638, 0.34087235], "xyz": [5.899219508239209, 6.5761698103201, 16.5802853947731], "label": "Li", "properties": {}}, {"species": [{"element": "Li", "occu": 1}], "abc": [0.44052716, 0.99076038, 0.32829569999999997], "xyz": [2.7576784357691597, 12.9372450122001, 15.968547756592198], "label": "Li", "properties": {}}, {"species": [{"element": "Li", "occu": 1}], "abc": [0.66349576, 0.69014504, 0.48938619], "xyz": [4.15345094630776, 9.0118414670908, 23.80410936369774], "label": "Li", "properties": {}}, {"species": [{"element": "Li", "occu": 1}], "abc": [0.03386217, 0.31335136, 0.47576904000000003], "xyz": [0.21197552495366997, 4.0917091569872, 23.14176102930384], "label": "Li", "properties": {}}, {"species": [{"element": "Li", "occu": 1}], "abc": [0.45040416, 0.98082165, 0.48567983], "xyz": [2.81950797179616, 12.807466119426751, 23.62382924835318], "label": "Li", "properties": {}}, {"species": [{"element": "P", "occu": 1}], "abc": [0.15006252, 0.08691642, 0.03742006], "xyz": [0.9393840221365201, 1.1349454861358999, 1.82013963376476], "label": "P", "properties": {}}, {"species": [{"element": "P", "occu": 1}], "abc": [0.35016107, 0.58431641, 0.03690214000000001], "xyz": [2.1919911403075703, 7.62994232855695, 1.7949476185964404], "label": "P", "properties": {}}, {"species": [{"element": "P", "occu": 1}], "abc": [0.1627175, 0.08980815, 0.20807114000000002], "xyz": [1.0186035768425, 1.1727053928442501, 10.120735470670441], "label": "P", "properties": {}}, {"species": [{"element": "P", "occu": 1}], "abc": [0.84141542, 0.91278154, 0.12410619], "xyz": [5.26721929984442, 11.9190055072583, 6.03661766481774], "label": "P", "properties": {}}, {"species": [{"element": "P", "occu": 1}], "abc": [0.66467613, 0.41256584, 0.12574945], "xyz": [4.16084000466963, 5.3872414193068, 6.116547057089701], "label": "P", "properties": {}}, {"species": [{"element": "P", "occu": 1}], "abc": [0.34947727, 0.59137575, 0.20891476], "xyz": [2.18771058581377, 7.72212244904625, 10.16176977681096], "label": "P", "properties": {}}, {"species": [{"element": "P", "occu": 1}], "abc": [0.15901651, 0.08700864, 0.3767983], "xyz": [0.99543556079101, 1.1361496852128, 18.327750403531798], "label": "P", "properties": {}}, {"species": [{"element": "P", "occu": 1}], "abc": [0.83799089, 0.9108229, 0.29270923], "xyz": [5.24578190984639, 11.8934297917955, 14.237595308285579], "label": "P", "properties": {}}, {"species": [{"element": "P", "occu": 1}], "abc": [0.64724918, 0.40887533, 0.29238201999999996], "xyz": [4.05174815159018, 5.33905112723035, 14.221679569786918], "label": "P", "properties": {}}, {"species": [{"element": "P", "occu": 1}], "abc": [0.33764752, 0.58808312, 0.37520806], "xyz": [2.11365693047152, 7.6791276322324, 18.25039994361276], "label": "P", "properties": {}}, {"species": [{"element": "P", "occu": 1}], "abc": [0.85169583, 0.91315829, 0.46367485], "xyz": [5.331574162704331, 11.923925069199552, 22.5534906054381], "label": "P", "properties": {}}, {"species": [{"element": "P", "occu": 1}], "abc": [0.64725301, 0.41492807, 0.46415290000000003], "xyz": [4.0517721272025105, 5.41808717061265, 22.576743314063403], "label": "P", "properties": {}}, {"species": [{"element": "S", "occu": 1}], "abc": [0.2768381, 0.13995534, 0.0009836000000000011], "xyz": [1.7329929409331, 1.8275221344093002, 0.047843037765600054], "label": "S", "properties": {}}, {"species": [{"element": "S", "occu": 1}], "abc": [0.27244569, 0.640763, 0.00010000000000000286], "xyz": [1.7054966695611902, 8.367015973885, 0.004864074600000139], "label": "S", "properties": {}}, {"species": [{"element": "S", "occu": 1}], "abc": [0.18749972, 0.65833539, 0.06911738], "xyz": [1.17373905971372, 8.59647439740405, 3.36192092476548], "label": "S", "properties": {}}, {"species": [{"element": "S", "occu": 1}], "abc": [0.77073899, 0.34314008, 0.09032091], "xyz": [4.82478831118949, 4.480687134931601, 4.39327644179886], "label": "S", "properties": {}}, {"species": [{"element": "S", "occu": 1}], "abc": [0.70910289, 0.84823793, 0.08937576], "xyz": [4.43894934535839, 11.07620182495735, 4.34730364071696], "label": "S", "properties": {}}, {"species": [{"element": "S", "occu": 1}], "abc": [0.27493737, 0.15850296, 0.07210161000000001], "xyz": [1.7210944642688701, 2.0697150088692, 3.5070760982010607], "label": "S", "properties": {}}, {"species": [{"element": "S", "occu": 1}], "abc": [0.2556003, 0.93662533, 0.03930408], "xyz": [1.6000453535853, 12.230355213480351, 1.91177977204368], "label": "S", "properties": {}}, {"species": [{"element": "S", "occu": 1}], "abc": [0.23391525, 0.43534857, 0.04234976000000001], "xyz": [1.46429800315275, 5.68473591546015, 2.05992391932096], "label": "S", "properties": {}}, {"species": [{"element": "S", "occu": 1}], "abc": [0.82804362, 0.10822798, 0.039745880000000004], "xyz": [5.18351248706262, 1.4132295989021, 1.9332692536264802], "label": "S", "properties": {}}, {"species": [{"element": "S", "occu": 1}], "abc": [0.67081453, 0.59447566, 0.045678680000000006], "xyz": [4.19926608788803, 7.7626007483357, 2.2218450714952804], "label": "S", "properties": {}}, {"species": [{"element": "S", "occu": 1}], "abc": [0.2909852, 0.15323087, 0.17315707], "xyz": [1.8215530937252, 2.00087261121865, 8.42248905997422], "label": "S", "properties": {}}, {"species": [{"element": "S", "occu": 1}], "abc": [0.74157932, 0.84735839, 0.16039076000000002], "xyz": [4.64225020581332, 11.06471688398905, 7.801526217906961], "label": "S", "properties": {}}, {"species": [{"element": "S", "occu": 1}], "abc": [0.79257029, 0.35221856, 0.16113794], "xyz": [4.96145117945579, 4.5992329735312, 7.83786961050324], "label": "S", "properties": {}}, {"species": [{"element": "S", "occu": 1}], "abc": [0.2417174, 0.65643197, 0.17282924000000002], "xyz": [1.5131390798474, 8.57161973890315, 8.40654316421304], "label": "S", "properties": {}}, {"species": [{"element": "S", "occu": 1}], "abc": [0.22347705, 0.65482976, 0.24415934000000003], "xyz": [1.39895538262455, 8.5506982489552, 11.876092440467641], "label": "S", "properties": {}}, {"species": [{"element": "S", "occu": 1}], "abc": [0.77308151, 0.34540612, 0.25714075999999997], "xyz": [4.8394523716060105, 4.5102768473173995, 12.507518393406958], "label": "S", "properties": {}}, {"species": [{"element": "S", "occu": 1}], "abc": [0.72357517, 0.84631066, 0.25707410999999997], "xyz": [4.52954510901667, 11.051035735660701, 12.504276487686058], "label": "S", "properties": {}}, {"species": [{"element": "S", "occu": 1}], "abc": [0.27001181, 0.15398965, 0.24416781], "xyz": [1.6902607000213101, 2.01078068078675, 11.87650442758626], "label": "S", "properties": {}}, {"species": [{"element": "S", "occu": 1}], "abc": [0.72872749, 0.06292745, 0.12494000000000002], "xyz": [4.56179837975299, 0.82170003471775, 6.077174805240001], "label": "S", "properties": {}}, {"species": [{"element": "S", "occu": 1}], "abc": [0.27697185, 0.93959614, 0.20874905000000002], "xyz": [1.73383020937935, 12.2691477385253, 10.1537095187913], "label": "S", "properties": {}}, {"species": [{"element": "S", "occu": 1}], "abc": [0.23169338, 0.44170426, 0.20822538], "xyz": [1.4503892058243801, 5.7677278481327, 10.12823781933348], "label": "S", "properties": {}}, {"species": [{"element": "S", "occu": 1}], "abc": [0.77556288, 0.56281179, 0.12397367000000001], "xyz": [4.8549856262188795, 7.349137258582051, 6.0301717931578205], "label": "S", "properties": {}}, {"species": [{"element": "S", "occu": 1}], "abc": [0.83671204, 0.10503381, 0.20715569000000003], "xyz": [5.23777637151004, 1.3715204624299502, 10.076207299744741], "label": "S", "properties": {}}, {"species": [{"element": "S", "occu": 1}], "abc": [0.16767266, 0.90021436, 0.12237592], "xyz": [1.04962263563966, 11.7549045903722, 5.95245604123632], "label": "S", "properties": {}}, {"species": [{"element": "S", "occu": 1}], "abc": [0.33813846, 0.39901756, 0.12696117], "xyz": [2.11673019081546, 5.2103294016362, 6.17548602183282], "label": "S", "properties": {}}, {"species": [{"element": "S", "occu": 1}], "abc": [0.67367411, 0.60299761, 0.21008977000000004], "xyz": [4.21716691856861, 7.8738794766309494, 10.218923139768421], "label": "S", "properties": {}}, {"species": [{"element": "S", "occu": 1}], "abc": [0.25766512, 0.15225186, 0.34045556], "xyz": [1.61297102560912, 1.9880888014346998, 16.56001241824776], "label": "S", "properties": {}}, {"species": [{"element": "S", "occu": 1}], "abc": [0.7159755, 0.84791077, 0.32807659], "xyz": [4.4819715472005, 11.07192980402915, 15.95789008273614], "label": "S", "properties": {}}, {"species": [{"element": "S", "occu": 1}], "abc": [0.75426352, 0.34392193, 0.32854424], "xyz": [4.72165267628752, 4.49089645013735, 15.98063692760304], "label": "S", "properties": {}}, {"species": [{"element": "S", "occu": 1}], "abc": [0.21261236, 0.64824079, 0.33966678], "xyz": [1.33094295559436, 8.46466017053705, 16.52164557061788], "label": "S", "properties": {}}, {"species": [{"element": "S", "occu": 1}], "abc": [0.22873048, 0.65709483, 0.41056148], "xyz": [1.4318415970064802, 8.580275295182851, 19.97001666606408], "label": "S", "properties": {}}, {"species": [{"element": "S", "occu": 1}], "abc": [0.81104055, 0.34148966, 0.43187707], "xyz": [5.07707410201305, 4.4591361238657, 21.006822865094218], "label": "S", "properties": {}}, {"species": [{"element": "S", "occu": 1}], "abc": [0.72802774, 0.84184146, 0.42891956999999997], "xyz": [4.55741797904074, 10.992677391326701, 20.86296785879922], "label": "S", "properties": {}}, {"species": [{"element": "S", "occu": 1}], "abc": [0.29132822, 0.15177421, 0.41150135], "xyz": [1.8237003821172202, 1.98185169788795, 20.015732644007098], "label": "S", "properties": {}}, {"species": [{"element": "S", "occu": 1}], "abc": [0.72177929, 0.0606187, 0.29221873], "xyz": [4.518302988214789, 0.7915526196365, 14.213737022372579], "label": "S", "properties": {}}, {"species": [{"element": "S", "occu": 1}], "abc": [0.27364931, 0.93708686, 0.37604971], "xyz": [1.7130312717838099, 12.2363818237597, 18.29133842748366], "label": "S", "properties": {}}, {"species": [{"element": "S", "occu": 1}], "abc": [0.22582362, 0.43787071, 0.37695344999999997], "xyz": [1.41364479584262, 5.71766975475545, 18.3352970152737], "label": "S", "properties": {}}, {"species": [{"element": "S", "occu": 1}], "abc": [0.76684026, 0.55828821, 0.29302888], "xyz": [4.80038245242726, 7.29006882591795, 14.25314332274448], "label": "S", "properties": {}}, {"species": [{"element": "S", "occu": 1}], "abc": [0.83268409, 0.09905227, 0.37855096], "xyz": [5.21256160187959, 1.29341414117165, 18.41300109341616], "label": "S", "properties": {}}, {"species": [{"element": "S", "occu": 1}], "abc": [0.16471358, 0.8958901, 0.29293853], "xyz": [1.03109893983458, 11.6984388573395, 14.248748631343378], "label": "S", "properties": {}}, {"species": [{"element": "S", "occu": 1}], "abc": [0.32293757, 0.39755403, 0.29122739], "xyz": [2.02157336425907, 5.19121878056685, 14.16551750523294], "label": "S", "properties": {}}, {"species": [{"element": "S", "occu": 1}], "abc": [0.66413929, 0.60164352, 0.37443804999999997], "xyz": [4.157479412574791, 7.8561979115904, 18.212946082785297], "label": "S", "properties": {}}, {"species": [{"element": "S", "occu": 1}], "abc": [0.72287647, 0.86086375, 0.50007756], "xyz": [4.52517128125297, 11.24106845680625, 24.324145576259763], "label": "S", "properties": {}}, {"species": [{"element": "S", "occu": 1}], "abc": [0.72557086, 0.35862088, 0.5009481800000001], "xyz": [4.54203803062786, 4.6828337958476, 24.366493182542285], "label": "S", "properties": {}}, {"species": [{"element": "S", "occu": 1}], "abc": [0.74734396, 0.06376914, 0.46173647999999995], "xyz": [4.6783365697459605, 0.8326907343603001, 22.459206842614076], "label": "S", "properties": {}}, {"species": [{"element": "S", "occu": 1}], "abc": [0.76270329, 0.56409106, 0.45880156999999994], "xyz": [4.77448522293879, 7.3658418319187, 22.316450630771218], "label": "S", "properties": {}}, {"species": [{"element": "S", "occu": 1}], "abc": [0.1734279, 0.89111312, 0.4616088], "xyz": [1.0856501560329, 11.6360615540824, 22.4529963921648], "label": "S", "properties": {}}, {"species": [{"element": "S", "occu": 1}], "abc": [0.32674767, 0.40356227, 0.45538149], "xyz": [2.0454244035641698, 5.26967374762165, 22.15009538819154], "label": "S", "properties": {}}]}, "formula": "(Li3PS4)12.0", "bandgap": 2.7209, "slab_thickness": 24.361629107942285}