{"miller": "011_0.25", "final_energy": -417.82363425, "gamma": 0.022557218555879572, "work_function": "Not calculated", "ionization_potentail": "Not calculated", "electron_affinity": "Not calculated", "is_stochiometric": true, "incar_parameters": {"SYSTEM": "unknown system", "LCOMPAT": false, "PREC": "normal", "ENMAX": 520.0, "ENAUG": 628.945, "EDIFF": 1e-05, "IALGO": 38, "IWAVPR": 11, "NBANDS": 278, "NBANDSLOW": -1, "NBANDSHIGH": -1, "NELECT": 456.0, "TURBO": 0, "IRESTART": 0, "NREBOOT": 0, "NMIN": 0, "EREF": 0.0, "ISMEAR": 0, "SIGMA": 0.05, "KSPACING": 0.5, "KGAMMA": true, "KBLOWUP": true, "LREAL": true, "ROPT": [-0.0005, -0.0005, -0.0005], "LMAXPAW": -100, "LMAXMIX": 2, "NLSPLINE": false, "ISTART": 0, "ICHARG": 2, "INIWAV": 1, "ISPIN": 1, "LNONCOLLINEAR": false, "MAGMOM": [0.6, 0.6, 0.6, 0.6, 0.6, 0.6, 0.6, 0.6, 0.6, 0.6, 0.6, 0.6, 0.6, 0.6, 0.6, 0.6, 0.6, 0.6, 0.6, 0.6, 0.6, 0.6, 0.6, 0.6, 0.6, 0.6, 0.6, 0.6, 0.6, 0.6, 0.6, 0.6, 0.6, 0.6, 0.6, 0.6, 0.6, 0.6, 0.6, 0.6, 0.6, 0.6, 0.6, 0.6, 0.6, 0.6, 0.6, 0.6, 0.6, 0.6, 0.6, 0.6, 0.6, 0.6, 0.6, 0.6, 0.6, 0.6, 0.6, 0.6, 0.6, 0.6, 0.6, 0.6, 0.6, 0.6, 0.6, 0.6, 0.6, 0.6, 0.6, 0.6, 0.6, 0.6, 0.6, 0.6, 0.6, 0.6, 0.6, 0.6, 0.6, 0.6, 0.6, 0.6, 0.6, 0.6, 0.6, 0.6, 0.6, 0.6, 0.6, 0.6, 0.6, 0.6, 0.6, 0.6], "NUPDOWN": -1.0, "LSORBIT": false, "SAXIS": [0.0, 0.0, 1.0], "LSPIRAL": false, "QSPIRAL": [0.0, 0.0, 0.0], "LZEROZ": false, "LASPH": false, "LMETAGGA": false, "NELM": 100, "NELMDL": -5, "NELMIN": 6, "ENINI": 520.0, "LDIAG": true, "LSUBROT": false, "WEIMIN": 0.001, "EBREAK": 1e-08, "DEPER": 0.3, "NRMM": 4, "TIME": 0.4, "AMIX": 0.4, "BMIX": 1.0, "AMIN": 0.1, "AMIX_MAG": 1.6, "BMIX_MAG": 1.0, "IMIX": 4, "MIXFIRST": false, "MAXMIX": -45, "WC": 100.0, "INIMIX": 1, "MIXPRE": 1, "MREMOVE": 5, "LDIPOL": false, "LMONO": false, "IDIPOL": 0, "EPSILON": 1.0, "DIPOL": [-100.0, -100.0, -100.0], "EFIELD": 0.0, "NGX": 36, "NGY": 90, "NGZ": 270, "NGXF": 72, "NGYF": 180, "NGZF": 540, "ADDGRID": false, "NSW": 150, "IBRION": 2, "MDALGO": 0, "ISIF": 2, "PSTRESS": 0.0, "EDIFFG": -0.01, "NFREE": 1, "POTIM": 0.5, "SMASS": -3.0, "SCALEE": 1.0, "TEBEG": 0.0001, "TEEND": 0.0001, "NBLOCK": 1, "KBLOCK": 150, "NPACO": 256, "APACO": 10.0, "ISYM": 0, "SYMPREC": 1e-05, "LORBIT": 11, "RWIGS": [-1.0, -1.0, -1.0], "NEDOS": 301, "EMIN": 10.0, "EMAX": -10.0, "EFERMI": 0.0, "NWRITE": 2, "LWAVE": false, "LDOWNSAMPLE": false, "LCHARG": false, "LPARD": false, "LVTOT": false, "LVHAR": false, "LELF": false, "LOPTICS": false, "STM": [0.0, 0.0, 0.0, 0.0, 0.0, 0.0, 0.0], "NPAR": 2, "NSIM": 4, "NBLK": -1, "LPLANE": true, "LSCALAPACK": true, "LSCAAWARE": false, "LSCALU": false, "LASYNC": false, "LORBITALREAL": false, "IDIOT": 3, "PHON_NSTRUCT": -1, "LMUSIC": false, "POMASS": [7.01, 30.974, 32.066], "DARWINR": [0.0, 0.0, 0.0], "DARWINV": [1.0, 1.0, 1.0], "LCORR": true, "GGA_COMPAT": true, "LBERRY": false, "ICORELEVEL": 0, "LDAU": false, "I_CONSTRAINED_M": 0, "GGA": "--", "VOSKOWN": 0, "LHFCALC": false, "PRECFOCK": "", "LSYMGRAD": false, "LHFONE": false, "LRHFCALC": false, "LTHOMAS": false, "LMODELHF": false, "LFOCKACE": false, "ENCUT4O": -1.0, "EXXOEP": 0, "FOURORBIT": 0, "AEXX": 0.0, "HFALPHA": 0.0, "MCALPHA": 0.0, "ALDAX": 1.0, "AGGAX": 1.0, "ALDAC": 1.0, "AGGAC": 1.0, "NKREDX": 1, "NKREDY": 1, "NKREDZ": 1, "SHIFTRED": false, "ODDONLY": false, "EVENONLY": false, "LMAXFOCK": 0, "NMAXFOCKAE": 0, "LFOCKAEDFT": false, "HFSCREEN": 0.0, "HFSCREENC": 0.0, "NBANDSGWLOW": 0, "LUSE_VDW": false, "Zab_VDW": -0.8491, "PARAM1": 0.1234, "PARAM2": 1.0, "PARAM3": 0.0, "MODEL_GW": 0, "MODEL_EPS0": 28.99152862, "MODEL_ALPHA": 1.0, "LEPSILON": false, "LRPA": false, "LNABLA": false, "LVEL": false, "CSHIFT": 0.1, "OMEGAMAX": -1.0, "DEG_THRESHOLD": 0.002, "RTIME": -0.1, "WPLASMAI": 0.0, "DFIELD": [0.0, 0.0, 0.0], "WPLASMA": [0.0, 0.0, 0.0, 0.0, 0.0, 0.0, 0.0, 0.0, 0.0], "NUCIND": false, "MAGPOS": [0.0, 0.0, 0.0], "LNICSALL": true, "ORBITALMAG": false, "LMAGBLOCH": false, "LCHIMAG": false, "LGAUGE": true, "MAGATOM": 0, "MAGDIPOL": [0.0, 0.0, 0.0], "AVECCONST": [0.0, 0.0, 0.0], "LFINITE_TEMPERATURE": false, "LADDER": false, "LRPAFORCE": false, "LFXC": false, "LHARTREE": true, "IBSE": 0, "KPOINT": [-1, 0, 0, 0], "LTCTC": false, "LTCTE": false, "LTETE": false, "LTRIPLET": false, "LFXCEPS": false, "LFXHEG": false, "NATURALO": 2, "LHOLEGF": false, "L2ORDER": false, "LDMP1": false, "LMP2LT": false, "LSMP2LT": false, "LGWLF": false, "ENCUTGW": -2.0, "ENCUTGWSOFT": -2.0, "ENCUTLF": -1.0, "LESF_SPLINES": false, "LMAXMP2": -1, "SCISSOR": 0.0, "NOMEGA": 0, "NOMEGAR": 0, "NBANDSGW": -1, "NBANDSO": -1, "NBANDSV": -1, "NELMGW": 1, "NELMHF": 1, "DIM": 3, "IESPILON": 4, "ANTIRES": 0, "OMEGAMIN": -30.0, "OMEGATL": -200.0, "OMEGAGRID": 0, "LSELFENERGY": false, "LSPECTRAL": false, "LSPECTRALGW": false, "LSINGLES": false, "LFERMIGW": false, "ODDONLYGW": false, "EVENONLYGW": false, "NKREDLFX": 1, "NKREDLFY": 1, "NKREDLFZ": 1, "MAXMEM": 2800, "TELESCOPE": 0, "NTAUPAR": -1, "NOMEGAPAR": -1, "DAMP_NEWTON": 0.80000001, "LAMBDA": 1.0, "OFIELD_KAPPA": 0.0, "OFIELD_K": [0.0, 0.0, 0.0], "OFIELD_Q6_NEAR": 0.0, "OFIELD_Q6_FAR": 0.0, "OFIELD_A": 0.0, "KPOINTS_OPT_MODE": 1, "LKPOINTS_OPT": false, "@module": "pymatgen.io.vasp.inputs", "@class": "Incar"}, "relaxed_structures": {"@module": "pymatgen.core.structure", "@class": "Structure", "charge": 0, "lattice": {"matrix": [[6.259951, 0.0, 0.0], [0.0, 15.369732, 0.0], [0.0, 0.0, 48.211858]], "a": 6.259951, "b": 15.369732, "c": 48.211858, "alpha": 90.0, "beta": 90.0, "gamma": 90.0, "volume": 4638.644578466173}, "sites": [{"species": [{"element": "Li", "occu": 1}], "abc": [0.92519467, 0.90794888, 0.11724670999999999], "xyz": [5.79167329966117, 13.95493095530016, 5.65268173348718], "label": "Li", "properties": {}}, {"species": [{"element": "Li", "occu": 1}], "abc": [0.09214197, 0.72552202, 0.06529646], "xyz": [0.57680421724347, 11.151079007498641, 3.14806365742268], "label": "Li", "properties": {}}, {"species": [{"element": "Li", "occu": 1}], "abc": [0.37817003, 0.27686153, 9.99999999999994e-05], "xyz": [2.36732585746853, 4.25528751720996, 0.004821185799999971], "label": "Li", "properties": {}}, {"species": [{"element": "Li", "occu": 1}], "abc": [0.5677605, 0.53971678, 0.07877089], "xyz": [3.5541529097355, 8.295302264502961, 3.7976909632136198], "label": "Li", "properties": {}}, {"species": [{"element": "Li", "occu": 1}], "abc": [0.64833578, 0.39665114, 0.11152685999999999], "xyz": [4.05855021434678, 6.09642171929448, 5.376917137505879], "label": "Li", "properties": {}}, {"species": [{"element": "Li", "occu": 1}], "abc": [0.3841405, 0.16270028, 0.07299147], "xyz": [2.4047007071155, 2.50065969992496, 3.51905438685126], "label": "Li", "properties": {}}, {"species": [{"element": "Li", "occu": 1}], "abc": [0.87833235, 0.08061388, 0.04578555], "xyz": [5.49831747271485, 1.23901373108016, 2.2074064350519], "label": "Li", "properties": {}}, {"species": [{"element": "Li", "occu": 1}], "abc": [0.55385739, 0.82711162, 0.07612562], "xyz": [3.46712012238789, 12.712483933485842, 3.67015758160196], "label": "Li", "properties": {}}, {"species": [{"element": "Li", "occu": 1}], "abc": [0.05835056, 0.30559229, 0.08600305], "xyz": [0.36527164642256, 4.69687159856628, 4.1463668341668996], "label": "Li", "properties": {}}, {"species": [{"element": "Li", "occu": 1}], "abc": [0.8915551, 0.62382905, 0.2618144], "xyz": [5.5810912398001005, 9.5880853123146, 12.6225586751552], "label": "Li", "properties": {}}, {"species": [{"element": "Li", "occu": 1}], "abc": [0.10555087, 0.40407402, 0.20762481], "xyz": [0.66074327420737, 6.21050939556264, 10.00997785699698], "label": "Li", "properties": {}}, {"species": [{"element": "Li", "occu": 1}], "abc": [0.39169711, 0.04288368, 0.1345153], "xyz": [2.45200471544161, 0.65911066877376, 6.4852325424274], "label": "Li", "properties": {}}, {"species": [{"element": "Li", "occu": 1}], "abc": [0.58331101, 0.25995821, 0.195533], "xyz": [3.6514983403605097, 3.9954880188997204, 9.427009230314], "label": "Li", "properties": {}}, {"species": [{"element": "Li", "occu": 1}], "abc": [0.60676085, 0.14113225, 0.25432228], "xyz": [3.79829318971835, 2.169164859057, 12.26134964959624], "label": "Li", "properties": {}}, {"species": [{"element": "Li", "occu": 1}], "abc": [0.39356798, 0.88431802, 0.21518707999999998], "xyz": [2.46371626996898, 13.59173097017064, 10.374568944394639], "label": "Li", "properties": {}}, {"species": [{"element": "Li", "occu": 1}], "abc": [0.10285962, 0.5272834, 0.14216624], "xyz": [0.64389618107862, 8.1042045460488, 6.85409857527392], "label": "Li", "properties": {}}, {"species": [{"element": "Li", "occu": 1}], "abc": [0.90778453, 0.78452907, 0.18046685], "xyz": [5.68268667635803, 12.058001552109241, 8.7006421459073], "label": "Li", "properties": {}}, {"species": [{"element": "Li", "occu": 1}], "abc": [0.49994896, 0.51220334, 0.23471229], "xyz": [3.12965599210096, 7.872428065304881, 11.31591559633482], "label": "Li", "properties": {}}, {"species": [{"element": "Li", "occu": 1}], "abc": [0.9536156, 0.16397115, 0.16052246999999997], "xyz": [5.9695869288356, 2.5201926312318004, 7.739086529449259], "label": "Li", "properties": {}}, {"species": [{"element": "Li", "occu": 1}], "abc": [0.99985664, 0.01211994, 0.23469635], "xyz": [6.25905357342464, 0.18628022965608, 11.315147099318299], "label": "Li", "properties": {}}, {"species": [{"element": "Li", "occu": 1}], "abc": [0.53096559, 0.65333537, 0.16386109999999998], "xyz": [3.32381857608609, 10.04158954302084, 7.900048084923799], "label": "Li", "properties": {}}, {"species": [{"element": "Li", "occu": 1}], "abc": [0.91359929, 0.30123601, 0.40491887], "xyz": [5.719086789034789, 4.62991674244932, 19.52189106196046], "label": "Li", "properties": {}}, {"species": [{"element": "Li", "occu": 1}], "abc": [0.07476099, 0.11899303, 0.3521169], "xyz": [0.46800013411149, 1.82889098096796, 16.9762099822002], "label": "Li", "properties": {}}, {"species": [{"element": "Li", "occu": 1}], "abc": [0.41642091, 0.76622025, 0.27362885000000003], "xyz": [2.60677449197541, 11.776599895473002, 13.192155260903302], "label": "Li", "properties": {}}, {"species": [{"element": "Li", "occu": 1}], "abc": [0.60791385, 0.98605272, 0.33517658], "xyz": [3.80551091322135, 15.155366044271041, 16.15948567988564], "label": "Li", "properties": {}}, {"species": [{"element": "Li", "occu": 1}], "abc": [0.61320833, 0.8627919, 0.39642343], "xyz": [3.83865409859183, 13.2608802747708, 19.11231011503294], "label": "Li", "properties": {}}, {"species": [{"element": "Li", "occu": 1}], "abc": [0.34859117, 0.62845353, 0.35733697000000003], "xyz": [2.18216364323267, 9.659162330553961, 17.22787925579026], "label": "Li", "properties": {}}, {"species": [{"element": "Li", "occu": 1}], "abc": [0.09168359, 0.24012811, 0.28882693000000004], "xyz": [0.57393478090409, 3.69070469636652, 13.924882935735942], "label": "Li", "properties": {}}, {"species": [{"element": "Li", "occu": 1}], "abc": [0.89441424, 0.49930608, 0.32721146], "xyz": [5.59898931610224, 7.6742006355705605, 15.77547244549268], "label": "Li", "properties": {}}, {"species": [{"element": "Li", "occu": 1}], "abc": [0.44448265, 0.20080457, 0.39382083], "xyz": [2.78243960935015, 3.08631242527524, 18.98683393340214], "label": "Li", "properties": {}}, {"species": [{"element": "Li", "occu": 1}], "abc": [0.05088485, 0.86117764, 0.30951234], "xyz": [0.31853666764235, 13.23606953119248, 14.92216498532772], "label": "Li", "properties": {}}, {"species": [{"element": "Li", "occu": 1}], "abc": [0.94419342, 0.72173291, 0.38299434], "xyz": [5.91060454372242, 11.09284140228012, 18.46486873488372], "label": "Li", "properties": {}}, {"species": [{"element": "Li", "occu": 1}], "abc": [0.46270615, 0.37349884, 0.30473157], "xyz": [2.8965178263986497, 5.74057707311088, 14.691675180957061], "label": "Li", "properties": {}}, {"species": [{"element": "Li", "occu": 1}], "abc": [0.44364781, 0.48756793, 0.3900618], "xyz": [2.77721355185731, 7.49378841589476, 18.8056041128244], "label": "Li", "properties": {}}, {"species": [{"element": "Li", "occu": 1}], "abc": [0.6244491, 0.74438317, 0.46947271], "xyz": [3.9090207679941, 11.44096982821044, 22.63415162939518], "label": "Li", "properties": {}}, {"species": [{"element": "Li", "occu": 1}], "abc": [0.12119329, 0.94733223, 0.42359062000000003], "xyz": [0.75866405692879, 14.560242490062361, 20.42209082157196], "label": "Li", "properties": {}}, {"species": [{"element": "P", "occu": 1}], "abc": [0.16870877, 0.93731822, 0.06293616], "xyz": [1.05610863347027, 14.40632984011704, 3.0342692089852803], "label": "P", "properties": {}}, {"species": [{"element": "P", "occu": 1}], "abc": [0.84454082, 0.66471615, 0.1113244], "xyz": [5.28678415069982, 10.2165090815718, 5.3671561647352], "label": "P", "properties": {}}, {"species": [{"element": "P", "occu": 1}], "abc": [0.65067642, 0.30313384, 0.04596675], "xyz": [4.07320250605542, 4.65908588093088, 2.2161424237215], "label": "P", "properties": {}}, {"species": [{"element": "P", "occu": 1}], "abc": [0.16081879, 0.64662112, 0.20991151000000002], "xyz": [1.00671774527929, 9.938393319939841, 10.120223912685582], "label": "P", "properties": {}}, {"species": [{"element": "P", "occu": 1}], "abc": [0.83938893, 0.37903399, 0.25954764], "xyz": [5.254533571742431, 5.8256508451906805, 12.513273963915122], "label": "P", "properties": {}}, {"species": [{"element": "P", "occu": 1}], "abc": [0.65681339, 0.01523251, 0.18595518], "xyz": [4.111619637543891, 0.23411959638732, 8.96524473252444], "label": "P", "properties": {}}, {"species": [{"element": "P", "occu": 1}], "abc": [0.34388272, 0.28644809, 0.14241814000000003], "xyz": [2.15268897694672, 4.4026303752118805, 6.866243142304121], "label": "P", "properties": {}}, {"species": [{"element": "P", "occu": 1}], "abc": [0.15585204, 0.36270298, 0.35806540000000003], "xyz": [0.97562613365004, 5.57464759820136, 17.2629982195132], "label": "P", "properties": {}}, {"species": [{"element": "P", "occu": 1}], "abc": [0.83029041, 0.0901388, 0.40632107], "xyz": [5.1975772823699105, 1.3854091988016002, 19.58949372924806], "label": "P", "properties": {}}, {"species": [{"element": "P", "occu": 1}], "abc": [0.65474699, 0.74084955, 0.32705039], "xyz": [4.09868407479749, 11.3866590358206, 15.76770696152462], "label": "P", "properties": {}}, {"species": [{"element": "P", "occu": 1}], "abc": [0.34267118, 0.01050426, 0.28343347], "xyz": [2.14510479591218, 0.16144766105832, 13.664854208087261], "label": "P", "properties": {}}, {"species": [{"element": "P", "occu": 1}], "abc": [0.35030938, 0.72107805, 0.42354955], "xyz": [2.19291955364038, 11.0827763795826, 20.4201107605639], "label": "P", "properties": {}}, {"species": [{"element": "S", "occu": 1}], "abc": [0.25310559, 0.04978477, 0.04276498], "xyz": [1.58442859122609, 0.76517857258164, 2.06177914313284], "label": "S", "properties": {}}, {"species": [{"element": "S", "occu": 1}], "abc": [0.75990911, 0.20442781, 0.07137421], "xyz": [4.756993793053611, 3.14200065304692, 3.44108327738218], "label": "S", "properties": {}}, {"species": [{"element": "S", "occu": 1}], "abc": [0.25433644, 0.3960556, 0.12022897], "xyz": [1.59213365191444, 6.0872684290992005, 5.7964620291262605], "label": "S", "properties": {}}, {"species": [{"element": "S", "occu": 1}], "abc": [0.74564913, 0.28978726, 0.005856609999999998], "xyz": [4.66772701699263, 4.45395252321432, 0.2823580496813799], "label": "S", "properties": {}}, {"species": [{"element": "S", "occu": 1}], "abc": [0.72529869, 0.67984262, 0.07148214], "xyz": [4.54033425976419, 10.44899887157784, 3.44628678321612], "label": "S", "properties": {}}, {"species": [{"element": "S", "occu": 1}], "abc": [0.30195937, 0.92296362, 0.10218645], "xyz": [1.89025086019087, 14.18570348514984, 4.9265986169241], "label": "S", "properties": {}}, {"species": [{"element": "S", "occu": 1}], "abc": [0.27209638, 0.83331085, 0.040055679999999996], "xyz": [1.7033100060773803, 12.807764437192201, 1.9311587562534398], "label": "S", "properties": {}}, {"species": [{"element": "S", "occu": 1}], "abc": [0.22450872, 0.18214551, 0.11986696000000001], "xyz": [1.40541358627272, 2.79952767370332, 5.77900885441168], "label": "S", "properties": {}}, {"species": [{"element": "S", "occu": 1}], "abc": [0.7759206, 0.41455246, 0.064289], "xyz": [4.8572249358906, 6.3715602101407205, 3.099492138962], "label": "S", "properties": {}}, {"species": [{"element": "S", "occu": 1}], "abc": [0.84037245, 0.94240506, 0.06863611], "xyz": [5.26069035874995, 14.484513207643921, 3.30907438899238], "label": "S", "properties": {}}, {"species": [{"element": "S", "occu": 1}], "abc": [0.16847107, 0.65112379, 0.10927674999999999], "xyz": [1.05462064311757, 10.00759815112428, 5.2684351537015], "label": "S", "properties": {}}, {"species": [{"element": "S", "occu": 1}], "abc": [0.31917188, 0.30093297, 0.04610739], "xyz": [1.99800032937788, 4.62525909886404, 2.22292293943062], "label": "S", "properties": {}}, {"species": [{"element": "S", "occu": 1}], "abc": [0.28384856, 0.75192772, 0.18904870000000001], "xyz": [1.77687807702056, 11.55692753977104, 9.114389079484601], "label": "S", "properties": {}}, {"species": [{"element": "S", "occu": 1}], "abc": [0.71000246, 0.55492569, 0.12945409000000002], "xyz": [4.44458060947946, 8.52905913521508, 6.241222204599221], "label": "S", "properties": {}}, {"species": [{"element": "S", "occu": 1}], "abc": [0.77608664, 0.90945403, 0.20715699999999998], "xyz": [4.85826433815464, 13.97806470741996, 9.987423867706], "label": "S", "properties": {}}, {"species": [{"element": "S", "occu": 1}], "abc": [0.22352782, 0.11586992, 0.26201221], "xyz": [1.39927320033682, 1.7808896172614401, 12.63209546278618], "label": "S", "properties": {}}, {"species": [{"element": "S", "occu": 1}], "abc": [0.20725143, 0.27490613, 0.18092122], "xyz": [1.29738379647993, 4.22523354325716, 8.72254816782676], "label": "S", "properties": {}}, {"species": [{"element": "S", "occu": 1}], "abc": [0.77432981, 0.02858701, 0.14626946000000002], "xyz": [4.84726666843931, 0.43937468238132, 7.051922435256681], "label": "S", "properties": {}}, {"species": [{"element": "S", "occu": 1}], "abc": [0.72669953, 0.39068979, 0.21956727999999998], "xyz": [4.54910344952303, 6.0047973674362805, 10.585746524806238], "label": "S", "properties": {}}, {"species": [{"element": "S", "occu": 1}], "abc": [0.27285963, 0.63471995, 0.24990078], "xyz": [1.7080879136781302, 9.7554755265534, 12.048180919449239], "label": "S", "properties": {}}, {"species": [{"element": "S", "occu": 1}], "abc": [0.7429007, 0.76963447, 0.13434098], "xyz": [4.6505219798657, 11.82907554186204, 6.47682825134084], "label": "S", "properties": {}}, {"species": [{"element": "S", "occu": 1}], "abc": [0.27578295, 0.53782568, 0.18872964999999997], "xyz": [1.7263877536354502, 8.26623656431776, 9.0990070861897], "label": "S", "properties": {}}, {"species": [{"element": "S", "occu": 1}], "abc": [0.22797168, 0.90201532, 0.26171217], "xyz": [1.42709154618768, 13.86373372829424, 12.61762997691186], "label": "S", "properties": {}}, {"species": [{"element": "S", "occu": 1}], "abc": [0.7717018, 0.12347561, 0.20778205], "xyz": [4.8308154546118, 1.8977870342365202, 10.017558689548899], "label": "S", "properties": {}}, {"species": [{"element": "S", "occu": 1}], "abc": [0.8346928, 0.65526782, 0.21107198], "xyz": [5.2251360280528, 10.07129078162424, 10.17617232753884], "label": "S", "properties": {}}, {"species": [{"element": "S", "occu": 1}], "abc": [0.16560336, 0.36978297, 0.25818672000000004], "xyz": [1.03666891903536, 5.68346514706404, 12.447661482125762], "label": "S", "properties": {}}, {"species": [{"element": "S", "occu": 1}], "abc": [0.33244796, 0.007673, 0.18414799999999998], "xyz": [2.08110793964996, 0.11793195363600001, 8.878117226984], "label": "S", "properties": {}}, {"species": [{"element": "S", "occu": 1}], "abc": [0.66926516, 0.29071972, 0.14704931], "xyz": [4.18956710760716, 4.46828418351504, 7.089520452717979], "label": "S", "properties": {}}, {"species": [{"element": "S", "occu": 1}], "abc": [0.28879458, 0.47197802, 0.33947023000000004], "xyz": [1.8078399198655801, 7.2541756772906405, 16.36649052398734], "label": "S", "properties": {}}, {"species": [{"element": "S", "occu": 1}], "abc": [0.71550843, 0.27415427, 0.28047798], "xyz": [4.47904771188693, 4.21367765655564, 13.522364543886841], "label": "S", "properties": {}}, {"species": [{"element": "S", "occu": 1}], "abc": [0.74509667, 0.63107734, 0.34909885], "xyz": [4.66426864446317, 9.69948958707288, 16.830704184163302], "label": "S", "properties": {}}, {"species": [{"element": "S", "occu": 1}], "abc": [0.23850635, 0.82133486, 0.39883224], "xyz": [1.49303806418885, 12.62369668045752, 19.22844332070192], "label": "S", "properties": {}}, {"species": [{"element": "S", "occu": 1}], "abc": [0.22447689, 0.99802377, 0.32311893], "xyz": [1.40521433203239, 15.339357874529641, 15.578163970271941], "label": "S", "properties": {}}, {"species": [{"element": "S", "occu": 1}], "abc": [0.79129172, 0.75287586, 0.28855299], "xyz": [4.95344739390572, 11.57150019746952, 13.91167577935542], "label": "S", "properties": {}}, {"species": [{"element": "S", "occu": 1}], "abc": [0.69730796, 0.10616057, 0.36715678], "xyz": [4.36511366150996, 1.63165950986724, 17.70131054109724], "label": "S", "properties": {}}, {"species": [{"element": "S", "occu": 1}], "abc": [0.2786216, 0.34824346, 0.39776315], "xyz": [1.7441575635416002, 5.352408650952721, 19.1769005054327], "label": "S", "properties": {}}, {"species": [{"element": "S", "occu": 1}], "abc": [0.72554671, 0.48828169, 0.28059063], "xyz": [4.54188685281121, 7.50475871580708, 13.527795609690541], "label": "S", "properties": {}}, {"species": [{"element": "S", "occu": 1}], "abc": [0.25552355, 0.25750144, 0.3349853], "xyz": [1.5995649023460499, 3.9577281224140806, 16.150263715687398], "label": "S", "properties": {}}, {"species": [{"element": "S", "occu": 1}], "abc": [0.22537543, 0.61058096, 0.4046688], "xyz": [1.41083914840393, 9.38446571950272, 19.509834722630398], "label": "S", "properties": {}}, {"species": [{"element": "S", "occu": 1}], "abc": [0.77345806, 0.84505194, 0.34968206], "xyz": [4.841809556155059, 12.98822184388008, 16.85882182186748], "label": "S", "properties": {}}, {"species": [{"element": "S", "occu": 1}], "abc": [0.83227768, 0.37616345, 0.36065358000000003], "xyz": [5.21001749519368, 5.781531414695401, 17.38777918615164], "label": "S", "properties": {}}, {"species": [{"element": "S", "occu": 1}], "abc": [0.1588543, 0.08514886, 0.40064910000000004], "xyz": [0.9944201341393001, 1.30871515830552, 19.3160375170278], "label": "S", "properties": {}}, {"species": [{"element": "S", "occu": 1}], "abc": [0.32927756, 0.7358673, 0.32235233], "xyz": [2.0612613909995603, 11.3100831885636, 15.54120475992914], "label": "S", "properties": {}}, {"species": [{"element": "S", "occu": 1}], "abc": [0.66688049, 0.0181884, 0.28532643], "xyz": [4.1746391902559905, 0.2795508335088, 13.75611732680694], "label": "S", "properties": {}}, {"species": [{"element": "S", "occu": 1}], "abc": [0.74565274, 0.97714279, 0.42613884], "xyz": [4.66774961541574, 15.018422808032282, 20.544945242364722], "label": "S", "properties": {}}, {"species": [{"element": "S", "occu": 1}], "abc": [0.25698001, 0.73163299, 0.46381098000000004], "xyz": [1.6086822705795099, 11.24500297865868, 22.361189106600843], "label": "S", "properties": {}}, {"species": [{"element": "S", "occu": 1}], "abc": [0.72859855, 0.19351424, 0.4296061], "xyz": [4.56099122167105, 2.9742620069836803, 20.7121082891338], "label": "S", "properties": {}}, {"species": [{"element": "S", "occu": 1}], "abc": [0.68159194, 0.72397023, 0.42313452], "xyz": [4.26673214639494, 11.127228411078361, 20.40010139313816], "label": "S", "properties": {}}]}, "formula": "(Li3PS4)12.0", "bandgap": 2.7161, "slab_thickness": 22.62933044359518}