{"miller": "012_0.12", "final_energy": -699.90890247, "gamma": 0.01418897865523366, "work_function": "Not calculated", "ionization_potentail": "Not calculated", "electron_affinity": "Not calculated", "is_stochiometric": true, "incar_parameters": {"SYSTEM": "unknown system", "LCOMPAT": false, "PREC": "normal", "ENMAX": 520.0, "ENAUG": 628.945, "EDIFF": 1e-05, "IALGO": 38, "IWAVPR": 11, "NBANDS": 462, "NBANDSLOW": -1, "NBANDSHIGH": -1, "NELECT": 760.0, "TURBO": 0, "IRESTART": 0, "NREBOOT": 0, "NMIN": 0, "EREF": 0.0, "ISMEAR": 0, "SIGMA": 0.05, "KSPACING": 0.5, "KGAMMA": true, "KBLOWUP": true, "LREAL": true, "ROPT": [-0.0005, -0.0005, -0.0005], "LMAXPAW": -100, "LMAXMIX": 2, "NLSPLINE": false, "ISTART": 0, "ICHARG": 2, "INIWAV": 1, "ISPIN": 1, "LNONCOLLINEAR": false, "MAGMOM": [0.6, 0.6, 0.6, 0.6, 0.6, 0.6, 0.6, 0.6, 0.6, 0.6, 0.6, 0.6, 0.6, 0.6, 0.6, 0.6, 0.6, 0.6, 0.6, 0.6, 0.6, 0.6, 0.6, 0.6, 0.6, 0.6, 0.6, 0.6, 0.6, 0.6, 0.6, 0.6, 0.6, 0.6, 0.6, 0.6, 0.6, 0.6, 0.6, 0.6, 0.6, 0.6, 0.6, 0.6, 0.6, 0.6, 0.6, 0.6, 0.6, 0.6, 0.6, 0.6, 0.6, 0.6, 0.6, 0.6, 0.6, 0.6, 0.6, 0.6, 0.6, 0.6, 0.6, 0.6, 0.6, 0.6, 0.6, 0.6, 0.6, 0.6, 0.6, 0.6, 0.6, 0.6, 0.6, 0.6, 0.6, 0.6, 0.6, 0.6, 0.6, 0.6, 0.6, 0.6, 0.6, 0.6, 0.6, 0.6, 0.6, 0.6, 0.6, 0.6, 0.6, 0.6, 0.6, 0.6, 0.6, 0.6, 0.6, 0.6, 0.6, 0.6, 0.6, 0.6, 0.6, 0.6, 0.6, 0.6, 0.6, 0.6, 0.6, 0.6, 0.6, 0.6, 0.6, 0.6, 0.6, 0.6, 0.6, 0.6, 0.6, 0.6, 0.6, 0.6, 0.6, 0.6, 0.6, 0.6, 0.6, 0.6, 0.6, 0.6, 0.6, 0.6, 0.6, 0.6, 0.6, 0.6, 0.6, 0.6, 0.6, 0.6, 0.6, 0.6, 0.6, 0.6, 0.6, 0.6, 0.6, 0.6, 0.6, 0.6, 0.6, 0.6, 0.6, 0.6, 0.6, 0.6, 0.6, 0.6], "NUPDOWN": -1.0, "LSORBIT": false, "SAXIS": [0.0, 0.0, 1.0], "LSPIRAL": false, "QSPIRAL": [0.0, 0.0, 0.0], "LZEROZ": false, "LASPH": false, "LMETAGGA": false, "NELM": 100, "NELMDL": -5, "NELMIN": 6, "ENINI": 520.0, "LDIAG": true, "LSUBROT": false, "WEIMIN": 0.001, "EBREAK": 1e-08, "DEPER": 0.3, "NRMM": 4, "TIME": 0.4, "AMIX": 0.4, "BMIX": 1.0, "AMIN": 0.1, "AMIX_MAG": 1.6, "BMIX_MAG": 1.0, "IMIX": 4, "MIXFIRST": false, "MAXMIX": -45, "WC": 100.0, "INIMIX": 1, "MIXPRE": 1, "MREMOVE": 5, "LDIPOL": false, "LMONO": false, "IDIPOL": 0, "EPSILON": 1.0, "DIPOL": [-100.0, -100.0, -100.0], "EFIELD": 0.0, "NGX": 36, "NGY": 120, "NGZ": 288, "NGXF": 72, "NGYF": 240, "NGZF": 576, "ADDGRID": false, "NSW": 150, "IBRION": 2, "MDALGO": 0, "ISIF": 2, "PSTRESS": 0.0, "EDIFFG": -0.01, "NFREE": 1, "POTIM": 0.5, "SMASS": -3.0, "SCALEE": 1.0, "TEBEG": 0.0001, "TEEND": 0.0001, "NBLOCK": 1, "KBLOCK": 150, "NPACO": 256, "APACO": 10.0, "ISYM": 0, "SYMPREC": 1e-05, "LORBIT": 11, "RWIGS": [-1.0, -1.0, -1.0], "NEDOS": 301, "EMIN": 10.0, "EMAX": -10.0, "EFERMI": 0.0, "NWRITE": 2, "LWAVE": false, "LDOWNSAMPLE": false, "LCHARG": false, "LPARD": false, "LVTOT": false, "LVHAR": false, "LELF": false, "LOPTICS": false, "STM": [0.0, 0.0, 0.0, 0.0, 0.0, 0.0, 0.0], "NPAR": 2, "NSIM": 4, "NBLK": -1, "LPLANE": true, "LSCALAPACK": true, "LSCAAWARE": false, "LSCALU": false, "LASYNC": false, "LORBITALREAL": false, "IDIOT": 3, "PHON_NSTRUCT": -1, "LMUSIC": false, "POMASS": [7.01, 30.974, 32.066], "DARWINR": [0.0, 0.0, 0.0], "DARWINV": [1.0, 1.0, 1.0], "LCORR": true, "GGA_COMPAT": true, "LBERRY": false, "ICORELEVEL": 0, "LDAU": false, "I_CONSTRAINED_M": 0, "GGA": "--", "VOSKOWN": 0, "LHFCALC": false, "PRECFOCK": "", "LSYMGRAD": false, "LHFONE": false, "LRHFCALC": false, "LTHOMAS": false, "LMODELHF": false, "LFOCKACE": false, "ENCUT4O": -1.0, "EXXOEP": 0, "FOURORBIT": 0, "AEXX": 0.0, "HFALPHA": 0.0, "MCALPHA": 0.0, "ALDAX": 1.0, "AGGAX": 1.0, "ALDAC": 1.0, "AGGAC": 1.0, "NKREDX": 1, "NKREDY": 1, "NKREDZ": 1, "SHIFTRED": false, "ODDONLY": false, "EVENONLY": false, "LMAXFOCK": 0, "NMAXFOCKAE": 0, "LFOCKAEDFT": false, "HFSCREEN": 0.0, "HFSCREENC": 0.0, "NBANDSGWLOW": 0, "LUSE_VDW": false, "Zab_VDW": -0.8491, "PARAM1": 0.1234, "PARAM2": 1.0, "PARAM3": 0.0, "MODEL_GW": 0, "MODEL_EPS0": 24.84988316, "MODEL_ALPHA": 1.0, "LEPSILON": false, "LRPA": false, "LNABLA": false, "LVEL": false, "CSHIFT": 0.1, "OMEGAMAX": -1.0, "DEG_THRESHOLD": 0.002, "RTIME": -0.1, "WPLASMAI": 0.0, "DFIELD": [0.0, 0.0, 0.0], "WPLASMA": [0.0, 0.0, 0.0, 0.0, 0.0, 0.0, 0.0, 0.0, 0.0], "NUCIND": false, "MAGPOS": [0.0, 0.0, 0.0], "LNICSALL": true, "ORBITALMAG": false, "LMAGBLOCH": false, "LCHIMAG": false, "LGAUGE": true, "MAGATOM": 0, "MAGDIPOL": [0.0, 0.0, 0.0], "AVECCONST": [0.0, 0.0, 0.0], "LFINITE_TEMPERATURE": false, "LADDER": false, "LRPAFORCE": false, "LFXC": false, "LHARTREE": true, "IBSE": 0, "KPOINT": [-1, 0, 0, 0], "LTCTC": false, "LTCTE": false, "LTETE": false, "LTRIPLET": false, "LFXCEPS": false, "LFXHEG": false, "NATURALO": 2, "LHOLEGF": false, "L2ORDER": false, "LDMP1": false, "LMP2LT": false, "LSMP2LT": false, "LGWLF": false, "ENCUTGW": -2.0, "ENCUTGWSOFT": -2.0, "ENCUTLF": -1.0, "LESF_SPLINES": false, "LMAXMP2": -1, "SCISSOR": 0.0, "NOMEGA": 0, "NOMEGAR": 0, "NBANDSGW": -1, "NBANDSO": -1, "NBANDSV": -1, "NELMGW": 1, "NELMHF": 1, "DIM": 3, "IESPILON": 4, "ANTIRES": 0, "OMEGAMIN": -30.0, "OMEGATL": -200.0, "OMEGAGRID": 0, "LSELFENERGY": false, "LSPECTRAL": false, "LSPECTRALGW": false, "LSINGLES": false, "LFERMIGW": false, "ODDONLYGW": false, "EVENONLYGW": false, "NKREDLFX": 1, "NKREDLFY": 1, "NKREDLFZ": 1, "MAXMEM": 2800, "TELESCOPE": 0, "NTAUPAR": -1, "NOMEGAPAR": -1, "DAMP_NEWTON": 0.80000001, "LAMBDA": 1.0, "OFIELD_KAPPA": 0.0, "OFIELD_K": [0.0, 0.0, 0.0], "OFIELD_Q6_NEAR": 0.0, "OFIELD_Q6_FAR": 0.0, "OFIELD_A": 0.0, "KPOINTS_OPT_MODE": 1, "LKPOINTS_OPT": false, "@module": "pymatgen.io.vasp.inputs", "@class": "Incar"}, "relaxed_structures": {"@module": "pymatgen.core.structure", "@class": "Structure", "charge": 0, "lattice": {"matrix": [[6.259951, 0.0, 0.0], [0.0, 20.817994, 0.0], [0.0, 0.0, 50.8491]], "a": 6.259951, "b": 20.817994, "c": 50.8491, "alpha": 90.0, "beta": 90.0, "gamma": 90.0, "volume": 6626.6355092591275}, "sites": [{"species": [{"element": "Li", "occu": 1}], "abc": [0.87610341, 0.70920587, 0.07651538999999999], "xyz": [5.48436441753291, 14.76424354642478, 3.8907387176489996], "label": "Li", "properties": {}}, {"species": [{"element": "Li", "occu": 1}], "abc": [0.07646403, 0.29192113, 0.1017178], "xyz": [0.47866108106253, 6.077212332813219, 5.17225858398], "label": "Li", "properties": {}}, {"species": [{"element": "Li", "occu": 1}], "abc": [0.06137119, 0.60397844, 0.007160079999999999], "xyz": [0.38418064221169, 12.573619540049359, 0.364083623928], "label": "Li", "properties": {}}, {"species": [{"element": "Li", "occu": 1}], "abc": [0.41347078, 0.11249348, 0.011219729999999997], "xyz": [2.58830682273178, 2.34188859167912, 0.5705131727429998], "label": "Li", "properties": {}}, {"species": [{"element": "Li", "occu": 1}], "abc": [0.37417213, 0.79013054, 0.10622556], "xyz": [2.34229919936563, 16.44893284093676, 5.4014741229959995], "label": "Li", "properties": {}}, {"species": [{"element": "Li", "occu": 1}], "abc": [0.56839729, 0.21009342, 0.07636759000000001], "xyz": [3.5581391839327905, 4.3737235569994795, 3.8832232206690005], "label": "Li", "properties": {}}, {"species": [{"element": "Li", "occu": 1}], "abc": [0.61162267, 0.37499735, 0.02470236], "xyz": [3.82872794468917, 7.8066925823158995, 1.256092773876], "label": "Li", "properties": {}}, {"species": [{"element": "Li", "occu": 1}], "abc": [0.62462012, 0.07344118, 0.12097716], "xyz": [3.91009134481412, 1.52889804459292, 6.151579706556], "label": "Li", "properties": {}}, {"species": [{"element": "Li", "occu": 1}], "abc": [0.41500369, 0.61602429, 0.16187448], "xyz": [2.59790276421919, 12.82438997307426, 8.231171620967999], "label": "Li", "properties": {}}, {"species": [{"element": "Li", "occu": 1}], "abc": [0.41815404, 0.92204172, 0.06229505], "xyz": [2.61762380085204, 19.19505899470968, 3.167647226955], "label": "Li", "properties": {}}, {"species": [{"element": "Li", "occu": 1}], "abc": [0.134481, 0.42218025, 0.05852925], "xyz": [0.841844470431, 8.7889459114185, 2.976159686175], "label": "Li", "properties": {}}, {"species": [{"element": "Li", "occu": 1}], "abc": [0.12299657, 0.12263451, 0.16117906999999998], "xyz": [0.76995250136807, 2.55300449337294, 8.195810648336998], "label": "Li", "properties": {}}, {"species": [{"element": "Li", "occu": 1}], "abc": [0.92230529, 0.57839738, 0.12166051], "xyz": [5.77358592244079, 12.04107318645572, 6.186327439041], "label": "Li", "properties": {}}, {"species": [{"element": "Li", "occu": 1}], "abc": [0.95943911, 0.89365255, 0.028170369999999993], "xyz": [6.00604181608361, 18.6040534239847, 1.4324379611669997], "label": "Li", "properties": {}}, {"species": [{"element": "Li", "occu": 1}], "abc": [0.43128915, 0.32838121, 0.14384205], "xyz": [2.69984894583165, 6.836238059492739, 7.314238784655], "label": "Li", "properties": {}}, {"species": [{"element": "Li", "occu": 1}], "abc": [0.43809462, 0.62527722, 0.04740510999999999], "xyz": [2.74245085456362, 13.017017414296678, 2.4105071789009997], "label": "Li", "properties": {}}, {"species": [{"element": "Li", "occu": 1}], "abc": [0.93451852, 0.17248177, 0.032338559999999995], "xyz": [5.85004014379252, 3.59072445296938, 1.6443866712959998], "label": "Li", "properties": {}}, {"species": [{"element": "Li", "occu": 1}], "abc": [0.93381172, 0.86560233, 0.13789727], "xyz": [5.84561561042572, 18.020104112326017, 7.011952071956999], "label": "Li", "properties": {}}, {"species": [{"element": "Li", "occu": 1}], "abc": [0.06932931, 0.02122104, 0.08421277999999999], "xyz": [0.43399808346381, 0.44177948339376, 4.282144071497999], "label": "Li", "properties": {}}, {"species": [{"element": "Li", "occu": 1}], "abc": [0.57070286, 0.48423677, 0.09854151], "xyz": [3.57257193915986, 10.080838172439378, 5.010747096141], "label": "Li", "properties": {}}, {"species": [{"element": "Li", "occu": 1}], "abc": [0.56407421, 0.76944625, 0.004397070000000003], "xyz": [3.5310769149637102, 16.018327415822498, 0.22358705213700014], "label": "Li", "properties": {}}, {"species": [{"element": "Li", "occu": 1}], "abc": [0.8820902, 0.10160309, 0.27872114000000003], "xyz": [5.5218414295802, 2.11517251800146, 14.172719119974001], "label": "Li", "properties": {}}, {"species": [{"element": "Li", "occu": 1}], "abc": [0.87764483, 0.40284145, 0.17691637999999998], "xyz": [5.49401363120333, 8.386350889051299, 8.996038698258], "label": "Li", "properties": {}}, {"species": [{"element": "Li", "occu": 1}], "abc": [0.12601464, 0.6843141, 0.3066894], "xyz": [0.7888454716826401, 14.2460468279154, 15.59487996954], "label": "Li", "properties": {}}, {"species": [{"element": "Li", "occu": 1}], "abc": [0.09744047, 0.98819246, 0.20425737], "xyz": [0.60997256761697, 20.57218470312524, 10.386303432866999], "label": "Li", "properties": {}}, {"species": [{"element": "Li", "occu": 1}], "abc": [0.40491191, 0.48809742, 0.20417337], "xyz": [2.53472871591641, 10.16120916097548, 10.382032108467], "label": "Li", "properties": {}}, {"species": [{"element": "Li", "occu": 1}], "abc": [0.4086188, 0.18513735, 0.30451289000000004], "xyz": [2.5579336656788, 3.8541882414759, 15.484206394899001], "label": "Li", "properties": {}}, {"species": [{"element": "Li", "occu": 1}], "abc": [0.58412455, 0.90172126, 0.17938637], "xyz": [3.6565910608970498, 18.77202778035244, 9.121635466767], "label": "Li", "properties": {}}, {"species": [{"element": "Li", "occu": 1}], "abc": [0.62265834, 0.60156584, 0.27788686], "xyz": [3.89781069814134, 12.52339404772496, 14.130296732826], "label": "Li", "properties": {}}, {"species": [{"element": "Li", "occu": 1}], "abc": [0.61972077, 0.76943131, 0.22166678999999997], "xyz": [3.8794216538822703, 16.018016394992138, 11.271556771389], "label": "Li", "properties": {}}, {"species": [{"element": "Li", "occu": 1}], "abc": [0.58016884, 0.47299085, 0.32186401000000003], "xyz": [3.63182851012684, 9.8467206773549, 16.366495230891], "label": "Li", "properties": {}}, {"species": [{"element": "Li", "occu": 1}], "abc": [0.37402749, 0.0148306, 0.36279127], "xyz": [2.34139376005299, 0.30874334181639995, 18.447609567357], "label": "Li", "properties": {}}, {"species": [{"element": "Li", "occu": 1}], "abc": [0.37190013, 0.31956878, 0.26203963], "xyz": [2.32807659069363, 6.652780944627319, 13.324479349833002], "label": "Li", "properties": {}}, {"species": [{"element": "Li", "occu": 1}], "abc": [0.10152217, 0.81403442, 0.26146928], "xyz": [0.6355238096136699, 16.94656367135348, 13.295477565648001], "label": "Li", "properties": {}}, {"species": [{"element": "Li", "occu": 1}], "abc": [0.08227369, 0.50997436, 0.36265187000000004], "xyz": [0.51502926798919, 10.616643166633839, 18.440521202817003], "label": "Li", "properties": {}}, {"species": [{"element": "Li", "occu": 1}], "abc": [0.8769429, 0.96501168, 0.32303394], "xyz": [5.4896195837979, 20.089607364169918, 16.425985118454], "label": "Li", "properties": {}}, {"species": [{"element": "Li", "occu": 1}], "abc": [0.90433712, 0.27497425, 0.22194519999999998], "xyz": [5.66110605868112, 5.724412286654499, 11.28571366932], "label": "Li", "properties": {}}, {"species": [{"element": "Li", "occu": 1}], "abc": [0.56872505, 0.75857085, 0.33991339000000004], "xyz": [3.5601909454725496, 15.7919234038749, 17.284289959449], "label": "Li", "properties": {}}, {"species": [{"element": "Li", "occu": 1}], "abc": [0.46636962, 0.03620124, 0.24324158999999998], "xyz": [2.91945096908862, 0.75363719711256, 12.368615934068998], "label": "Li", "properties": {}}, {"species": [{"element": "Li", "occu": 1}], "abc": [0.04618763, 0.53193577, 0.24401084999999997], "xyz": [0.28913230060613, 11.07383566824538, 12.407732112735], "label": "Li", "properties": {}}, {"species": [{"element": "Li", "occu": 1}], "abc": [0.06476913, 0.22207712, 0.34652804000000004], "xyz": [0.40545158011262994, 4.623200151697279, 17.620638958764], "label": "Li", "properties": {}}, {"species": [{"element": "Li", "occu": 1}], "abc": [0.05163243, 0.70355592, 0.18686848], "xyz": [0.32321648181093, 14.646622921224479, 9.502094026368], "label": "Li", "properties": {}}, {"species": [{"element": "Li", "occu": 1}], "abc": [0.93344668, 0.38175869, 0.29809144000000004], "xyz": [5.84333047791268, 7.947450117867859, 15.157681441704002], "label": "Li", "properties": {}}, {"species": [{"element": "Li", "occu": 1}], "abc": [0.4552013, 0.89894489, 0.28810055], "xyz": [2.8495378331362997, 18.714229326350658, 14.649653677005], "label": "Li", "properties": {}}, {"species": [{"element": "Li", "occu": 1}], "abc": [0.5606064, 0.18602327, 0.19726082], "xyz": [3.5093685942864, 3.8726313187203796, 10.030535162262], "label": "Li", "properties": {}}, {"species": [{"element": "Li", "occu": 1}], "abc": [0.94003828, 0.48586933, 0.47691121000000003], "xyz": [5.88459357092428, 10.114824796724019, 24.250505808411003], "label": "Li", "properties": {}}, {"species": [{"element": "Li", "occu": 1}], "abc": [0.92006296, 0.79591656, 0.38208092000000005], "xyz": [5.75954904651496, 16.56938617058064, 19.428470909172002], "label": "Li", "properties": {}}, {"species": [{"element": "Li", "occu": 1}], "abc": [0.12488197, 0.37901522, 0.40807354], "xyz": [0.7817550129834699, 7.890336575868679, 20.750172242814], "label": "Li", "properties": {}}, {"species": [{"element": "Li", "occu": 1}], "abc": [0.42926634, 0.87811102, 0.40752292], "xyz": [2.6871862543493403, 18.28050994569388, 20.722173711372], "label": "Li", "properties": {}}, {"species": [{"element": "Li", "occu": 1}], "abc": [0.6251964, 0.2972807, 0.37778888], "xyz": [3.9136988293764, 6.1887878289158, 19.210224538008], "label": "Li", "properties": {}}, {"species": [{"element": "Li", "occu": 1}], "abc": [0.59323253, 0.97573884, 0.47219444], "xyz": [3.71360656940603, 20.312925316686957, 24.010662299004], "label": "Li", "properties": {}}, {"species": [{"element": "Li", "occu": 1}], "abc": [0.57941822, 0.16581228, 0.42181608000000004], "xyz": [3.62712966570722, 3.45187905016632, 21.448968033528], "label": "Li", "properties": {}}, {"species": [{"element": "Li", "occu": 1}], "abc": [0.38379452, 0.71296596, 0.45859704], "xyz": [2.40253488926852, 14.842521077484239, 23.319246746664], "label": "Li", "properties": {}}, {"species": [{"element": "Li", "occu": 1}], "abc": [0.03679496, 0.19441672, 0.4558611], "xyz": [0.23033464664696002, 4.04736611045968, 23.18012666001], "label": "Li", "properties": {}}, {"species": [{"element": "Li", "occu": 1}], "abc": [0.86482269, 0.66568452, 0.42522636], "xyz": [5.41374766308819, 13.858216343252879, 21.622377702276], "label": "Li", "properties": {}}, {"species": [{"element": "Li", "occu": 1}], "abc": [0.56606833, 0.46243543, 0.43661141000000003], "xyz": [3.54356000845183, 9.62697800712742, 22.201297248231], "label": "Li", "properties": {}}, {"species": [{"element": "Li", "occu": 1}], "abc": [0.06744749, 0.91485608, 0.45151756000000004], "xyz": [0.42221798247298997, 19.04546838430352, 22.959261560196], "label": "Li", "properties": {}}, {"species": [{"element": "Li", "occu": 1}], "abc": [0.93036121, 0.06741071, 0.39949223], "xyz": [5.82401558690071, 1.40335575631574, 20.313820352493], "label": "Li", "properties": {}}, {"species": [{"element": "Li", "occu": 1}], "abc": [0.43504393, 0.31963588, 0.48008506000000006], "xyz": [2.72335368464743, 6.654177832024719, 24.411893224446004], "label": "Li", "properties": {}}, {"species": [{"element": "Li", "occu": 1}], "abc": [0.43380549, 0.60419368, 0.38500447000000004], "xyz": [2.71560111093099, 12.578100405077919, 19.577130795477004], "label": "Li", "properties": {}}, {"species": [{"element": "P", "occu": 1}], "abc": [0.16242601, 0.45765152, 0.13377529], "xyz": [1.01677886372551, 9.52738659745088, 6.802353098738999], "label": "P", "properties": {}}, {"species": [{"element": "P", "occu": 1}], "abc": [0.16851198, 0.76299941, 0.031859790000000006], "xyz": [1.05487673771298, 15.88411713938354, 1.6200416476890003], "label": "P", "properties": {}}, {"species": [{"element": "P", "occu": 1}], "abc": [0.84170309, 0.54051453, 0.04829737], "xyz": [5.26902009994859, 11.25242824245282, 2.455877796867], "label": "P", "properties": {}}, {"species": [{"element": "P", "occu": 1}], "abc": [0.83770857, 0.23563962, 0.14801633], "xyz": [5.24401460048007, 4.90554419532228, 7.526497165803], "label": "P", "properties": {}}, {"species": [{"element": "P", "occu": 1}], "abc": [0.65844928, 0.73580291, 0.14842911], "xyz": [4.12186022878528, 15.31794056556254, 7.547486657301], "label": "P", "properties": {}}, {"species": [{"element": "P", "occu": 1}], "abc": [0.66183636, 0.04121846, 0.048950310000000004], "xyz": [4.14306318361836, 0.8580856529692399, 2.4890792082210003], "label": "P", "properties": {}}, {"species": [{"element": "P", "occu": 1}], "abc": [0.32202508, 0.26399503, 0.029696080000000007], "xyz": [2.0158612215710803, 5.49584695056982, 1.5100189415280003], "label": "P", "properties": {}}, {"species": [{"element": "P", "occu": 1}], "abc": [0.34194846, 0.9580439, 0.1343056], "xyz": [2.1405806041254603, 19.9445521619366, 6.82931888496], "label": "P", "properties": {}}, {"species": [{"element": "P", "occu": 1}], "abc": [0.1615542, 0.85152765, 0.33567333000000005], "xyz": [1.0113213758442001, 17.727097508534097, 17.068686724503003], "label": "P", "properties": {}}, {"species": [{"element": "P", "occu": 1}], "abc": [0.15608776, 0.15592402, 0.23446160000000002], "xyz": [0.9771017292997599, 3.24602531281588, 11.922161344560001], "label": "P", "properties": {}}, {"species": [{"element": "P", "occu": 1}], "abc": [0.84033017, 0.93297062, 0.24947378], "xyz": [5.2604256880216695, 19.422576769336278, 12.685517186598], "label": "P", "properties": {}}, {"species": [{"element": "P", "occu": 1}], "abc": [0.84100984, 0.6300345, 0.34994938000000003], "xyz": [5.26468038891784, 13.116054440793, 17.794611018558], "label": "P", "properties": {}}, {"species": [{"element": "P", "occu": 1}], "abc": [0.65495069, 0.1302292, 0.34959209], "xyz": [4.09995922681619, 2.7111107042247995, 17.776443143619], "label": "P", "properties": {}}, {"species": [{"element": "P", "occu": 1}], "abc": [0.65421766, 0.43319417, 0.24910079], "xyz": [4.09537049493466, 9.01823363189498, 12.666550980789], "label": "P", "properties": {}}, {"species": [{"element": "P", "occu": 1}], "abc": [0.35206159, 0.65481798, 0.23459519999999998], "xyz": [2.20388830238209, 13.63199677873212, 11.928954784319998], "label": "P", "properties": {}}, {"species": [{"element": "P", "occu": 1}], "abc": [0.33834218, 0.35205818, 0.33556618000000005], "xyz": [2.11800546803318, 7.329145078890919, 17.063238243438004], "label": "P", "properties": {}}, {"species": [{"element": "P", "occu": 1}], "abc": [0.16127242, 0.54774741, 0.43549424000000003], "xyz": [1.00955744685142, 11.40300229489554, 22.144490159184002], "label": "P", "properties": {}}, {"species": [{"element": "P", "occu": 1}], "abc": [0.83062225, 0.32534761, 0.45220873], "xyz": [5.19965458450975, 6.77308459289434, 22.994406932643], "label": "P", "properties": {}}, {"species": [{"element": "P", "occu": 1}], "abc": [0.67704861, 0.82372445, 0.45406367000000003], "xyz": [4.238291123218111, 17.1482906577533, 23.088728962197003], "label": "P", "properties": {}}, {"species": [{"element": "P", "occu": 1}], "abc": [0.33671283, 0.04630103, 0.43493489], "xyz": [2.10780581687133, 0.96389456473382, 22.116047715099], "label": "P", "properties": {}}, {"species": [{"element": "S", "occu": 1}], "abc": [0.297376, 0.54545327, 0.12545476], "xyz": [1.861559188576, 11.355242902140379, 6.3792616367159996], "label": "S", "properties": {}}, {"species": [{"element": "S", "occu": 1}], "abc": [0.31884328, 0.84957695, 0.02399129], "xyz": [1.99594330947928, 17.6864878476383, 1.2199355043389999], "label": "S", "properties": {}}, {"species": [{"element": "S", "occu": 1}], "abc": [0.74638632, 0.44898703, 0.05799914], "xyz": [4.672341790270321, 9.34700929661782, 2.949204069774], "label": "S", "properties": {}}, {"species": [{"element": "S", "occu": 1}], "abc": [0.73646196, 0.14425173, 0.1572699], "xyz": [4.61021578296396, 3.00303164962962, 7.997032872089999], "label": "S", "properties": {}}, {"species": [{"element": "S", "occu": 1}], "abc": [0.79149143, 0.64805409, 0.15685991999999999], "xyz": [4.95469756871993, 13.49118615729546, 7.976185758071999], "label": "S", "properties": {}}, {"species": [{"element": "S", "occu": 1}], "abc": [0.78825554, 0.95402334, 0.061019659999999996], "xyz": [4.93444105587854, 19.86085216797996, 3.102794793306], "label": "S", "properties": {}}, {"species": [{"element": "S", "occu": 1}], "abc": [0.23646382, 0.35707773, 0.021299699999999998], "xyz": [1.48025192647282, 7.433642040673619, 1.0830705752699998], "label": "S", "properties": {}}, {"species": [{"element": "S", "occu": 1}], "abc": [0.23861561, 0.04961819, 0.12577267], "xyz": [1.49372202643511, 1.0329511817108599, 6.395427074097], "label": "S", "properties": {}}, {"species": [{"element": "S", "occu": 1}], "abc": [0.19189149, 0.22770793, 0.06427770999999999], "xyz": [1.20123132471699, 4.74042232049242, 3.2684637035609994], "label": "S", "properties": {}}, {"species": [{"element": "S", "occu": 1}], "abc": [0.7601904, 0.7764808, 0.11351161999999998], "xyz": [4.7587546546704, 16.1647726355152, 5.771963716541999], "label": "S", "properties": {}}, {"species": [{"element": "S", "occu": 1}], "abc": [0.77520968, 0.07146537, 0.013581530000000001], "xyz": [4.85277461152568, 1.48776564386778, 0.6906085771230001], "label": "S", "properties": {}}, {"species": [{"element": "S", "occu": 1}], "abc": [0.69936273, 0.57672344, 0.01528836], "xyz": [4.37797642102623, 12.006225113579358, 0.7773993464760001], "label": "S", "properties": {}}, {"species": [{"element": "S", "occu": 1}], "abc": [0.70156276, 0.27439556, 0.11488763999999999], "xyz": [4.39174850102476, 5.71236512170664, 5.841933095123999], "label": "S", "properties": {}}, {"species": [{"element": "S", "occu": 1}], "abc": [0.26588775, 0.72191799, 0.06657908000000001], "xyz": [1.6644442865002498, 15.02888438431206, 3.3854862968280006], "label": "S", "properties": {}}, {"species": [{"element": "S", "occu": 1}], "abc": [0.73917278, 0.59836063, 0.07938324], "xyz": [4.62718538333378, 12.456668005176219, 4.036566309084], "label": "S", "properties": {}}, {"species": [{"element": "S", "occu": 1}], "abc": [0.26988324, 0.39686322, 0.10411936], "xyz": [1.6894558581212402, 8.261896132780679, 5.294375748576], "label": "S", "properties": {}}, {"species": [{"element": "S", "occu": 1}], "abc": [0.24958628, 0.70426598, 0.0008578299999999969], "xyz": [1.56239788307228, 14.661404946044119, 0.043619883452999844], "label": "S", "properties": {}}, {"species": [{"element": "S", "occu": 1}], "abc": [0.21780525, 0.20553865, 0.00010000000000000286], "xyz": [1.36345019254275, 4.278902382468099, 0.0050849100000001455], "label": "S", "properties": {}}, {"species": [{"element": "S", "occu": 1}], "abc": [0.23115897, 0.90028235, 0.10373115999999999], "xyz": [1.44704382541047, 18.742072560605898, 5.274636127956], "label": "S", "properties": {}}, {"species": [{"element": "S", "occu": 1}], "abc": [0.76188267, 0.10520612, 0.07766530999999999], "xyz": [4.76934818194917, 2.1901803749232798, 3.9492111147209994], "label": "S", "properties": {}}, {"species": [{"element": "S", "occu": 1}], "abc": [0.83727612, 0.4678182, 0.13666123], "xyz": [5.24130748467012, 9.7390364806908, 6.949100550393], "label": "S", "properties": {}}, {"species": [{"element": "S", "occu": 1}], "abc": [0.84637618, 0.78179688, 0.035785630000000006], "xyz": [5.298273414367181, 16.27544275705872, 1.8196670784330002], "label": "S", "properties": {}}, {"species": [{"element": "S", "occu": 1}], "abc": [0.1671487, 0.53650609, 0.042624409999999995], "xyz": [1.0463426717137, 11.16898056258346, 2.167412886531], "label": "S", "properties": {}}, {"species": [{"element": "S", "occu": 1}], "abc": [0.16241331, 0.23217223, 0.14334896], "xyz": [1.01669936234781, 4.83336009110662, 7.289165601936], "label": "S", "properties": {}}, {"species": [{"element": "S", "occu": 1}], "abc": [0.33332345, 0.7265309, 0.1464068], "xyz": [2.08658846415095, 15.124915917014599, 7.44465401388], "label": "S", "properties": {}}, {"species": [{"element": "S", "occu": 1}], "abc": [0.33492861, 0.03131267, 0.045556690000000004], "xyz": [2.09663668709811, 0.6518669761839799, 2.3165166854790002], "label": "S", "properties": {}}, {"species": [{"element": "S", "occu": 1}], "abc": [0.65136677, 0.26401019, 0.034693690000000006], "xyz": [4.07752406322827, 5.496162551358859, 1.7641429121790002], "label": "S", "properties": {}}, {"species": [{"element": "S", "occu": 1}], "abc": [0.66652118, 0.96244859, 0.13885296], "xyz": [4.172389927262181, 20.036248971928458, 7.060548048336], "label": "S", "properties": {}}, {"species": [{"element": "S", "occu": 1}], "abc": [0.26292175, 0.9429783, 0.3265596], "xyz": [1.64587727183425, 19.630916591530198, 16.60526175636], "label": "S", "properties": {}}, {"species": [{"element": "S", "occu": 1}], "abc": [0.2823908, 0.24422348, 0.22569477000000002], "xyz": [1.7677525708508, 5.084242941299119, 11.476375929207], "label": "S", "properties": {}}, {"species": [{"element": "S", "occu": 1}], "abc": [0.72355971, 0.84338712, 0.25817184000000004], "xyz": [4.52944833017421, 17.55762800383728, 13.127805709344003], "label": "S", "properties": {}}, {"species": [{"element": "S", "occu": 1}], "abc": [0.70675229, 0.5421407, 0.3582884], "xyz": [4.42423470453779, 11.2862818397558, 18.21864268044], "label": "S", "properties": {}}, {"species": [{"element": "S", "occu": 1}], "abc": [0.75932639, 0.03866747, 0.35805451000000005], "xyz": [4.7533459944068905, 0.80497915845518, 18.206749584441003], "label": "S", "properties": {}}, {"species": [{"element": "S", "occu": 1}], "abc": [0.7578419, 0.34148127, 0.25780263000000003], "xyz": [4.744053159746899, 7.10895502997238, 13.109031713133001], "label": "S", "properties": {}}, {"species": [{"element": "S", "occu": 1}], "abc": [0.23540308, 0.74536372, 0.22601892999999998], "xyz": [1.4736117460490799, 15.516977450777677, 11.492859173463], "label": "S", "properties": {}}, {"species": [{"element": "S", "occu": 1}], "abc": [0.20397438, 0.4394842, 0.32699713], "xyz": [1.27686962405538, 9.1491794386948, 16.627509763083], "label": "S", "properties": {}}, {"species": [{"element": "S", "occu": 1}], "abc": [0.23554545, 0.61609239, 0.26906792], "xyz": [1.47450297527295, 12.82580767846566, 13.681861570872], "label": "S", "properties": {}}, {"species": [{"element": "S", "occu": 1}], "abc": [0.20811192, 0.9187019, 0.16755318], "xyz": [1.30277042171592, 19.125530641988597, 8.519928405138], "label": "S", "properties": {}}, {"species": [{"element": "S", "occu": 1}], "abc": [0.78645349, 0.17027527, 0.31644159], "xyz": [4.92316031117899, 3.54478954920838, 16.090770054069], "label": "S", "properties": {}}, {"species": [{"element": "S", "occu": 1}], "abc": [0.78405043, 0.47124734, 0.21545168], "xyz": [4.90811727332893, 9.81042429663596, 10.955524021488001], "label": "S", "properties": {}}, {"species": [{"element": "S", "occu": 1}], "abc": [0.72104237, 0.97174469, 0.21529524], "xyz": [4.51368990512387, 20.229775125951857, 10.947569188284], "label": "S", "properties": {}}, {"species": [{"element": "S", "occu": 1}], "abc": [0.73872202, 0.67018055, 0.31520107], "xyz": [4.62436364782102, 13.951814668816699, 16.027690728537003], "label": "S", "properties": {}}, {"species": [{"element": "S", "occu": 1}], "abc": [0.26547321, 0.41765225, 0.16858563999999998], "xyz": [1.6618492864127101, 8.6946820345865, 8.572428066924], "label": "S", "properties": {}}, {"species": [{"element": "S", "occu": 1}], "abc": [0.26453775, 0.11645819, 0.26917439000000004], "xyz": [1.6559933526502502, 2.42442590067086, 13.687275474549002], "label": "S", "properties": {}}, {"species": [{"element": "S", "occu": 1}], "abc": [0.72277946, 0.99218793, 0.27933753], "xyz": [4.524564003406461, 20.65536237361242, 14.204061996723], "label": "S", "properties": {}}, {"species": [{"element": "S", "occu": 1}], "abc": [0.72722964, 0.29303319, 0.17885231999999998], "xyz": [4.55242191214764, 6.100363191220859, 9.094479504911998], "label": "S", "properties": {}}, {"species": [{"element": "S", "occu": 1}], "abc": [0.27378686, 0.79443682, 0.30483608], "xyz": [1.71389232804386, 16.53858095213908, 15.500640315528], "label": "S", "properties": {}}, {"species": [{"element": "S", "occu": 1}], "abc": [0.27232928, 0.09512333, 0.20507778], "xyz": [1.70476794866528, 1.98027691320002, 10.428020542997999], "label": "S", "properties": {}}, {"species": [{"element": "S", "occu": 1}], "abc": [0.23464127, 0.59582867, 0.20463715], "xyz": [1.4688428527777702, 12.403957677087979, 10.405614904064999], "label": "S", "properties": {}}, {"species": [{"element": "S", "occu": 1}], "abc": [0.22607215, 0.29076283, 0.30634130000000004], "xyz": [1.41520058146465, 6.05309885036302, 15.577179397830003], "label": "S", "properties": {}}, {"species": [{"element": "S", "occu": 1}], "abc": [0.77106054, 0.79702144, 0.17768322], "xyz": [4.82680119843354, 16.59238755579136, 9.035031822102], "label": "S", "properties": {}}, {"species": [{"element": "S", "occu": 1}], "abc": [0.76971652, 0.49050502, 0.27961478], "xyz": [4.81838769909052, 10.211330563329879, 14.218159909698], "label": "S", "properties": {}}, {"species": [{"element": "S", "occu": 1}], "abc": [0.83636853, 0.85496335, 0.34016416], "xyz": [5.23562601574203, 17.7986218905199, 17.297041388255998], "label": "S", "properties": {}}, {"species": [{"element": "S", "occu": 1}], "abc": [0.83023077, 0.16259107, 0.23704371], "xyz": [5.19720393889227, 3.3848199197135798, 12.053459314161], "label": "S", "properties": {}}, {"species": [{"element": "S", "occu": 1}], "abc": [0.16749484, 0.9282966, 0.24648794], "xyz": [1.04850949115284, 19.3252730490204, 12.533689909853999], "label": "S", "properties": {}}, {"species": [{"element": "S", "occu": 1}], "abc": [0.16623432, 0.62015269, 0.34724700000000003], "xyz": [1.04061869771832, 12.910334979503858, 17.6571974277], "label": "S", "properties": {}}, {"species": [{"element": "S", "occu": 1}], "abc": [0.33005456, 0.12543209, 0.34538026], "xyz": [2.06612537292656, 2.6112444970274598, 17.562275378766], "label": "S", "properties": {}}, {"species": [{"element": "S", "occu": 1}], "abc": [0.32855256, 0.43022553, 0.24567435], "xyz": [2.05672292652456, 8.95643250218682, 12.492319590585002], "label": "S", "properties": {}}, {"species": [{"element": "S", "occu": 1}], "abc": [0.67583824, 0.65936143, 0.23661845], "xyz": [4.23071426632624, 13.72658229357142, 12.031835225895], "label": "S", "properties": {}}, {"species": [{"element": "S", "occu": 1}], "abc": [0.66347202, 0.36199161, 0.33775033000000004], "xyz": [4.153302335071021, 7.53593916503034, 17.174300305203], "label": "S", "properties": {}}, {"species": [{"element": "S", "occu": 1}], "abc": [0.25397958, 0.63921694, 0.42537729], "xyz": [1.5898997258005798, 13.307214421618358, 21.630052356939], "label": "S", "properties": {}}, {"species": [{"element": "S", "occu": 1}], "abc": [0.67817549, 0.23926498, 0.46022909], "xyz": [4.24534533680099, 4.98101691805012, 23.402235020319], "label": "S", "properties": {}}, {"species": [{"element": "S", "occu": 1}], "abc": [0.76023302, 0.73044337, 0.46238794], "xyz": [4.759021453782021, 15.20636569399978, 23.512010599854], "label": "S", "properties": {}}, {"species": [{"element": "S", "occu": 1}], "abc": [0.20918883, 0.13369339, 0.42325450000000003], "xyz": [1.30951182554733, 2.78322819085966, 21.52211039595], "label": "S", "properties": {}}, {"species": [{"element": "S", "occu": 1}], "abc": [0.22794763, 0.01534952, 0.47038108], "xyz": [1.42694099436613, 0.31954621526287996, 23.918454575028], "label": "S", "properties": {}}, {"species": [{"element": "S", "occu": 1}], "abc": [0.23831383, 0.31160739, 0.37063201], "xyz": [1.4918328984223301, 6.487040775375659, 18.846304139691], "label": "S", "properties": {}}, {"species": [{"element": "S", "occu": 1}], "abc": [0.80710655, 0.86018479, 0.41950728000000004], "xyz": [5.05244745477905, 17.90732179711126, 21.331567631448003], "label": "S", "properties": {}}, {"species": [{"element": "S", "occu": 1}], "abc": [0.73556404, 0.36586613, 0.41728374], "xyz": [4.60459484776204, 7.61659889914322, 21.218502623634002], "label": "S", "properties": {}}, {"species": [{"element": "S", "occu": 1}], "abc": [0.29595648, 0.81275741, 0.36888779], "xyz": [1.8526730629324801, 16.91997888483554, 18.757612122489], "label": "S", "properties": {}}, {"species": [{"element": "S", "occu": 1}], "abc": [0.30319243, 0.51243883, 0.46868509999999997], "xyz": [1.89796975537093, 10.667948488307019, 23.83221551841], "label": "S", "properties": {}}, {"species": [{"element": "S", "occu": 1}], "abc": [0.74929625, 0.38510829, 0.48286629000000003], "xyz": [4.69055780948375, 8.01718207057026, 24.553316266839], "label": "S", "properties": {}}, {"species": [{"element": "S", "occu": 1}], "abc": [0.73104037, 0.69077832, 0.37952210000000003], "xyz": [4.57627689522187, 14.380618921090077, 19.298357215110002], "label": "S", "properties": {}}, {"species": [{"element": "S", "occu": 1}], "abc": [0.26549347, 0.48934925, 0.40469380000000005], "xyz": [1.6619761130199702, 10.1872697504045, 20.57831550558], "label": "S", "properties": {}}, {"species": [{"element": "S", "occu": 1}], "abc": [0.23564889, 0.98286248, 0.40607795], "xyz": [1.47515050460439, 20.46122521146512, 20.648698287345002], "label": "S", "properties": {}}, {"species": [{"element": "S", "occu": 1}], "abc": [0.76698278, 0.18748017, 0.38030354], "xyz": [4.80127462064378, 3.90296105417898, 19.338092735814], "label": "S", "properties": {}}, {"species": [{"element": "S", "occu": 1}], "abc": [0.78251214, 0.88188226, 0.48368065000000005], "xyz": [4.89848765330514, 18.35901959738644, 24.594725739915003], "label": "S", "properties": {}}, {"species": [{"element": "S", "occu": 1}], "abc": [0.83537135, 0.55148628, 0.44100635000000005], "xyz": [5.22938371780385, 11.480838068122319, 22.424775991785], "label": "S", "properties": {}}, {"species": [{"element": "S", "occu": 1}], "abc": [0.15275949, 0.30607313, 0.44864977], "xyz": [0.95626692218499, 6.3718285839012205, 22.813437019707], "label": "S", "properties": {}}, {"species": [{"element": "S", "occu": 1}], "abc": [0.34754494, 0.82402517, 0.44906761], "xyz": [2.17561429469794, 17.154551044908978, 22.834683807651], "label": "S", "properties": {}}, {"species": [{"element": "S", "occu": 1}], "abc": [0.6640705, 0.05669154, 0.43790072], "xyz": [4.1570487905455, 1.1802041395707599, 22.266857501352], "label": "S", "properties": {}}]}, "formula": "(Li3PS4)20.0", "bandgap": 2.3326000000000002, "slab_thickness": 24.589640829915}