{"miller": "012_0.01", "final_energy": -700.00895541, "gamma": 0.013805103463649408, "work_function": "Not calculated", "ionization_potentail": "Not calculated", "electron_affinity": "Not calculated", "is_stochiometric": true, "incar_parameters": {"SYSTEM": "unknown system", "LCOMPAT": false, "PREC": "normal", "ENMAX": 520.0, "ENAUG": 628.945, "EDIFF": 1e-05, "IALGO": 38, "IWAVPR": 11, "NBANDS": 462, "NBANDSLOW": -1, "NBANDSHIGH": -1, "NELECT": 760.0, "TURBO": 0, "IRESTART": 0, "NREBOOT": 0, "NMIN": 0, "EREF": 0.0, "ISMEAR": 0, "SIGMA": 0.05, "KSPACING": 0.5, "KGAMMA": true, "KBLOWUP": true, "LREAL": true, "ROPT": [-0.0005, -0.0005, -0.0005], "LMAXPAW": -100, "LMAXMIX": 2, "NLSPLINE": false, "ISTART": 0, "ICHARG": 2, "INIWAV": 1, "ISPIN": 1, "LNONCOLLINEAR": false, "MAGMOM": [0.6, 0.6, 0.6, 0.6, 0.6, 0.6, 0.6, 0.6, 0.6, 0.6, 0.6, 0.6, 0.6, 0.6, 0.6, 0.6, 0.6, 0.6, 0.6, 0.6, 0.6, 0.6, 0.6, 0.6, 0.6, 0.6, 0.6, 0.6, 0.6, 0.6, 0.6, 0.6, 0.6, 0.6, 0.6, 0.6, 0.6, 0.6, 0.6, 0.6, 0.6, 0.6, 0.6, 0.6, 0.6, 0.6, 0.6, 0.6, 0.6, 0.6, 0.6, 0.6, 0.6, 0.6, 0.6, 0.6, 0.6, 0.6, 0.6, 0.6, 0.6, 0.6, 0.6, 0.6, 0.6, 0.6, 0.6, 0.6, 0.6, 0.6, 0.6, 0.6, 0.6, 0.6, 0.6, 0.6, 0.6, 0.6, 0.6, 0.6, 0.6, 0.6, 0.6, 0.6, 0.6, 0.6, 0.6, 0.6, 0.6, 0.6, 0.6, 0.6, 0.6, 0.6, 0.6, 0.6, 0.6, 0.6, 0.6, 0.6, 0.6, 0.6, 0.6, 0.6, 0.6, 0.6, 0.6, 0.6, 0.6, 0.6, 0.6, 0.6, 0.6, 0.6, 0.6, 0.6, 0.6, 0.6, 0.6, 0.6, 0.6, 0.6, 0.6, 0.6, 0.6, 0.6, 0.6, 0.6, 0.6, 0.6, 0.6, 0.6, 0.6, 0.6, 0.6, 0.6, 0.6, 0.6, 0.6, 0.6, 0.6, 0.6, 0.6, 0.6, 0.6, 0.6, 0.6, 0.6, 0.6, 0.6, 0.6, 0.6, 0.6, 0.6, 0.6, 0.6, 0.6, 0.6, 0.6, 0.6], "NUPDOWN": -1.0, "LSORBIT": false, "SAXIS": [0.0, 0.0, 1.0], "LSPIRAL": false, "QSPIRAL": [0.0, 0.0, 0.0], "LZEROZ": false, "LASPH": false, "LMETAGGA": false, "NELM": 100, "NELMDL": -5, "NELMIN": 6, "ENINI": 520.0, "LDIAG": true, "LSUBROT": false, "WEIMIN": 0.001, "EBREAK": 1e-08, "DEPER": 0.3, "NRMM": 4, "TIME": 0.4, "AMIX": 0.4, "BMIX": 1.0, "AMIN": 0.1, "AMIX_MAG": 1.6, "BMIX_MAG": 1.0, "IMIX": 4, "MIXFIRST": false, "MAXMIX": -45, "WC": 100.0, "INIMIX": 1, "MIXPRE": 1, "MREMOVE": 5, "LDIPOL": false, "LMONO": false, "IDIPOL": 0, "EPSILON": 1.0, "DIPOL": [-100.0, -100.0, -100.0], "EFIELD": 0.0, "NGX": 36, "NGY": 120, "NGZ": 288, "NGXF": 72, "NGYF": 240, "NGZF": 576, "ADDGRID": false, "NSW": 150, "IBRION": 2, "MDALGO": 0, "ISIF": 2, "PSTRESS": 0.0, "EDIFFG": -0.01, "NFREE": 1, "POTIM": 0.5, "SMASS": -3.0, "SCALEE": 1.0, "TEBEG": 0.0001, "TEEND": 0.0001, "NBLOCK": 1, "KBLOCK": 150, "NPACO": 256, "APACO": 10.0, "ISYM": 0, "SYMPREC": 1e-05, "LORBIT": 11, "RWIGS": [-1.0, -1.0, -1.0], "NEDOS": 301, "EMIN": 10.0, "EMAX": -10.0, "EFERMI": 0.0, "NWRITE": 2, "LWAVE": false, "LDOWNSAMPLE": false, "LCHARG": false, "LPARD": false, "LVTOT": false, "LVHAR": false, "LELF": false, "LOPTICS": false, "STM": [0.0, 0.0, 0.0, 0.0, 0.0, 0.0, 0.0], "NPAR": 2, "NSIM": 4, "NBLK": -1, "LPLANE": true, "LSCALAPACK": true, "LSCAAWARE": false, "LSCALU": false, "LASYNC": false, "LORBITALREAL": false, "IDIOT": 3, "PHON_NSTRUCT": -1, "LMUSIC": false, "POMASS": [7.01, 30.974, 32.066], "DARWINR": [0.0, 0.0, 0.0], "DARWINV": [1.0, 1.0, 1.0], "LCORR": true, "GGA_COMPAT": true, "LBERRY": false, "ICORELEVEL": 0, "LDAU": false, "I_CONSTRAINED_M": 0, "GGA": "--", "VOSKOWN": 0, "LHFCALC": false, "PRECFOCK": "", "LSYMGRAD": false, "LHFONE": false, "LRHFCALC": false, "LTHOMAS": false, "LMODELHF": false, "LFOCKACE": false, "ENCUT4O": -1.0, "EXXOEP": 0, "FOURORBIT": 0, "AEXX": 0.0, "HFALPHA": 0.0, "MCALPHA": 0.0, "ALDAX": 1.0, "AGGAX": 1.0, "ALDAC": 1.0, "AGGAC": 1.0, "NKREDX": 1, "NKREDY": 1, "NKREDZ": 1, "SHIFTRED": false, "ODDONLY": false, "EVENONLY": false, "LMAXFOCK": 0, "NMAXFOCKAE": 0, "LFOCKAEDFT": false, "HFSCREEN": 0.0, "HFSCREENC": 0.0, "NBANDSGWLOW": 0, "LUSE_VDW": false, "Zab_VDW": -0.8491, "PARAM1": 0.1234, "PARAM2": 1.0, "PARAM3": 0.0, "MODEL_GW": 0, "MODEL_EPS0": 24.84988316, "MODEL_ALPHA": 1.0, "LEPSILON": false, "LRPA": false, "LNABLA": false, "LVEL": false, "CSHIFT": 0.1, "OMEGAMAX": -1.0, "DEG_THRESHOLD": 0.002, "RTIME": -0.1, "WPLASMAI": 0.0, "DFIELD": [0.0, 0.0, 0.0], "WPLASMA": [0.0, 0.0, 0.0, 0.0, 0.0, 0.0, 0.0, 0.0, 0.0], "NUCIND": false, "MAGPOS": [0.0, 0.0, 0.0], "LNICSALL": true, "ORBITALMAG": false, "LMAGBLOCH": false, "LCHIMAG": false, "LGAUGE": true, "MAGATOM": 0, "MAGDIPOL": [0.0, 0.0, 0.0], "AVECCONST": [0.0, 0.0, 0.0], "LFINITE_TEMPERATURE": false, "LADDER": false, "LRPAFORCE": false, "LFXC": false, "LHARTREE": true, "IBSE": 0, "KPOINT": [-1, 0, 0, 0], "LTCTC": false, "LTCTE": false, "LTETE": false, "LTRIPLET": false, "LFXCEPS": false, "LFXHEG": false, "NATURALO": 2, "LHOLEGF": false, "L2ORDER": false, "LDMP1": false, "LMP2LT": false, "LSMP2LT": false, "LGWLF": false, "ENCUTGW": -2.0, "ENCUTGWSOFT": -2.0, "ENCUTLF": -1.0, "LESF_SPLINES": false, "LMAXMP2": -1, "SCISSOR": 0.0, "NOMEGA": 0, "NOMEGAR": 0, "NBANDSGW": -1, "NBANDSO": -1, "NBANDSV": -1, "NELMGW": 1, "NELMHF": 1, "DIM": 3, "IESPILON": 4, "ANTIRES": 0, "OMEGAMIN": -30.0, "OMEGATL": -200.0, "OMEGAGRID": 0, "LSELFENERGY": false, "LSPECTRAL": false, "LSPECTRALGW": false, "LSINGLES": false, "LFERMIGW": false, "ODDONLYGW": false, "EVENONLYGW": false, "NKREDLFX": 1, "NKREDLFY": 1, "NKREDLFZ": 1, "MAXMEM": 2800, "TELESCOPE": 0, "NTAUPAR": -1, "NOMEGAPAR": -1, "DAMP_NEWTON": 0.80000001, "LAMBDA": 1.0, "OFIELD_KAPPA": 0.0, "OFIELD_K": [0.0, 0.0, 0.0], "OFIELD_Q6_NEAR": 0.0, "OFIELD_Q6_FAR": 0.0, "OFIELD_A": 0.0, "KPOINTS_OPT_MODE": 1, "LKPOINTS_OPT": false, "@module": "pymatgen.io.vasp.inputs", "@class": "Incar"}, "relaxed_structures": {"@module": "pymatgen.core.structure", "@class": "Structure", "charge": 0, "lattice": {"matrix": [[6.259951, 0.0, 0.0], [0.0, 20.817994, 0.0], [0.0, 0.0, 50.8491]], "a": 6.259951, "b": 20.817994, "c": 50.8491, "alpha": 90.0, "beta": 90.0, "gamma": 90.0, "volume": 6626.6355092591275}, "sites": [{"species": [{"element": "Li", "occu": 1}], "abc": [0.87656841, 0.7516653, 0.07609519], "xyz": [5.48727529474791, 15.648163705408198, 3.869371925829], "label": "Li", "properties": {}}, {"species": [{"element": "Li", "occu": 1}], "abc": [0.07948625, 0.33353596, 0.10197026], "xyz": [0.49758003017374997, 6.94354961406424, 5.1850959477659995], "label": "Li", "properties": {}}, {"species": [{"element": "Li", "occu": 1}], "abc": [0.06350863, 0.64454432, 0.007296930000000007], "xyz": [0.39756091187713, 13.418119786494078, 0.37104232326300035], "label": "Li", "properties": {}}, {"species": [{"element": "Li", "occu": 1}], "abc": [0.41174325, 0.15426613, 0.011490070000000005], "xyz": [2.57749256958075, 3.2115113687432197, 0.5842597184370003], "label": "Li", "properties": {}}, {"species": [{"element": "Li", "occu": 1}], "abc": [0.3746113, 0.83381464, 0.10613090000000001], "xyz": [2.3450483820462997, 17.35834817263216, 5.39666074719], "label": "Li", "properties": {}}, {"species": [{"element": "Li", "occu": 1}], "abc": [0.56964656, 0.25242418, 0.07626474000000001], "xyz": [3.56595955291856, 5.25496506469492, 3.8779933907340007], "label": "Li", "properties": {}}, {"species": [{"element": "Li", "occu": 1}], "abc": [0.61178142, 0.41689454, 0.024227559999999995], "xyz": [3.82972171191042, 8.678908032352759, 1.2319496211959997], "label": "Li", "properties": {}}, {"species": [{"element": "Li", "occu": 1}], "abc": [0.62496088, 0.11571645, 0.12108845], "xyz": [3.91222448571688, 2.4089843618013, 6.157238702895], "label": "Li", "properties": {}}, {"species": [{"element": "Li", "occu": 1}], "abc": [0.42278472, 0.96361232, 0.06218699], "xyz": [2.64661163074872, 20.060475496086077, 3.162152473209], "label": "Li", "properties": {}}, {"species": [{"element": "Li", "occu": 1}], "abc": [0.13292489, 0.46339237, 0.05887283], "xyz": [0.83210329808039, 9.64689957830578, 2.993630419953], "label": "Li", "properties": {}}, {"species": [{"element": "Li", "occu": 1}], "abc": [0.91956269, 0.62058384, 0.12126284999999999], "xyz": [5.75641738082819, 12.91931065761696, 6.166106785935], "label": "Li", "properties": {}}, {"species": [{"element": "Li", "occu": 1}], "abc": [0.96373639, 0.93625101, 0.028167819999999996], "xyz": [6.03294257831689, 19.490867908673938, 1.4323082959619997], "label": "Li", "properties": {}}, {"species": [{"element": "Li", "occu": 1}], "abc": [0.42913559, 0.3702958, 0.14451713], "xyz": [2.6863677657560903, 7.7088157426252, 7.348565995083], "label": "Li", "properties": {}}, {"species": [{"element": "Li", "occu": 1}], "abc": [0.43534164, 0.66805707, 0.04735604], "xyz": [2.72521733465964, 13.90760807491758, 2.408012013564], "label": "Li", "properties": {}}, {"species": [{"element": "Li", "occu": 1}], "abc": [0.93426407, 0.21546469, 0.032272140000000005], "xyz": [5.84844729926057, 4.48554262363186, 1.6410092740740003], "label": "Li", "properties": {}}, {"species": [{"element": "Li", "occu": 1}], "abc": [0.93092464, 0.90940402, 0.13742448000000002], "xyz": [5.82754263109264, 18.931967431935877, 6.987911125968001], "label": "Li", "properties": {}}, {"species": [{"element": "Li", "occu": 1}], "abc": [0.07249168, 0.06376394, 0.0841234], "xyz": [0.45379436470768003, 1.32743732033636, 4.27759917894], "label": "Li", "properties": {}}, {"species": [{"element": "Li", "occu": 1}], "abc": [0.56628449, 0.52613537, 0.09829397], "xyz": [3.5449131594599903, 10.95308297584778, 4.998159909927], "label": "Li", "properties": {}}, {"species": [{"element": "Li", "occu": 1}], "abc": [0.56571892, 0.81079652, 0.0039942900000000045], "xyz": [3.5413727189729203, 16.87915708858088, 0.20310605163900022], "label": "Li", "properties": {}}, {"species": [{"element": "Li", "occu": 1}], "abc": [0.87352001, 0.14251796, 0.27744037], "xyz": [5.46819246011951, 2.9669380361722397, 14.107593118167], "label": "Li", "properties": {}}, {"species": [{"element": "Li", "occu": 1}], "abc": [0.86922677, 0.44571227, 0.17654975], "xyz": [5.44131698808827, 9.27883536258638, 8.977395892725001], "label": "Li", "properties": {}}, {"species": [{"element": "Li", "occu": 1}], "abc": [0.08095609, 0.72675213, 0.30368226], "xyz": [0.50678115655159, 15.12952148182722, 15.441969606966], "label": "Li", "properties": {}}, {"species": [{"element": "Li", "occu": 1}], "abc": [0.08390407, 0.03072936, 0.20346596], "xyz": [0.5252353669005699, 0.63972363210384, 10.346060946636], "label": "Li", "properties": {}}, {"species": [{"element": "Li", "occu": 1}], "abc": [0.37035591, 0.52840144, 0.20595177999999997], "xyz": [2.31840984916041, 11.00025800751136, 10.472462656398], "label": "Li", "properties": {}}, {"species": [{"element": "Li", "occu": 1}], "abc": [0.37113426, 0.22593411, 0.30672378], "xyz": [2.32328228202126, 4.70349494637534, 15.596628161598], "label": "Li", "properties": {}}, {"species": [{"element": "Li", "occu": 1}], "abc": [0.58169271, 0.9447832, 0.17970243000000002], "xyz": [3.64136786165721, 19.6684909889008, 9.137706833313], "label": "Li", "properties": {}}, {"species": [{"element": "Li", "occu": 1}], "abc": [0.58297497, 0.6404003, 0.27951548], "xyz": [3.64939474642647, 13.3318496029982, 14.213110594067999], "label": "Li", "properties": {}}, {"species": [{"element": "Li", "occu": 1}], "abc": [0.62601116, 0.81035098, 0.22179094], "xyz": [3.91879918705316, 16.86988183953412, 11.277869687154], "label": "Li", "properties": {}}, {"species": [{"element": "Li", "occu": 1}], "abc": [0.62287094, 0.50547605, 0.32200386999999997], "xyz": [3.8991415637239397, 10.522997376043698, 16.373606986017], "label": "Li", "properties": {}}, {"species": [{"element": "Li", "occu": 1}], "abc": [0.4170106, 0.65808393, 0.16118041], "xyz": [2.6104659224806, 13.69998730623642, 8.195878786130999], "label": "Li", "properties": {}}, {"species": [{"element": "Li", "occu": 1}], "abc": [0.41395745, 0.35426956, 0.26228939], "xyz": [2.59135335308495, 7.375181574462639, 13.337179421049001], "label": "Li", "properties": {}}, {"species": [{"element": "Li", "occu": 1}], "abc": [0.12917139, 0.8611398, 0.26201657], "xyz": [0.80860657200189, 17.927203189561197, 13.323306769587], "label": "Li", "properties": {}}, {"species": [{"element": "Li", "occu": 1}], "abc": [0.12394399, 0.16543948, 0.16153284], "xyz": [0.77588330414449, 3.4441181020031197, 8.213799534444], "label": "Li", "properties": {}}, {"species": [{"element": "Li", "occu": 1}], "abc": [0.9188012, 0.01339663, 0.32235247], "xyz": [5.7516504907412, 0.27889096296022, 16.391332982277], "label": "Li", "properties": {}}, {"species": [{"element": "Li", "occu": 1}], "abc": [0.91112967, 0.31662429, 0.22108403999999998], "xyz": [5.70362708884617, 6.591482569474259, 11.241924458363998], "label": "Li", "properties": {}}, {"species": [{"element": "Li", "occu": 1}], "abc": [0.43043442, 0.761889, 0.34606796], "xyz": [2.69449837791342, 15.861000630666, 17.597244304836], "label": "Li", "properties": {}}, {"species": [{"element": "Li", "occu": 1}], "abc": [0.4346002, 0.06819994, 0.24530956999999998], "xyz": [2.7205759565902, 1.41978594172036, 12.473770855886999], "label": "Li", "properties": {}}, {"species": [{"element": "Li", "occu": 1}], "abc": [0.93464268, 0.60283565, 0.23827163], "xyz": [5.85081737930868, 12.549828944686098, 12.115897941033001], "label": "Li", "properties": {}}, {"species": [{"element": "Li", "occu": 1}], "abc": [0.92865838, 0.30069292, 0.33910461999999997], "xyz": [5.8133559545393805, 6.259823404402479, 17.243164732841997], "label": "Li", "properties": {}}, {"species": [{"element": "Li", "occu": 1}], "abc": [0.06297282, 0.75015668, 0.18515077000000002], "xyz": [0.39420676753182, 15.61675726329992, 9.414750018807], "label": "Li", "properties": {}}, {"species": [{"element": "Li", "occu": 1}], "abc": [0.06330051, 0.44545117, 0.28564318], "xyz": [0.39625809087501, 9.27339978435298, 14.524698624137999], "label": "Li", "properties": {}}, {"species": [{"element": "Li", "occu": 1}], "abc": [0.56826311, 0.92110405, 0.29864636], "xyz": [3.5572992237076098, 19.1755385862757, 15.185898624276], "label": "Li", "properties": {}}, {"species": [{"element": "Li", "occu": 1}], "abc": [0.55709116, 0.22515045, 0.19750407999999997], "xyz": [3.4873633641331603, 4.6871807171972995, 10.042904714327998], "label": "Li", "properties": {}}, {"species": [{"element": "Li", "occu": 1}], "abc": [0.90628606, 0.51724059, 0.47177997999999993], "xyz": [5.67330632758306, 10.76791149917646, 23.989587381017998], "label": "Li", "properties": {}}, {"species": [{"element": "Li", "occu": 1}], "abc": [0.87531353, 0.83742981, 0.37777581], "xyz": [5.47941980743703, 17.43360876000114, 19.209559940271], "label": "Li", "properties": {}}, {"species": [{"element": "Li", "occu": 1}], "abc": [0.06777731, 0.41907831, 0.40717246], "xyz": [0.42428263951180994, 8.72436974311014, 20.704353135786], "label": "Li", "properties": {}}, {"species": [{"element": "Li", "occu": 1}], "abc": [0.38108687, 0.91963689, 0.40752525], "xyz": [2.38558513294337, 19.14499525819866, 20.722292189775], "label": "Li", "properties": {}}, {"species": [{"element": "Li", "occu": 1}], "abc": [0.57530658, 0.33742805, 0.38181749], "xyz": [3.6013910007775802, 7.024575120331699, 19.415075730759], "label": "Li", "properties": {}}, {"species": [{"element": "Li", "occu": 1}], "abc": [0.56376381, 0.02610019, 0.47661720999999996], "xyz": [3.52913382617331, 0.5433535988188599, 24.235556173011], "label": "Li", "properties": {}}, {"species": [{"element": "Li", "occu": 1}], "abc": [0.63642938, 0.20655769, 0.42475131], "xyz": [3.9840167337603805, 4.300116751073859, 21.598221837321], "label": "Li", "properties": {}}, {"species": [{"element": "Li", "occu": 1}], "abc": [0.41896447, 0.05065288, 0.36229458999999997], "xyz": [2.62269705294097, 1.05449135192272, 18.422353836369], "label": "Li", "properties": {}}, {"species": [{"element": "Li", "occu": 1}], "abc": [0.4632471, 0.73481587, 0.45541799999999993], "xyz": [2.8999041468921, 15.29739237276478, 23.157595423799997], "label": "Li", "properties": {}}, {"species": [{"element": "Li", "occu": 1}], "abc": [0.11546633, 0.25413215, 0.45863263000000004], "xyz": [0.7228135679498301, 5.2905215739071, 23.321056466133], "label": "Li", "properties": {}}, {"species": [{"element": "Li", "occu": 1}], "abc": [0.12205275, 0.55586189, 0.36225961], "xyz": [0.76404423441525, 11.571929490848659, 18.420575134851], "label": "Li", "properties": {}}, {"species": [{"element": "Li", "occu": 1}], "abc": [0.91980278, 0.70728129, 0.42139581], "xyz": [5.75792033246378, 14.724177651532258, 21.427597682271], "label": "Li", "properties": {}}, {"species": [{"element": "Li", "occu": 1}], "abc": [0.43202698, 0.45573605, 0.45128580999999995], "xyz": [2.70446772547798, 9.4875103544837, 22.947477281271], "label": "Li", "properties": {}}, {"species": [{"element": "Li", "occu": 1}], "abc": [0.93765311, 0.00308058, 0.43620758], "xyz": [5.86966252359761, 0.06413149595652, 22.180762856178], "label": "Li", "properties": {}}, {"species": [{"element": "Li", "occu": 1}], "abc": [0.06637898, 0.14609461, 0.38483018999999996], "xyz": [0.41552916222998004, 3.04139671441234, 19.568268814329], "label": "Li", "properties": {}}, {"species": [{"element": "Li", "occu": 1}], "abc": [0.0680464, 0.85981374, 0.4796683], "xyz": [0.42596712972640005, 17.899597280437558, 24.390701353529998], "label": "Li", "properties": {}}, {"species": [{"element": "Li", "occu": 1}], "abc": [0.56904498, 0.60782243, 0.39906926], "xyz": [3.56219369159598, 12.65364370080542, 20.292312708666], "label": "Li", "properties": {}}, {"species": [{"element": "P", "occu": 1}], "abc": [0.15846512, 0.49996449, 0.13374961000000002], "xyz": [0.9919838864091199, 10.408257753033059, 6.801047293851001], "label": "P", "properties": {}}, {"species": [{"element": "P", "occu": 1}], "abc": [0.16992538, 0.80515284, 0.031822790000000004], "xyz": [1.0637245524563799, 16.761666992202958, 1.6181602309890002], "label": "P", "properties": {}}, {"species": [{"element": "P", "occu": 1}], "abc": [0.8404429, 0.58241456, 0.04834444], "xyz": [5.2611313722979, 12.12470281559264, 2.4582712640040003], "label": "P", "properties": {}}, {"species": [{"element": "P", "occu": 1}], "abc": [0.66459931, 0.08378711, 0.04905614], "xyz": [4.160359115233811, 1.7442795532573399, 2.494460568474], "label": "P", "properties": {}}, {"species": [{"element": "P", "occu": 1}], "abc": [0.32282935, 0.30612282, 0.029701100000000008], "xyz": [2.02089591236185, 6.37286303002308, 1.5102742040100003], "label": "P", "properties": {}}, {"species": [{"element": "P", "occu": 1}], "abc": [0.3413914, 0.00056639, 0.13420688000000003], "xyz": [2.1370934358214, 0.011791103621659998, 6.824299061808001], "label": "P", "properties": {}}, {"species": [{"element": "P", "occu": 1}], "abc": [0.16102253, 0.89274552, 0.33537124], "xyz": [1.00799314769603, 18.585170878886878, 17.053325719884], "label": "P", "properties": {}}, {"species": [{"element": "P", "occu": 1}], "abc": [0.15628762, 0.19665788, 0.23453143999999998], "xyz": [0.97835284310662, 4.09402256589272, 11.925712645704], "label": "P", "properties": {}}, {"species": [{"element": "P", "occu": 1}], "abc": [0.84271944, 0.9744717, 0.24919279], "xyz": [5.27538240114744, 20.2865460037698, 12.671229097989], "label": "P", "properties": {}}, {"species": [{"element": "P", "occu": 1}], "abc": [0.83691663, 0.27827602, 0.14808368], "xyz": [5.239057094885131, 5.79314851470388, 7.529921852688], "label": "P", "properties": {}}, {"species": [{"element": "P", "occu": 1}], "abc": [0.65992175, 0.77867705, 0.14825854], "xyz": [4.13107781883425, 16.210494154837697, 7.538813326314], "label": "P", "properties": {}}, {"species": [{"element": "P", "occu": 1}], "abc": [0.65655726, 0.47461548, 0.24879595999999998], "xyz": [4.11001627629426, 9.88054221494712, 12.651050649636], "label": "P", "properties": {}}, {"species": [{"element": "P", "occu": 1}], "abc": [0.34041904, 0.69692297, 0.23413818999999997], "xyz": [2.13100650986704, 14.50853820792218, 11.905716237128999], "label": "P", "properties": {}}, {"species": [{"element": "P", "occu": 1}], "abc": [0.33595973, 0.39276612, 0.33536008], "xyz": [2.10309144777323, 8.17660272956328, 17.052758243928], "label": "P", "properties": {}}, {"species": [{"element": "P", "occu": 1}], "abc": [0.16212172, 0.58753581, 0.43433657999999997], "xyz": [1.01487402323572, 12.231316967365139, 22.085624190077997], "label": "P", "properties": {}}, {"species": [{"element": "P", "occu": 1}], "abc": [0.82203239, 0.3650274, 0.45373031], "xyz": [5.145882481812889, 7.5991382230356, 23.071777906221], "label": "P", "properties": {}}, {"species": [{"element": "P", "occu": 1}], "abc": [0.83907412, 0.6707433, 0.34917049], "xyz": [5.2525628765681205, 13.9635299949402, 17.755005163059], "label": "P", "properties": {}}, {"species": [{"element": "P", "occu": 1}], "abc": [0.65861293, 0.17111528, 0.349729], "xyz": [4.12288466976643, 3.56227687234832, 17.783404893900002], "label": "P", "properties": {}}, {"species": [{"element": "P", "occu": 1}], "abc": [0.67173775, 0.86561912, 0.45217833], "xyz": [4.20504539985025, 18.02045364644528, 22.992861120003], "label": "P", "properties": {}}, {"species": [{"element": "P", "occu": 1}], "abc": [0.34222632, 0.0882384, 0.43524163], "xyz": [2.14231999411032, 1.8369464817695997, 22.131645168033], "label": "P", "properties": {}}, {"species": [{"element": "S", "occu": 1}], "abc": [0.29433788, 0.58761641, 0.12527579], "xyz": [1.8425407062438799, 12.23299489768154, 6.370161173289], "label": "S", "properties": {}}, {"species": [{"element": "S", "occu": 1}], "abc": [0.32142924, 0.8913793, 0.0237203], "xyz": [2.01213129236724, 18.556728919124197, 1.20615590673], "label": "S", "properties": {}}, {"species": [{"element": "S", "occu": 1}], "abc": [0.74439428, 0.49087764, 0.05789574], "xyz": [4.6598717174802795, 10.219087764254159, 2.9439462728340002], "label": "S", "properties": {}}, {"species": [{"element": "S", "occu": 1}], "abc": [0.79232164, 0.99667552, 0.06107147], "xyz": [4.95989464263964, 20.74878499530688, 3.1054292851770002], "label": "S", "properties": {}}, {"species": [{"element": "S", "occu": 1}], "abc": [0.23626636, 0.39914798, 0.0214366], "xyz": [1.47901583654836, 8.30946025275212, 1.09003181706], "label": "S", "properties": {}}, {"species": [{"element": "S", "occu": 1}], "abc": [0.23890166, 0.09227902, 0.12586334], "xyz": [1.49551268541866, 1.92106408468588, 6.400037561993999], "label": "S", "properties": {}}, {"species": [{"element": "S", "occu": 1}], "abc": [0.193273, 0.26958524, 0.06427556], "xyz": [1.209879509623, 5.61222390880856, 3.268354377996], "label": "S", "properties": {}}, {"species": [{"element": "S", "occu": 1}], "abc": [0.76128701, 0.81931491, 0.11334089000000001], "xyz": [4.76561937953651, 17.056492880490538, 5.763282249699], "label": "S", "properties": {}}, {"species": [{"element": "S", "occu": 1}], "abc": [0.77570595, 0.11444171, 0.013638010000000006], "xyz": [4.8558812374084495, 2.38244683212974, 0.6934805342910003], "label": "S", "properties": {}}, {"species": [{"element": "S", "occu": 1}], "abc": [0.7000827, 0.61867444, 0.015217179999999997], "xyz": [4.382483397947699, 12.87956077987336, 0.7737799075379999], "label": "S", "properties": {}}, {"species": [{"element": "S", "occu": 1}], "abc": [0.70224155, 0.31713283, 0.11490819000000001], "xyz": [4.39599769316405, 6.602069352143019, 5.8429780441290005], "label": "S", "properties": {}}, {"species": [{"element": "S", "occu": 1}], "abc": [0.2660984, 0.76483434, 0.06672295], "xyz": [1.6657629451784002, 15.922316701113958, 3.392801956845], "label": "S", "properties": {}}, {"species": [{"element": "S", "occu": 1}], "abc": [0.73663878, 0.64081928, 0.07921790999999999], "xyz": [4.61132266749978, 13.34057192612432, 4.0281594273809995], "label": "S", "properties": {}}, {"species": [{"element": "S", "occu": 1}], "abc": [0.26847645, 0.43889361, 0.10435587], "xyz": [1.6806494216539498, 9.13688453961834, 5.306402069217], "label": "S", "properties": {}}, {"species": [{"element": "S", "occu": 1}], "abc": [0.25174637, 0.74531817, 0.0012073400000000012], "xyz": [1.5759199406278699, 15.51602919115098, 0.06139215239400006], "label": "S", "properties": {}}, {"species": [{"element": "S", "occu": 1}], "abc": [0.21851018, 0.24774416, 0.00010000000000000286], "xyz": [1.36786301980118, 5.15753643641504, 0.0050849100000001455], "label": "S", "properties": {}}, {"species": [{"element": "S", "occu": 1}], "abc": [0.23141858, 0.94317055, 0.10345897999999999], "xyz": [1.4486689712895802, 19.6349188508767, 5.260796019918], "label": "S", "properties": {}}, {"species": [{"element": "S", "occu": 1}], "abc": [0.76339307, 0.14775631, 0.07783016999999999], "xyz": [4.77880321193957, 3.07598997504214, 3.9575940973469996], "label": "S", "properties": {}}, {"species": [{"element": "S", "occu": 1}], "abc": [0.83337736, 0.51058485, 0.13632049000000002], "xyz": [5.2169014381093595, 10.629352343790899, 6.931774228059001], "label": "S", "properties": {}}, {"species": [{"element": "S", "occu": 1}], "abc": [0.84779358, 0.82431004, 0.035442310000000005], "xyz": [5.307146268914581, 17.160481466859757, 1.8022095654210002], "label": "S", "properties": {}}, {"species": [{"element": "S", "occu": 1}], "abc": [0.16647214, 0.57821385, 0.043109690000000006], "xyz": [1.04210743926514, 12.0372524600169, 2.1920889377790003], "label": "S", "properties": {}}, {"species": [{"element": "S", "occu": 1}], "abc": [0.33769765, 0.07303426, 0.04568854], "xyz": [2.1139707418151503, 1.52042678647444, 2.323221139314], "label": "S", "properties": {}}, {"species": [{"element": "S", "occu": 1}], "abc": [0.65223035, 0.30635661, 0.03460007], "xyz": [4.082930031712849, 6.377730068840339, 1.7593824194369998], "label": "S", "properties": {}}, {"species": [{"element": "S", "occu": 1}], "abc": [0.66590865, 0.00468623, 0.13884176999999998], "xyz": [4.16855551947615, 0.09755790802262, 7.0599790469069985], "label": "S", "properties": {}}, {"species": [{"element": "S", "occu": 1}], "abc": [0.29519209, 0.98014614, 0.32671929], "xyz": [1.8478880189875901, 20.40467646164316, 16.613381849139], "label": "S", "properties": {}}, {"species": [{"element": "S", "occu": 1}], "abc": [0.28835856, 0.28450834, 0.22599956], "xyz": [1.80511045603056, 5.92289291506996, 11.491874226396], "label": "S", "properties": {}}, {"species": [{"element": "S", "occu": 1}], "abc": [0.74176077, 0.88267467, 0.25786376], "xyz": [4.64338607392227, 18.37551598401198, 13.112140118616], "label": "S", "properties": {}}, {"species": [{"element": "S", "occu": 1}], "abc": [0.73735289, 0.18659278, 0.15719581999999999], "xyz": [4.61579296110839, 3.88448737448332, 7.993265970761999], "label": "S", "properties": {}}, {"species": [{"element": "S", "occu": 1}], "abc": [0.79403639, 0.69117247, 0.15674626000000003], "xyz": [4.97062889361689, 14.38882433342518, 7.970406249366001], "label": "S", "properties": {}}, {"species": [{"element": "S", "occu": 1}], "abc": [0.78978297, 0.38684869, 0.25729507], "xyz": [4.94400269283447, 8.05341370732786, 13.083222743937], "label": "S", "properties": {}}, {"species": [{"element": "S", "occu": 1}], "abc": [0.23950915, 0.78882176, 0.22568004999999997], "xyz": [1.49931554305165, 16.42168666674944, 11.475627430454999], "label": "S", "properties": {}}, {"species": [{"element": "S", "occu": 1}], "abc": [0.23579866, 0.48431139, 0.32618760999999996], "xyz": [1.47608805746566, 10.08239161115166, 16.586346399651], "label": "S", "properties": {}}, {"species": [{"element": "S", "occu": 1}], "abc": [0.2073622, 0.65790375, 0.26744807], "xyz": [1.2980772112521999, 13.6962363200775, 13.599493656237], "label": "S", "properties": {}}, {"species": [{"element": "S", "occu": 1}], "abc": [0.20596264, 0.96097413, 0.16728192000000003], "xyz": [1.28931603423064, 20.005553672495218, 8.506135078272], "label": "S", "properties": {}}, {"species": [{"element": "S", "occu": 1}], "abc": [0.75969559, 0.21119463, 0.31488623], "xyz": [4.75565716831609, 4.39664854017222, 16.011681397893], "label": "S", "properties": {}}, {"species": [{"element": "S", "occu": 1}], "abc": [0.75795487, 0.51482059, 0.21394218999999998], "xyz": [4.74476034641137, 10.71753195369646, 10.878767813528999], "label": "S", "properties": {}}, {"species": [{"element": "S", "occu": 1}], "abc": [0.70882277, 0.01351331, 0.21593223], "xyz": [4.437195807884271, 0.28132000650014, 10.979959556493], "label": "S", "properties": {}}, {"species": [{"element": "S", "occu": 1}], "abc": [0.70461408, 0.71023178, 0.31602548999999996], "xyz": [4.41084961471008, 14.785600934649318, 16.069611743558998], "label": "S", "properties": {}}, {"species": [{"element": "S", "occu": 1}], "abc": [0.25845055, 0.45984054, 0.16864609000000003], "xyz": [1.61788777892305, 9.57295760267676, 8.575501895019002], "label": "S", "properties": {}}, {"species": [{"element": "S", "occu": 1}], "abc": [0.25908086, 0.15669761, 0.26939695999999996], "xyz": [1.6218334886378603, 3.2621299047943397, 13.698592958735999], "label": "S", "properties": {}}, {"species": [{"element": "S", "occu": 1}], "abc": [0.73049045, 0.03136133, 0.27995957], "xyz": [4.57283442296795, 0.65287997977202, 14.235692170886999], "label": "S", "properties": {}}, {"species": [{"element": "S", "occu": 1}], "abc": [0.72501324, 0.33527554, 0.17888778], "xyz": [4.53854735675124, 6.979764180066759, 9.096282613998], "label": "S", "properties": {}}, {"species": [{"element": "S", "occu": 1}], "abc": [0.27119712, 0.83144954, 0.30603864], "xyz": [1.6976806825411201, 17.30911153502276, 15.561789409223998], "label": "S", "properties": {}}, {"species": [{"element": "S", "occu": 1}], "abc": [0.26990762, 0.13555414, 0.20519220999999999], "xyz": [1.68960847572662, 2.8219652731951594, 10.433839205511], "label": "S", "properties": {}}, {"species": [{"element": "S", "occu": 1}], "abc": [0.22757569, 0.63997318, 0.20345830999999998], "xyz": [1.42461266819119, 13.32295782140092, 10.345671951020998], "label": "S", "properties": {}}, {"species": [{"element": "S", "occu": 1}], "abc": [0.22575925, 0.33567234, 0.30448411999999997], "xyz": [1.41324184279675, 6.98802476008596, 15.482743466291998], "label": "S", "properties": {}}, {"species": [{"element": "S", "occu": 1}], "abc": [0.77023267, 0.83977362, 0.17764038999999998], "xyz": [4.8216187727991695, 17.48240218251828, 9.032853955149], "label": "S", "properties": {}}, {"species": [{"element": "S", "occu": 1}], "abc": [0.76925641, 0.53555134, 0.27821581], "xyz": [4.8155074330359104, 11.14910458281196, 14.147023544271], "label": "S", "properties": {}}, {"species": [{"element": "S", "occu": 1}], "abc": [0.83585574, 0.90264981, 0.337901], "xyz": [5.23241597546874, 18.791358328681138, 17.1819617391], "label": "S", "properties": {}}, {"species": [{"element": "S", "occu": 1}], "abc": [0.8309511, 0.20549413, 0.23666779], "xyz": [5.2017131693961005, 4.27797556537522, 12.034344120489], "label": "S", "properties": {}}, {"species": [{"element": "S", "occu": 1}], "abc": [0.16797486, 0.97124163, 0.24483339999999998], "xyz": [1.05151439283186, 20.21930242589022, 12.44955803994], "label": "S", "properties": {}}, {"species": [{"element": "S", "occu": 1}], "abc": [0.16226214, 0.2747561, 0.14363758999999998], "xyz": [1.01575304555514, 5.7198708412634, 7.303842177668999], "label": "S", "properties": {}}, {"species": [{"element": "S", "occu": 1}], "abc": [0.33467919, 0.76874927, 0.14585607], "xyz": [2.0950753301196903, 16.00381769036438, 7.416649889037], "label": "S", "properties": {}}, {"species": [{"element": "S", "occu": 1}], "abc": [0.33117963, 0.46519701, 0.24663805], "xyz": [2.07316825599813, 9.68446856299794, 12.541322868255], "label": "S", "properties": {}}, {"species": [{"element": "S", "occu": 1}], "abc": [0.66584694, 0.69993593, 0.23828003999999997], "xyz": [4.16816921789994, 14.57126199112442, 12.116325581963999], "label": "S", "properties": {}}, {"species": [{"element": "S", "occu": 1}], "abc": [0.66084347, 0.3962215, 0.34002381], "xyz": [4.13684774086997, 8.248536809671, 17.289904717071], "label": "S", "properties": {}}, {"species": [{"element": "S", "occu": 1}], "abc": [0.28937283, 0.67491716, 0.42259037], "xyz": [1.81145973653133, 14.050421387377039, 21.488339983167], "label": "S", "properties": {}}, {"species": [{"element": "S", "occu": 1}], "abc": [0.73857795, 0.27173321, 0.46202826999999996], "xyz": [4.62346177668045, 5.65694033538074, 23.493721704057], "label": "S", "properties": {}}, {"species": [{"element": "S", "occu": 1}], "abc": [0.73631745, 0.57907636, 0.35753352], "xyz": [4.60931115744495, 12.055208188021838, 18.180257711832], "label": "S", "properties": {}}, {"species": [{"element": "S", "occu": 1}], "abc": [0.79434715, 0.08350639, 0.3582878], "xyz": [4.97257423598965, 1.73843552598166, 18.21861217098], "label": "S", "properties": {}}, {"species": [{"element": "S", "occu": 1}], "abc": [0.82187693, 0.77922449, 0.46033418], "xyz": [5.14490930983043, 16.22189075747306, 23.407578752238], "label": "S", "properties": {}}, {"species": [{"element": "S", "occu": 1}], "abc": [0.24713741, 0.17966953, 0.42533976], "xyz": [1.54706807686691, 3.7403591975228196, 21.628143990216], "label": "S", "properties": {}}, {"species": [{"element": "S", "occu": 1}], "abc": [0.20079071, 0.0525286, 0.46838639], "xyz": [1.25694000585521, 1.0935400796284, 23.817026383749], "label": "S", "properties": {}}, {"species": [{"element": "S", "occu": 1}], "abc": [0.19976844, 0.35413916, 0.36851586999999997], "xyz": [1.2505406457464399, 7.372466908045039, 18.738700325217], "label": "S", "properties": {}}, {"species": [{"element": "S", "occu": 1}], "abc": [0.76949668, 0.90589915, 0.41728399], "xyz": [4.81701151146268, 18.8590030693051, 21.218515335909], "label": "S", "properties": {}}, {"species": [{"element": "S", "occu": 1}], "abc": [0.69140287, 0.4015565, 0.41921975], "xyz": [4.32814808745937, 8.359600807661, 21.316946989725], "label": "S", "properties": {}}, {"species": [{"element": "S", "occu": 1}], "abc": [0.26269091, 0.85222866, 0.37030662999999997], "xyz": [1.64443222474541, 17.741691130508038, 18.829758859532998], "label": "S", "properties": {}}, {"species": [{"element": "S", "occu": 1}], "abc": [0.27179947, 0.55666977, 0.46977436999999994], "xyz": [1.7014513640259699, 11.588747931841379, 23.887603917567], "label": "S", "properties": {}}, {"species": [{"element": "S", "occu": 1}], "abc": [0.71722051, 0.42323043, 0.48336757], "xyz": [4.48976524879501, 8.81080855235742, 24.578805903687], "label": "S", "properties": {}}, {"species": [{"element": "S", "occu": 1}], "abc": [0.72902152, 0.72811671, 0.37993614], "xyz": [4.56363899314552, 15.15792930007974, 19.319410776473998], "label": "S", "properties": {}}, {"species": [{"element": "S", "occu": 1}], "abc": [0.2620234, 0.52396321, 0.40550098], "xyz": [1.6402536448534002, 10.90786296200074, 20.619359882118], "label": "S", "properties": {}}, {"species": [{"element": "S", "occu": 1}], "abc": [0.23934598, 0.0297175, 0.40442870999999997], "xyz": [1.4982941068469802, 0.6186587366949999, 20.564835917661], "label": "S", "properties": {}}, {"species": [{"element": "S", "occu": 1}], "abc": [0.76733108, 0.2322118, 0.37918794], "xyz": [4.8034549615770805, 4.834183859129199, 19.281365479854], "label": "S", "properties": {}}, {"species": [{"element": "S", "occu": 1}], "abc": [0.75336036, 0.92538756, 0.48280377999999996], "xyz": [4.715998938942359, 19.264712671754637, 24.550137689598], "label": "S", "properties": {}}, {"species": [{"element": "S", "occu": 1}], "abc": [0.83484502, 0.5980797, 0.43750047], "xyz": [5.22608891779402, 12.450819606121799, 22.246505149077], "label": "S", "properties": {}}, {"species": [{"element": "S", "occu": 1}], "abc": [0.15145518, 0.36518864, 0.44866899], "xyz": [0.94810200549618, 7.60249491638816, 22.814414339408998], "label": "S", "properties": {}}, {"species": [{"element": "S", "occu": 1}], "abc": [0.16374912, 0.66658887, 0.34461417], "xyz": [1.02506146749312, 13.87704309612678, 17.523320391747], "label": "S", "properties": {}}, {"species": [{"element": "S", "occu": 1}], "abc": [0.33360856, 0.16040897, 0.34695208], "xyz": [2.08837323878056, 3.33939297500618, 17.642201011127998], "label": "S", "properties": {}}, {"species": [{"element": "S", "occu": 1}], "abc": [0.34969093, 0.84681714, 0.44824857999999995], "xyz": [2.18904808694443, 17.629034139617158, 22.793036869277998], "label": "S", "properties": {}}, {"species": [{"element": "S", "occu": 1}], "abc": [0.66799513, 0.09238712, 0.44074783], "xyz": [4.18161678203863, 1.92331450983728, 22.411630482453], "label": "S", "properties": {}}]}, "formula": "(Li3PS4)20.0", "bandgap": 2.3613, "slab_thickness": 24.573720993687}