{"miller": "012_0.16", "final_energy": -700.00484813, "gamma": 0.013820861950075492, "work_function": 4.691844320613753, "ionization_potentail": -5.075744320613753, "electron_affinity": -2.733444320613753, "is_stochiometric": true, "incar_parameters": {"SYSTEM": "unknown system", "LCOMPAT": false, "PREC": "normal", "ENMAX": 520.0, "ENAUG": 628.945, "EDIFF": 1e-05, "IALGO": 38, "IWAVPR": 11, "NBANDS": 462, "NBANDSLOW": -1, "NBANDSHIGH": -1, "NELECT": 760.0, "TURBO": 0, "IRESTART": 0, "NREBOOT": 0, "NMIN": 0, "EREF": 0.0, "ISMEAR": 0, "SIGMA": 0.05, "KSPACING": 0.5, "KGAMMA": true, "KBLOWUP": true, "LREAL": true, "ROPT": [-0.0005, -0.0005, -0.0005], "LMAXPAW": -100, "LMAXMIX": 2, "NLSPLINE": false, "ISTART": 0, "ICHARG": 2, "INIWAV": 1, "ISPIN": 1, "LNONCOLLINEAR": false, "MAGMOM": [0.6, 0.6, 0.6, 0.6, 0.6, 0.6, 0.6, 0.6, 0.6, 0.6, 0.6, 0.6, 0.6, 0.6, 0.6, 0.6, 0.6, 0.6, 0.6, 0.6, 0.6, 0.6, 0.6, 0.6, 0.6, 0.6, 0.6, 0.6, 0.6, 0.6, 0.6, 0.6, 0.6, 0.6, 0.6, 0.6, 0.6, 0.6, 0.6, 0.6, 0.6, 0.6, 0.6, 0.6, 0.6, 0.6, 0.6, 0.6, 0.6, 0.6, 0.6, 0.6, 0.6, 0.6, 0.6, 0.6, 0.6, 0.6, 0.6, 0.6, 0.6, 0.6, 0.6, 0.6, 0.6, 0.6, 0.6, 0.6, 0.6, 0.6, 0.6, 0.6, 0.6, 0.6, 0.6, 0.6, 0.6, 0.6, 0.6, 0.6, 0.6, 0.6, 0.6, 0.6, 0.6, 0.6, 0.6, 0.6, 0.6, 0.6, 0.6, 0.6, 0.6, 0.6, 0.6, 0.6, 0.6, 0.6, 0.6, 0.6, 0.6, 0.6, 0.6, 0.6, 0.6, 0.6, 0.6, 0.6, 0.6, 0.6, 0.6, 0.6, 0.6, 0.6, 0.6, 0.6, 0.6, 0.6, 0.6, 0.6, 0.6, 0.6, 0.6, 0.6, 0.6, 0.6, 0.6, 0.6, 0.6, 0.6, 0.6, 0.6, 0.6, 0.6, 0.6, 0.6, 0.6, 0.6, 0.6, 0.6, 0.6, 0.6, 0.6, 0.6, 0.6, 0.6, 0.6, 0.6, 0.6, 0.6, 0.6, 0.6, 0.6, 0.6, 0.6, 0.6, 0.6, 0.6, 0.6, 0.6], "NUPDOWN": -1.0, "LSORBIT": false, "SAXIS": [0.0, 0.0, 1.0], "LSPIRAL": false, "QSPIRAL": [0.0, 0.0, 0.0], "LZEROZ": false, "LASPH": false, "LMETAGGA": false, "NELM": 100, "NELMDL": -5, "NELMIN": 6, "ENINI": 520.0, "LDIAG": true, "LSUBROT": false, "WEIMIN": 0.001, "EBREAK": 1e-08, "DEPER": 0.3, "NRMM": 4, "TIME": 0.4, "AMIX": 0.4, "BMIX": 1.0, "AMIN": 0.1, "AMIX_MAG": 1.6, "BMIX_MAG": 1.0, "IMIX": 4, "MIXFIRST": false, "MAXMIX": -45, "WC": 100.0, "INIMIX": 1, "MIXPRE": 1, "MREMOVE": 5, "LDIPOL": false, "LMONO": false, "IDIPOL": 0, "EPSILON": 1.0, "DIPOL": [-100.0, -100.0, -100.0], "EFIELD": 0.0, "NGX": 36, "NGY": 120, "NGZ": 288, "NGXF": 72, "NGYF": 240, "NGZF": 576, "ADDGRID": false, "NSW": 150, "IBRION": 2, "MDALGO": 0, "ISIF": 2, "PSTRESS": 0.0, "EDIFFG": -0.01, "NFREE": 1, "POTIM": 0.5, "SMASS": -3.0, "SCALEE": 1.0, "TEBEG": 0.0001, "TEEND": 0.0001, "NBLOCK": 1, "KBLOCK": 150, "NPACO": 256, "APACO": 10.0, "ISYM": 0, "SYMPREC": 1e-05, "LORBIT": 11, "RWIGS": [-1.0, -1.0, -1.0], "NEDOS": 301, "EMIN": 10.0, "EMAX": -10.0, "EFERMI": 0.0, "NWRITE": 2, "LWAVE": false, "LDOWNSAMPLE": false, "LCHARG": false, "LPARD": false, "LVTOT": false, "LVHAR": false, "LELF": false, "LOPTICS": false, "STM": [0.0, 0.0, 0.0, 0.0, 0.0, 0.0, 0.0], "NPAR": 2, "NSIM": 4, "NBLK": -1, "LPLANE": true, "LSCALAPACK": true, "LSCAAWARE": false, "LSCALU": false, "LASYNC": false, "LORBITALREAL": false, "IDIOT": 3, "PHON_NSTRUCT": -1, "LMUSIC": false, "POMASS": [7.01, 30.974, 32.066], "DARWINR": [0.0, 0.0, 0.0], "DARWINV": [1.0, 1.0, 1.0], "LCORR": true, "GGA_COMPAT": true, "LBERRY": false, "ICORELEVEL": 0, "LDAU": false, "I_CONSTRAINED_M": 0, "GGA": "--", "VOSKOWN": 0, "LHFCALC": false, "PRECFOCK": "", "LSYMGRAD": false, "LHFONE": false, "LRHFCALC": false, "LTHOMAS": false, "LMODELHF": false, "LFOCKACE": false, "ENCUT4O": -1.0, "EXXOEP": 0, "FOURORBIT": 0, "AEXX": 0.0, "HFALPHA": 0.0, "MCALPHA": 0.0, "ALDAX": 1.0, "AGGAX": 1.0, "ALDAC": 1.0, "AGGAC": 1.0, "NKREDX": 1, "NKREDY": 1, "NKREDZ": 1, "SHIFTRED": false, "ODDONLY": false, "EVENONLY": false, "LMAXFOCK": 0, "NMAXFOCKAE": 0, "LFOCKAEDFT": false, "HFSCREEN": 0.0, "HFSCREENC": 0.0, "NBANDSGWLOW": 0, "LUSE_VDW": false, "Zab_VDW": -0.8491, "PARAM1": 0.1234, "PARAM2": 1.0, "PARAM3": 0.0, "MODEL_GW": 0, "MODEL_EPS0": 24.84988316, "MODEL_ALPHA": 1.0, "LEPSILON": false, "LRPA": false, "LNABLA": false, "LVEL": false, "CSHIFT": 0.1, "OMEGAMAX": -1.0, "DEG_THRESHOLD": 0.002, "RTIME": -0.1, "WPLASMAI": 0.0, "DFIELD": [0.0, 0.0, 0.0], "WPLASMA": [0.0, 0.0, 0.0, 0.0, 0.0, 0.0, 0.0, 0.0, 0.0], "NUCIND": false, "MAGPOS": [0.0, 0.0, 0.0], "LNICSALL": true, "ORBITALMAG": false, "LMAGBLOCH": false, "LCHIMAG": false, "LGAUGE": true, "MAGATOM": 0, "MAGDIPOL": [0.0, 0.0, 0.0], "AVECCONST": [0.0, 0.0, 0.0], "LFINITE_TEMPERATURE": false, "LADDER": false, "LRPAFORCE": false, "LFXC": false, "LHARTREE": true, "IBSE": 0, "KPOINT": [-1, 0, 0, 0], "LTCTC": false, "LTCTE": false, "LTETE": false, "LTRIPLET": false, "LFXCEPS": false, "LFXHEG": false, "NATURALO": 2, "LHOLEGF": false, "L2ORDER": false, "LDMP1": false, "LMP2LT": false, "LSMP2LT": false, "LGWLF": false, "ENCUTGW": -2.0, "ENCUTGWSOFT": -2.0, "ENCUTLF": -1.0, "LESF_SPLINES": false, "LMAXMP2": -1, "SCISSOR": 0.0, "NOMEGA": 0, "NOMEGAR": 0, "NBANDSGW": -1, "NBANDSO": -1, "NBANDSV": -1, "NELMGW": 1, "NELMHF": 1, "DIM": 3, "IESPILON": 4, "ANTIRES": 0, "OMEGAMIN": -30.0, "OMEGATL": -200.0, "OMEGAGRID": 0, "LSELFENERGY": false, "LSPECTRAL": false, "LSPECTRALGW": false, "LSINGLES": false, "LFERMIGW": false, "ODDONLYGW": false, "EVENONLYGW": false, "NKREDLFX": 1, "NKREDLFY": 1, "NKREDLFZ": 1, "MAXMEM": 2800, "TELESCOPE": 0, "NTAUPAR": -1, "NOMEGAPAR": -1, "DAMP_NEWTON": 0.80000001, "LAMBDA": 1.0, "OFIELD_KAPPA": 0.0, "OFIELD_K": [0.0, 0.0, 0.0], "OFIELD_Q6_NEAR": 0.0, "OFIELD_Q6_FAR": 0.0, "OFIELD_A": 0.0, "KPOINTS_OPT_MODE": 1, "LKPOINTS_OPT": false, "@module": "pymatgen.io.vasp.inputs", "@class": "Incar"}, "relaxed_structures": {"@module": "pymatgen.core.structure", "@class": "Structure", "charge": 0, "lattice": {"matrix": [[6.259951, 0.0, 0.0], [0.0, 20.817994, 0.0], [0.0, 0.0, 50.8491]], "a": 6.259951, "b": 20.817994, "c": 50.8491, "alpha": 90.0, "beta": 90.0, "gamma": 90.0, "volume": 6626.6355092591275}, "sites": [{"species": [{"element": "Li", "occu": 1}], "abc": [0.87581901, 0.69295007, 0.07601190999999999], "xyz": [5.48258408746851, 14.425830399559578, 3.8651372127809993], "label": "Li", "properties": {}}, {"species": [{"element": "Li", "occu": 1}], "abc": [0.07695705, 0.27502881, 0.10141989999999998], "xyz": [0.48174736210455, 5.72554811640714, 5.157110637089999], "label": "Li", "properties": {}}, {"species": [{"element": "Li", "occu": 1}], "abc": [0.06029478, 0.58751808, 0.0074473799999999965], "xyz": [0.37744236835578, 12.23094786433152, 0.3786925703579998], "label": "Li", "properties": {}}, {"species": [{"element": "Li", "occu": 1}], "abc": [0.41240872, 0.09555484, 0.0114777], "xyz": [2.58165837917272, 1.98926008579096, 0.58363071507], "label": "Li", "properties": {}}, {"species": [{"element": "Li", "occu": 1}], "abc": [0.37522323, 0.7749344, 0.10619823], "xyz": [2.34887903386173, 16.132579689593598, 5.400084417093], "label": "Li", "properties": {}}, {"species": [{"element": "Li", "occu": 1}], "abc": [0.5718392, 0.19400762, 0.07642938999999999], "xyz": [3.5796853718792, 4.03884946911428, 3.8863656950489993], "label": "Li", "properties": {}}, {"species": [{"element": "Li", "occu": 1}], "abc": [0.6117295, 0.35850103, 0.02458983], "xyz": [3.8293966952545, 7.463272291533819, 1.250370724653], "label": "Li", "properties": {}}, {"species": [{"element": "Li", "occu": 1}], "abc": [0.62497725, 0.05712412, 0.12115165], "xyz": [3.91232696111475, 1.18920958741528, 6.160452366015], "label": "Li", "properties": {}}, {"species": [{"element": "Li", "occu": 1}], "abc": [0.41951365, 0.59788653, 0.16125230999999998], "xyz": [2.6261348928311503, 12.44679819422082, 8.199534836421], "label": "Li", "properties": {}}, {"species": [{"element": "Li", "occu": 1}], "abc": [0.42127797, 0.90596098, 0.06238775], "xyz": [2.63717944957947, 18.86029024587412, 3.172360938525], "label": "Li", "properties": {}}, {"species": [{"element": "Li", "occu": 1}], "abc": [0.13204681, 0.40632459, 0.058621], "xyz": [0.82660656030631, 8.458862876672459, 2.9808250911], "label": "Li", "properties": {}}, {"species": [{"element": "Li", "occu": 1}], "abc": [0.1249361, 0.10743429, 0.16173144], "xyz": [0.7820938641310999, 2.2365664046142597, 8.223898165704], "label": "Li", "properties": {}}, {"species": [{"element": "Li", "occu": 1}], "abc": [0.9137885, 0.56135124, 0.12139650999999999], "xyz": [5.7202712343635005, 11.68620674621256, 6.172903276640999], "label": "Li", "properties": {}}, {"species": [{"element": "Li", "occu": 1}], "abc": [0.96280223, 0.87838184, 0.02861243], "xyz": [6.02709478249073, 18.28614787482896, 1.4549163143130002], "label": "Li", "properties": {}}, {"species": [{"element": "Li", "occu": 1}], "abc": [0.42913748, 0.31142212, 0.1444899], "xyz": [2.68637959706348, 6.48318382562728, 7.34718137409], "label": "Li", "properties": {}}, {"species": [{"element": "Li", "occu": 1}], "abc": [0.43302691, 0.60999302, 0.047263599999999996], "xyz": [2.71072723828141, 12.698831030401879, 2.4033115227599997], "label": "Li", "properties": {}}, {"species": [{"element": "Li", "occu": 1}], "abc": [0.93556276, 0.15627232, 0.03243423], "xyz": [5.856577035024761, 3.2532762201260796, 1.649251404693], "label": "Li", "properties": {}}, {"species": [{"element": "Li", "occu": 1}], "abc": [0.93112773, 0.85053968, 0.13748770999999999], "xyz": [5.82881396454123, 17.70652995500192, 6.991126314560999], "label": "Li", "properties": {}}, {"species": [{"element": "Li", "occu": 1}], "abc": [0.07258934, 0.00456528, 0.08454890000000001], "xyz": [0.45440571152234, 0.09503997164831998, 4.29923547099], "label": "Li", "properties": {}}, {"species": [{"element": "Li", "occu": 1}], "abc": [0.56513705, 0.46751214, 0.09840911], "xyz": [3.5377302412845504, 9.73266492544716, 5.004014675301], "label": "Li", "properties": {}}, {"species": [{"element": "Li", "occu": 1}], "abc": [0.56581924, 0.75312279, 0.004432519999999999], "xyz": [3.5420007172572396, 15.67850572348326, 0.22538965273199993], "label": "Li", "properties": {}}, {"species": [{"element": "Li", "occu": 1}], "abc": [0.8704353, 0.08455659, 0.27779507], "xyz": [5.4488823266703, 1.7602985832804598, 14.125629293937], "label": "Li", "properties": {}}, {"species": [{"element": "Li", "occu": 1}], "abc": [0.87183951, 0.38688779, 0.17668625], "xyz": [5.457672612464011, 8.05422769089326, 8.984336794874999], "label": "Li", "properties": {}}, {"species": [{"element": "Li", "occu": 1}], "abc": [0.08210275, 0.6678453, 0.30441217], "xyz": [0.51395919196525, 13.903199448328198, 15.479084873546999], "label": "Li", "properties": {}}, {"species": [{"element": "Li", "occu": 1}], "abc": [0.08268566, 0.97170533, 0.20375478], "xyz": [0.51760818000266, 20.22895572970802, 10.360747183697999], "label": "Li", "properties": {}}, {"species": [{"element": "Li", "occu": 1}], "abc": [0.37072633, 0.46952774, 0.20606262], "xyz": [2.32072866020983, 9.77462567415356, 10.478098770642], "label": "Li", "properties": {}}, {"species": [{"element": "Li", "occu": 1}], "abc": [0.3727227, 0.16740735, 0.30727216], "xyz": [2.3332258385877003, 3.4850852078559, 15.624512791056], "label": "Li", "properties": {}}, {"species": [{"element": "Li", "occu": 1}], "abc": [0.58256871, 0.88594668, 0.18008421], "xyz": [3.64685157873321, 18.443632668559918, 9.157120002711], "label": "Li", "properties": {}}, {"species": [{"element": "Li", "occu": 1}], "abc": [0.58023388, 0.58115704, 0.28052402], "xyz": [3.63223565733988, 12.09852377177776, 14.264393945381999], "label": "Li", "properties": {}}, {"species": [{"element": "Li", "occu": 1}], "abc": [0.62956772, 0.75137318, 0.22196723], "xyz": [3.9410630783817204, 15.642082353000918, 11.286833874992999], "label": "Li", "properties": {}}, {"species": [{"element": "Li", "occu": 1}], "abc": [0.62268908, 0.44808198, 0.32251907], "xyz": [3.89800312903508, 9.328167971148119, 16.399804442337], "label": "Li", "properties": {}}, {"species": [{"element": "Li", "occu": 1}], "abc": [0.41773359, 0.9926888, 0.362531], "xyz": [2.61499180445409, 20.6657894822672, 18.4343750721], "label": "Li", "properties": {}}, {"species": [{"element": "Li", "occu": 1}], "abc": [0.41397008, 0.29599805, 0.26242133], "xyz": [2.59143241626608, 6.1620856289117, 13.343888451303], "label": "Li", "properties": {}}, {"species": [{"element": "Li", "occu": 1}], "abc": [0.12625531, 0.80189507, 0.26218944], "xyz": [0.79035205408981, 16.69384675588958, 13.332097053504], "label": "Li", "properties": {}}, {"species": [{"element": "Li", "occu": 1}], "abc": [0.12476192, 0.49760387, 0.36312543999999997], "xyz": [0.78100350586592, 10.359114380036779, 18.464601811104], "label": "Li", "properties": {}}, {"species": [{"element": "Li", "occu": 1}], "abc": [0.9184775, 0.9562494, 0.32281143], "xyz": [5.7496241446025, 19.9071942717036, 16.414670685213], "label": "Li", "properties": {}}, {"species": [{"element": "Li", "occu": 1}], "abc": [0.91532247, 0.25854104, 0.22204401999999998], "xyz": [5.72987381139897, 5.38230581947376, 11.290738577382], "label": "Li", "properties": {}}, {"species": [{"element": "Li", "occu": 1}], "abc": [0.43164284, 0.70365516, 0.34661091], "xyz": [2.70206302790084, 14.648688898949038, 17.624852823681], "label": "Li", "properties": {}}, {"species": [{"element": "Li", "occu": 1}], "abc": [0.43215594, 0.0093653, 0.24591334999999998], "xyz": [2.70527500875894, 0.1949667592082, 12.504472525485], "label": "Li", "properties": {}}, {"species": [{"element": "Li", "occu": 1}], "abc": [0.93388243, 0.54465861, 0.23860185], "xyz": [5.8460582515609305, 11.33869967502834, 12.132689330835], "label": "Li", "properties": {}}, {"species": [{"element": "Li", "occu": 1}], "abc": [0.92866465, 0.24308398, 0.33952174], "xyz": [5.81339520443215, 5.06052083713612, 17.264374909434], "label": "Li", "properties": {}}, {"species": [{"element": "Li", "occu": 1}], "abc": [0.06998134, 0.69162807, 0.18499748], "xyz": [0.43807975931434, 14.39830901149158, 9.406955360268], "label": "Li", "properties": {}}, {"species": [{"element": "Li", "occu": 1}], "abc": [0.06348338, 0.38741388, 0.28633032999999997], "xyz": [0.39740284811438004, 8.065179829356719, 14.559639583202998], "label": "Li", "properties": {}}, {"species": [{"element": "Li", "occu": 1}], "abc": [0.56425828, 0.8630777, 0.29886735999999997], "xyz": [3.53222918414428, 17.967546380133797, 15.197136275375998], "label": "Li", "properties": {}}, {"species": [{"element": "Li", "occu": 1}], "abc": [0.56338607, 0.16671863, 0.19810355], "xyz": [3.5267691922825697, 3.47074743902822, 10.073387224305], "label": "Li", "properties": {}}, {"species": [{"element": "Li", "occu": 1}], "abc": [0.91383563, 0.45737052, 0.47248347], "xyz": [5.7205662658541305, 9.52153674113688, 24.025359214377], "label": "Li", "properties": {}}, {"species": [{"element": "Li", "occu": 1}], "abc": [0.87640425, 0.77869272, 0.37797523], "xyz": [5.48624766119175, 16.210820372803678, 19.219700267792998], "label": "Li", "properties": {}}, {"species": [{"element": "Li", "occu": 1}], "abc": [0.06963299, 0.3607558, 0.40777244], "xyz": [0.43589910538349, 7.5102120798652, 20.734861578804], "label": "Li", "properties": {}}, {"species": [{"element": "Li", "occu": 1}], "abc": [0.37829047, 0.86085256, 0.40778063999999997], "xyz": [2.36807980596697, 17.921223428964637, 20.735278541423998], "label": "Li", "properties": {}}, {"species": [{"element": "Li", "occu": 1}], "abc": [0.57583315, 0.27980121, 0.38222896], "xyz": [3.60468730317565, 5.82489991097274, 19.435998609936], "label": "Li", "properties": {}}, {"species": [{"element": "Li", "occu": 1}], "abc": [0.56213345, 0.96671765, 0.47666609], "xyz": [3.5189278524609504, 20.1251222373941, 24.238041677018998], "label": "Li", "properties": {}}, {"species": [{"element": "Li", "occu": 1}], "abc": [0.63099065, 0.14738769, 0.42482287], "xyz": [3.94997055045815, 3.0683160460938597, 21.601860598917], "label": "Li", "properties": {}}, {"species": [{"element": "Li", "occu": 1}], "abc": [0.46221912, 0.67588271, 0.45632201], "xyz": [2.8934690424631198, 14.070522201483739, 23.203563518691], "label": "Li", "properties": {}}, {"species": [{"element": "Li", "occu": 1}], "abc": [0.11473304, 0.19575415, 0.45904839], "xyz": [0.7182232084810399, 4.0752087201751, 23.342197487948997], "label": "Li", "properties": {}}, {"species": [{"element": "Li", "occu": 1}], "abc": [0.91973747, 0.64698301, 0.42192245], "xyz": [5.757511495063969, 13.46888842028194, 21.454376852295], "label": "Li", "properties": {}}, {"species": [{"element": "Li", "occu": 1}], "abc": [0.43458342, 0.3974644, 0.45155526], "xyz": [2.72047091461242, 8.274411494413599, 22.961178571266], "label": "Li", "properties": {}}, {"species": [{"element": "Li", "occu": 1}], "abc": [0.93538847, 0.94419847, 0.43662803], "xyz": [5.85548598816497, 19.65631808326918, 22.202142360273], "label": "Li", "properties": {}}, {"species": [{"element": "Li", "occu": 1}], "abc": [0.06480347, 0.08821536, 0.38528197], "xyz": [0.40566654682997, 1.83646683518784, 19.591241420727], "label": "Li", "properties": {}}, {"species": [{"element": "Li", "occu": 1}], "abc": [0.06696325, 0.8011395, 0.48000761], "xyz": [0.41918666380075004, 16.678117304163, 24.407954961650997], "label": "Li", "properties": {}}, {"species": [{"element": "Li", "occu": 1}], "abc": [0.57058297, 0.54889982, 0.40014145], "xyz": [3.57182143363447, 11.42699315936108, 20.346832605195], "label": "Li", "properties": {}}, {"species": [{"element": "P", "occu": 1}], "abc": [0.15669265, 0.44126762, 0.13355008], "xyz": [0.98088831106015, 9.18630666555428, 6.7909013729279994], "label": "P", "properties": {}}, {"species": [{"element": "P", "occu": 1}], "abc": [0.1696157, 0.74741399, 0.03200756], "xyz": [1.0617859708307, 15.55965995933606, 1.627555619196], "label": "P", "properties": {}}, {"species": [{"element": "P", "occu": 1}], "abc": [0.83828586, 0.52469565, 0.04839861], "xyz": [5.2476284075928605, 10.923110893526099, 2.461025759751], "label": "P", "properties": {}}, {"species": [{"element": "P", "occu": 1}], "abc": [0.83720224, 0.21985857, 0.14832255], "xyz": [5.24084499949024, 4.577014391108579, 7.542068177205], "label": "P", "properties": {}}, {"species": [{"element": "P", "occu": 1}], "abc": [0.66132733, 0.71948464, 0.1484335], "xyz": [4.13987668076083, 14.97822691861216, 7.54770988485], "label": "P", "properties": {}}, {"species": [{"element": "P", "occu": 1}], "abc": [0.66441628, 0.02531559, 0.04928055], "xyz": [4.1592133564022795, 0.5270198007264599, 2.5058716150049998], "label": "P", "properties": {}}, {"species": [{"element": "P", "occu": 1}], "abc": [0.32343468, 0.24738223, 0.02973803], "xyz": [2.02468524850068, 5.15000177984662, 1.512152061273], "label": "P", "properties": {}}, {"species": [{"element": "P", "occu": 1}], "abc": [0.34218927, 0.94182293, 0.13460932], "xyz": [2.14208806292577, 19.60686410580242, 6.8447627736120005], "label": "P", "properties": {}}, {"species": [{"element": "P", "occu": 1}], "abc": [0.15952754, 0.83455129, 0.33572987], "xyz": [0.99863458355054, 17.373683747912256, 17.071561732617], "label": "P", "properties": {}}, {"species": [{"element": "P", "occu": 1}], "abc": [0.15803588, 0.13807591, 0.2349634], "xyz": [0.98929686504188, 2.87446346592454, 11.94767742294], "label": "P", "properties": {}}, {"species": [{"element": "P", "occu": 1}], "abc": [0.84101976, 0.91591591, 0.24968439999999997], "xyz": [5.26474248763176, 19.06753191888454, 12.696227024039999], "label": "P", "properties": {}}, {"species": [{"element": "P", "occu": 1}], "abc": [0.83974041, 0.61203782, 0.34991568], "xyz": [5.25673381931991, 12.741399664533079, 17.792897403888], "label": "P", "properties": {}}, {"species": [{"element": "P", "occu": 1}], "abc": [0.65790336, 0.11339208, 0.35017413], "xyz": [4.11844279633536, 2.36059564108752, 17.806039353783], "label": "P", "properties": {}}, {"species": [{"element": "P", "occu": 1}], "abc": [0.65720304, 0.41625881, 0.24929022], "xyz": [4.11405882745104, 8.66567340902714, 12.676183325802], "label": "P", "properties": {}}, {"species": [{"element": "P", "occu": 1}], "abc": [0.34177297, 0.63823372, 0.23457377000000001], "xyz": [2.13948204532447, 13.28674575355768, 11.927865088107001], "label": "P", "properties": {}}, {"species": [{"element": "P", "occu": 1}], "abc": [0.33740247, 0.33495158, 0.33589792], "xyz": [2.11212292947897, 6.97301998273052, 17.080106923872002], "label": "P", "properties": {}}, {"species": [{"element": "P", "occu": 1}], "abc": [0.164489, 0.52878096, 0.43517818999999996], "xyz": [1.029693080039, 11.008158852594239, 22.128419301128996], "label": "P", "properties": {}}, {"species": [{"element": "P", "occu": 1}], "abc": [0.82289398, 0.30644122, 0.45411573], "xyz": [5.1512759929949805, 6.37949147931268, 23.091376166343], "label": "P", "properties": {}}, {"species": [{"element": "P", "occu": 1}], "abc": [0.67058506, 0.80678737, 0.4522946], "xyz": [4.19782961693206, 16.79569462793578, 22.99877334486], "label": "P", "properties": {}}, {"species": [{"element": "P", "occu": 1}], "abc": [0.33905832, 0.02905825, 0.43551155999999996], "xyz": [2.1224884693423203, 0.6049344741505, 22.145370865595996], "label": "P", "properties": {}}, {"species": [{"element": "S", "occu": 1}], "abc": [0.28966702, 0.52932623, 0.12515096], "xyz": [1.81330135151602, 11.019510280182619, 6.363813680136], "label": "S", "properties": {}}, {"species": [{"element": "S", "occu": 1}], "abc": [0.32109185, 0.83368499, 0.024014149999999998], "xyz": [2.01001924749935, 17.35564911971006, 1.2210979147649998], "label": "S", "properties": {}}, {"species": [{"element": "S", "occu": 1}], "abc": [0.74349277, 0.43306916, 0.05792668], "xyz": [4.65422830905427, 9.015631174465039, 2.945519543988], "label": "S", "properties": {}}, {"species": [{"element": "S", "occu": 1}], "abc": [0.73716779, 0.12821271, 0.15746744999999998], "xyz": [4.61463424417829, 2.66913142750374, 8.007078111795], "label": "S", "properties": {}}, {"species": [{"element": "S", "occu": 1}], "abc": [0.79573313, 0.63212965, 0.15709980999999998], "xyz": [4.98125040287663, 13.1596712609221, 7.988383948670999], "label": "S", "properties": {}}, {"species": [{"element": "S", "occu": 1}], "abc": [0.79067066, 0.93812757, 0.06141936], "xyz": [4.94955958873766, 19.52993412349458, 3.1231191785759997], "label": "S", "properties": {}}, {"species": [{"element": "S", "occu": 1}], "abc": [0.23634253, 0.34047186, 0.021549729999999996], "xyz": [1.47949265701603, 7.08794113864884, 1.0957843757429997], "label": "S", "properties": {}}, {"species": [{"element": "S", "occu": 1}], "abc": [0.23894372, 0.03346658, 0.12624217999999998], "xyz": [1.49577597895772, 0.69670706164052, 6.419301235037999], "label": "S", "properties": {}}, {"species": [{"element": "S", "occu": 1}], "abc": [0.19474656, 0.21048432, 0.06429927999999999], "xyz": [1.21910392301856, 4.38186131085408, 3.2695605186479995], "label": "S", "properties": {}}, {"species": [{"element": "S", "occu": 1}], "abc": [0.20694261, 0.90188282, 0.16762312], "xyz": [1.29545059841211, 18.775391135463078, 8.523484791191999], "label": "S", "properties": {}}, {"species": [{"element": "S", "occu": 1}], "abc": [0.76293284, 0.76015026, 0.11351686999999999], "xyz": [4.77592219469084, 15.82480355177844, 5.772230674317], "label": "S", "properties": {}}, {"species": [{"element": "S", "occu": 1}], "abc": [0.77580394, 0.05531048, 0.013790659999999996], "xyz": [4.8564946500069395, 1.15145324077712, 0.7012426494059998], "label": "S", "properties": {}}, {"species": [{"element": "S", "occu": 1}], "abc": [0.69786572, 0.56090658, 0.015261070000000002], "xyz": [4.3686052117797205, 11.676949817000521, 0.776011674537], "label": "S", "properties": {}}, {"species": [{"element": "S", "occu": 1}], "abc": [0.70091875, 0.25863912, 0.11518775], "xyz": [4.387717029981251, 5.38434764832528, 5.857193418525], "label": "S", "properties": {}}, {"species": [{"element": "S", "occu": 1}], "abc": [0.25919303, 0.40131777, 0.16838213999999999], "xyz": [1.6225356673415299, 8.35463092795338, 8.562080275073999], "label": "S", "properties": {}}, {"species": [{"element": "S", "occu": 1}], "abc": [0.26590274, 0.70661216, 0.06681609], "xyz": [1.6645381231657401, 14.71024770720704, 3.397538042019], "label": "S", "properties": {}}, {"species": [{"element": "S", "occu": 1}], "abc": [0.73369479, 0.58273843, 0.07928989], "xyz": [4.5928934343552905, 12.13144513930942, 4.031819545599], "label": "S", "properties": {}}, {"species": [{"element": "S", "occu": 1}], "abc": [0.26699765, 0.38064263, 0.10403155], "xyz": [1.6713922061151498, 7.924215987484219, 5.289910689105], "label": "S", "properties": {}}, {"species": [{"element": "S", "occu": 1}], "abc": [0.25059634, 0.68787587, 0.0012688899999999982], "xyz": [1.5687208091793399, 14.320195734404779, 0.06452191449899991], "label": "S", "properties": {}}, {"species": [{"element": "S", "occu": 1}], "abc": [0.2191239, 0.1890789, 9.99999999999994e-05], "xyz": [1.3717048769289, 3.9362434057265996, 0.005084909999999969], "label": "S", "properties": {}}, {"species": [{"element": "S", "occu": 1}], "abc": [0.2326359, 0.88461642, 0.10375096], "xyz": [1.4562893348409, 18.41593932386148, 5.2756429401360005], "label": "S", "properties": {}}, {"species": [{"element": "S", "occu": 1}], "abc": [0.76491087, 0.08919444, 0.07797493], "xyz": [4.78830456556737, 1.85684931675336, 3.964955013063], "label": "S", "properties": {}}, {"species": [{"element": "S", "occu": 1}], "abc": [0.83124585, 0.45105838, 0.1363013], "xyz": [5.2035582899533495, 9.39013064848972, 6.93079843383], "label": "S", "properties": {}}, {"species": [{"element": "S", "occu": 1}], "abc": [0.8476303, 0.76658568, 0.03577797], "xyz": [5.3061241441153, 15.95877608672592, 1.819277574327], "label": "S", "properties": {}}, {"species": [{"element": "S", "occu": 1}], "abc": [0.16441049, 0.52083091, 0.04313204], "xyz": [1.0292016112859899, 10.84265475939454, 2.193225415164], "label": "S", "properties": {}}, {"species": [{"element": "S", "occu": 1}], "abc": [0.16200992, 0.2162633, 0.14342311], "xyz": [1.01417416071392, 4.5021680818202, 7.292936062701], "label": "S", "properties": {}}, {"species": [{"element": "S", "occu": 1}], "abc": [0.33627862, 0.7091644, 0.14580161], "xyz": [2.10508768354762, 14.7633802242136, 7.413880647051], "label": "S", "properties": {}}, {"species": [{"element": "S", "occu": 1}], "abc": [0.33727367, 0.01526076, 0.04601736], "xyz": [2.1113166477901704, 0.31769841011544, 2.339941340376], "label": "S", "properties": {}}, {"species": [{"element": "S", "occu": 1}], "abc": [0.65296273, 0.24777826, 0.034583209999999996], "xyz": [4.08751469462623, 5.1582463300104395, 1.758525103611], "label": "S", "properties": {}}, {"species": [{"element": "S", "occu": 1}], "abc": [0.66665866, 0.94617192, 0.1392426], "xyz": [4.17325054532566, 19.69740135352848, 7.08036089166], "label": "S", "properties": {}}, {"species": [{"element": "S", "occu": 1}], "abc": [0.2943232, 0.92196182, 0.32713034], "xyz": [1.8424488101632, 19.19339563698908, 16.634283371694], "label": "S", "properties": {}}, {"species": [{"element": "S", "occu": 1}], "abc": [0.29156811, 0.22574988, 0.22634268000000002], "xyz": [1.82520208176261, 4.69965964734072, 11.509321569588002], "label": "S", "properties": {}}, {"species": [{"element": "S", "occu": 1}], "abc": [0.73941942, 0.8241702, 0.25831903], "xyz": [4.62872933764842, 17.1575702785788, 13.135290188373], "label": "S", "properties": {}}, {"species": [{"element": "S", "occu": 1}], "abc": [0.73833895, 0.52029426, 0.35846446], "xyz": [4.62196564839145, 10.83148278291444, 18.227595172986], "label": "S", "properties": {}}, {"species": [{"element": "S", "occu": 1}], "abc": [0.79317863, 0.02576219, 0.35879733999999996], "xyz": [4.96525935804713, 0.53631711684686, 18.244521821394], "label": "S", "properties": {}}, {"species": [{"element": "S", "occu": 1}], "abc": [0.78989485, 0.32851783, 0.25800631], "xyz": [4.94470305615235, 6.83908221383302, 13.119388657821], "label": "S", "properties": {}}, {"species": [{"element": "S", "occu": 1}], "abc": [0.24207101, 0.73014173, 0.22586306], "xyz": [1.51535266112051, 15.20008615428962, 11.484933324246], "label": "S", "properties": {}}, {"species": [{"element": "S", "occu": 1}], "abc": [0.23641831, 0.42647578, 0.32679449], "xyz": [1.4799670361028099, 8.87837022918532, 16.617205701459], "label": "S", "properties": {}}, {"species": [{"element": "S", "occu": 1}], "abc": [0.20624985, 0.59948182, 0.26779989], "xyz": [1.29111395475735, 12.480008931869081, 13.617383386598998], "label": "S", "properties": {}}, {"species": [{"element": "S", "occu": 1}], "abc": [0.20067374, 0.29621437, 0.36899453], "xyz": [1.2562077793867399, 6.16658897737378, 18.763039755422998], "label": "S", "properties": {}}, {"species": [{"element": "S", "occu": 1}], "abc": [0.75989474, 0.15332082, 0.31533045], "xyz": [4.75690383755774, 3.19183191083508, 16.034269585095], "label": "S", "properties": {}}, {"species": [{"element": "S", "occu": 1}], "abc": [0.75910875, 0.45599768, 0.21435364999999998], "xyz": [4.75198357867125, 9.492956966253919, 10.899690184214998], "label": "S", "properties": {}}, {"species": [{"element": "S", "occu": 1}], "abc": [0.70685876, 0.95498535, 0.21645947], "xyz": [4.42490120152076, 19.8808792863879, 11.006769235977], "label": "S", "properties": {}}, {"species": [{"element": "S", "occu": 1}], "abc": [0.70497114, 0.65125575, 0.31673328], "xyz": [4.41308479281414, 13.5578382959655, 16.105602228048], "label": "S", "properties": {}}, {"species": [{"element": "S", "occu": 1}], "abc": [0.2623276, 0.79381556, 0.37056756], "xyz": [1.6421579219476, 16.525647565186638, 18.843026915196003], "label": "S", "properties": {}}, {"species": [{"element": "S", "occu": 1}], "abc": [0.25848079, 0.09818272, 0.2699368], "xyz": [1.61807707984129, 2.0439672758636798, 13.726043336879998], "label": "S", "properties": {}}, {"species": [{"element": "S", "occu": 1}], "abc": [0.72932697, 0.97304493, 0.28041468999999997], "xyz": [4.565551095178471, 20.256843514470418, 14.258834613278998], "label": "S", "properties": {}}, {"species": [{"element": "S", "occu": 1}], "abc": [0.72778326, 0.27677167, 0.17928053], "xyz": [4.55588754622026, 5.76183096542998, 9.116253598023], "label": "S", "properties": {}}, {"species": [{"element": "S", "occu": 1}], "abc": [0.26970778, 0.77321097, 0.30640049999999996], "xyz": [1.68835748711878, 16.09670133419418, 15.580189664549998], "label": "S", "properties": {}}, {"species": [{"element": "S", "occu": 1}], "abc": [0.2699095, 0.07687858, 0.20561501], "xyz": [1.6896202444345, 1.60045781716852, 10.455338204991], "label": "S", "properties": {}}, {"species": [{"element": "S", "occu": 1}], "abc": [0.23031024, 0.58122193, 0.20381454], "xyz": [1.44173081719824, 12.099874651408419, 10.363785925914], "label": "S", "properties": {}}, {"species": [{"element": "S", "occu": 1}], "abc": [0.22795772, 0.27773709, 0.30500004], "xyz": [1.42700415727172, 5.78192907319746, 15.508977533963998], "label": "S", "properties": {}}, {"species": [{"element": "S", "occu": 1}], "abc": [0.7712894, 0.78083627, 0.17776667], "xyz": [4.8282338508194, 16.25544478384238, 9.039275179496999], "label": "S", "properties": {}}, {"species": [{"element": "S", "occu": 1}], "abc": [0.77006903, 0.47725159, 0.27868855], "xyz": [4.8205943944175305, 9.93542073711046, 14.171061947804999], "label": "S", "properties": {}}, {"species": [{"element": "S", "occu": 1}], "abc": [0.83481093, 0.84471535, 0.33829491], "xyz": [5.22587551606443, 17.585279088007898, 17.201991708081], "label": "S", "properties": {}}, {"species": [{"element": "S", "occu": 1}], "abc": [0.83259628, 0.14766167, 0.23710536], "xyz": [5.21201191558228, 3.0740197600899797, 12.056594161176], "label": "S", "properties": {}}, {"species": [{"element": "S", "occu": 1}], "abc": [0.16617924, 0.91243265, 0.24519951], "xyz": [1.04027389961724, 18.9950174331041, 12.468174403941001], "label": "S", "properties": {}}, {"species": [{"element": "S", "occu": 1}], "abc": [0.16448129, 0.60810466, 0.34528201], "xyz": [1.0296448158167901, 12.659519163252039, 17.557279454691], "label": "S", "properties": {}}, {"species": [{"element": "S", "occu": 1}], "abc": [0.3328805, 0.10260584, 0.3474001], "xyz": [2.0838156188555, 2.13604776148496, 17.66498242491], "label": "S", "properties": {}}, {"species": [{"element": "S", "occu": 1}], "abc": [0.33177453, 0.40721825, 0.24711517], "xyz": [2.07689230084803, 8.477467085190499, 12.565583990847], "label": "S", "properties": {}}, {"species": [{"element": "S", "occu": 1}], "abc": [0.66669664, 0.64138002, 0.23925203], "xyz": [4.1734882982646395, 13.352245408079881, 12.165750398673], "label": "S", "properties": {}}, {"species": [{"element": "S", "occu": 1}], "abc": [0.66223095, 0.3387433, 0.34062499], "xyz": [4.14553329768345, 7.0519559869402, 17.320474179009], "label": "S", "properties": {}}, {"species": [{"element": "S", "occu": 1}], "abc": [0.29065758, 0.61614044, 0.4233495], "xyz": [1.8195022085785801, 12.826807983077359, 21.52694106045], "label": "S", "properties": {}}, {"species": [{"element": "S", "occu": 1}], "abc": [0.73809875, 0.21309011, 0.46201374], "xyz": [4.62046200816125, 4.43610863143934, 23.492982866634], "label": "S", "properties": {}}, {"species": [{"element": "S", "occu": 1}], "abc": [0.82180736, 0.72051798, 0.46032687], "xyz": [5.14447380503936, 14.999738984532119, 23.407207045317], "label": "S", "properties": {}}, {"species": [{"element": "S", "occu": 1}], "abc": [0.24328932, 0.12065269, 0.42587010999999997], "xyz": [1.52297922202332, 2.51174697650386, 21.655111810401], "label": "S", "properties": {}}, {"species": [{"element": "S", "occu": 1}], "abc": [0.19882715, 0.99296649, 0.4686579], "xyz": [1.24464821646965, 20.67157043102106, 23.83083242289], "label": "S", "properties": {}}, {"species": [{"element": "S", "occu": 1}], "abc": [0.76692486, 0.84734958, 0.41743739], "xyz": [4.80091204428186, 17.640118472342518, 21.226315587849], "label": "S", "properties": {}}, {"species": [{"element": "S", "occu": 1}], "abc": [0.6934924, 0.34347768, 0.41963359], "xyz": [4.3412284428724, 7.150516281373919, 21.337990381269], "label": "S", "properties": {}}, {"species": [{"element": "S", "occu": 1}], "abc": [0.27635601, 0.49819786, 0.47054289], "xyz": [1.72997508115551, 10.37148006029284, 23.926682467899], "label": "S", "properties": {}}, {"species": [{"element": "S", "occu": 1}], "abc": [0.7182122, 0.36434692, 0.48384637], "xyz": [4.4959731796022, 7.58497199447848, 24.603152452767002], "label": "S", "properties": {}}, {"species": [{"element": "S", "occu": 1}], "abc": [0.73054831, 0.66951797, 0.38066353999999997], "xyz": [4.57319662373281, 13.93802108235218, 19.356398411814], "label": "S", "properties": {}}, {"species": [{"element": "S", "occu": 1}], "abc": [0.26431468, 0.46531147, 0.40629006], "xyz": [1.6545969453806801, 9.68685139059118, 20.659483889946], "label": "S", "properties": {}}, {"species": [{"element": "S", "occu": 1}], "abc": [0.2360982, 0.97088803, 0.40461186], "xyz": [1.4779631631882, 20.21194118321182, 20.574148930326], "label": "S", "properties": {}}, {"species": [{"element": "S", "occu": 1}], "abc": [0.76594755, 0.17450748, 0.37965452], "xyz": [4.79479413157005, 3.6328956715951195, 19.305090652931998], "label": "S", "properties": {}}, {"species": [{"element": "S", "occu": 1}], "abc": [0.75188383, 0.86643722, 0.48299699999999995], "xyz": [4.70675593349233, 18.03748484733668, 24.5599627527], "label": "S", "properties": {}}, {"species": [{"element": "S", "occu": 1}], "abc": [0.83725072, 0.53860802, 0.43846839], "xyz": [5.2411484819147205, 11.21273852871188, 22.295723009949], "label": "S", "properties": {}}, {"species": [{"element": "S", "occu": 1}], "abc": [0.15258555, 0.30663894, 0.44926693], "xyz": [0.9551780663080499, 6.38360761308636, 22.844819050263002], "label": "S", "properties": {}}, {"species": [{"element": "S", "occu": 1}], "abc": [0.34855371, 0.78780353, 0.44868182], "xyz": [2.18192914546821, 16.40048916071882, 22.815066733362002], "label": "S", "properties": {}}, {"species": [{"element": "S", "occu": 1}], "abc": [0.66503478, 0.03335451, 0.44084088], "xyz": [4.163085136095781, 0.6943739890529399, 22.416361991208], "label": "S", "properties": {}}]}, "formula": "(Li3PS4)20.0", "bandgap": 2.3426, "slab_thickness": 24.598067542767}