{"miller": "012_0.22", "final_energy": -699.91432263, "gamma": 0.0141681830148616, "work_function": "Not calculated", "ionization_potentail": "Not calculated", "electron_affinity": "Not calculated", "is_stochiometric": true, "incar_parameters": {"SYSTEM": "unknown system", "LCOMPAT": false, "PREC": "normal", "ENMAX": 520.0, "ENAUG": 628.945, "EDIFF": 1e-05, "IALGO": 38, "IWAVPR": 11, "NBANDS": 462, "NBANDSLOW": -1, "NBANDSHIGH": -1, "NELECT": 760.0, "TURBO": 0, "IRESTART": 0, "NREBOOT": 0, "NMIN": 0, "EREF": 0.0, "ISMEAR": 0, "SIGMA": 0.05, "KSPACING": 0.5, "KGAMMA": true, "KBLOWUP": true, "LREAL": true, "ROPT": [-0.0005, -0.0005, -0.0005], "LMAXPAW": -100, "LMAXMIX": 2, "NLSPLINE": false, "ISTART": 0, "ICHARG": 2, "INIWAV": 1, "ISPIN": 1, "LNONCOLLINEAR": false, "MAGMOM": [0.6, 0.6, 0.6, 0.6, 0.6, 0.6, 0.6, 0.6, 0.6, 0.6, 0.6, 0.6, 0.6, 0.6, 0.6, 0.6, 0.6, 0.6, 0.6, 0.6, 0.6, 0.6, 0.6, 0.6, 0.6, 0.6, 0.6, 0.6, 0.6, 0.6, 0.6, 0.6, 0.6, 0.6, 0.6, 0.6, 0.6, 0.6, 0.6, 0.6, 0.6, 0.6, 0.6, 0.6, 0.6, 0.6, 0.6, 0.6, 0.6, 0.6, 0.6, 0.6, 0.6, 0.6, 0.6, 0.6, 0.6, 0.6, 0.6, 0.6, 0.6, 0.6, 0.6, 0.6, 0.6, 0.6, 0.6, 0.6, 0.6, 0.6, 0.6, 0.6, 0.6, 0.6, 0.6, 0.6, 0.6, 0.6, 0.6, 0.6, 0.6, 0.6, 0.6, 0.6, 0.6, 0.6, 0.6, 0.6, 0.6, 0.6, 0.6, 0.6, 0.6, 0.6, 0.6, 0.6, 0.6, 0.6, 0.6, 0.6, 0.6, 0.6, 0.6, 0.6, 0.6, 0.6, 0.6, 0.6, 0.6, 0.6, 0.6, 0.6, 0.6, 0.6, 0.6, 0.6, 0.6, 0.6, 0.6, 0.6, 0.6, 0.6, 0.6, 0.6, 0.6, 0.6, 0.6, 0.6, 0.6, 0.6, 0.6, 0.6, 0.6, 0.6, 0.6, 0.6, 0.6, 0.6, 0.6, 0.6, 0.6, 0.6, 0.6, 0.6, 0.6, 0.6, 0.6, 0.6, 0.6, 0.6, 0.6, 0.6, 0.6, 0.6, 0.6, 0.6, 0.6, 0.6, 0.6, 0.6], "NUPDOWN": -1.0, "LSORBIT": false, "SAXIS": [0.0, 0.0, 1.0], "LSPIRAL": false, "QSPIRAL": [0.0, 0.0, 0.0], "LZEROZ": false, "LASPH": false, "LMETAGGA": false, "NELM": 100, "NELMDL": -5, "NELMIN": 6, "ENINI": 520.0, "LDIAG": true, "LSUBROT": false, "WEIMIN": 0.001, "EBREAK": 1e-08, "DEPER": 0.3, "NRMM": 4, "TIME": 0.4, "AMIX": 0.4, "BMIX": 1.0, "AMIN": 0.1, "AMIX_MAG": 1.6, "BMIX_MAG": 1.0, "IMIX": 4, "MIXFIRST": false, "MAXMIX": -45, "WC": 100.0, "INIMIX": 1, "MIXPRE": 1, "MREMOVE": 5, "LDIPOL": false, "LMONO": false, "IDIPOL": 0, "EPSILON": 1.0, "DIPOL": [-100.0, -100.0, -100.0], "EFIELD": 0.0, "NGX": 36, "NGY": 120, "NGZ": 288, "NGXF": 72, "NGYF": 240, "NGZF": 576, "ADDGRID": false, "NSW": 150, "IBRION": 2, "MDALGO": 0, "ISIF": 2, "PSTRESS": 0.0, "EDIFFG": -0.01, "NFREE": 1, "POTIM": 0.5, "SMASS": -3.0, "SCALEE": 1.0, "TEBEG": 0.0001, "TEEND": 0.0001, "NBLOCK": 1, "KBLOCK": 150, "NPACO": 256, "APACO": 10.0, "ISYM": 0, "SYMPREC": 1e-05, "LORBIT": 11, "RWIGS": [-1.0, -1.0, -1.0], "NEDOS": 301, "EMIN": 10.0, "EMAX": -10.0, "EFERMI": 0.0, "NWRITE": 2, "LWAVE": false, "LDOWNSAMPLE": false, "LCHARG": false, "LPARD": false, "LVTOT": false, "LVHAR": false, "LELF": false, "LOPTICS": false, "STM": [0.0, 0.0, 0.0, 0.0, 0.0, 0.0, 0.0], "NPAR": 2, "NSIM": 4, "NBLK": -1, "LPLANE": true, "LSCALAPACK": true, "LSCAAWARE": false, "LSCALU": false, "LASYNC": false, "LORBITALREAL": false, "IDIOT": 3, "PHON_NSTRUCT": -1, "LMUSIC": false, "POMASS": [7.01, 30.974, 32.066], "DARWINR": [0.0, 0.0, 0.0], "DARWINV": [1.0, 1.0, 1.0], "LCORR": true, "GGA_COMPAT": true, "LBERRY": false, "ICORELEVEL": 0, "LDAU": false, "I_CONSTRAINED_M": 0, "GGA": "--", "VOSKOWN": 0, "LHFCALC": false, "PRECFOCK": "", "LSYMGRAD": false, "LHFONE": false, "LRHFCALC": false, "LTHOMAS": false, "LMODELHF": false, "LFOCKACE": false, "ENCUT4O": -1.0, "EXXOEP": 0, "FOURORBIT": 0, "AEXX": 0.0, "HFALPHA": 0.0, "MCALPHA": 0.0, "ALDAX": 1.0, "AGGAX": 1.0, "ALDAC": 1.0, "AGGAC": 1.0, "NKREDX": 1, "NKREDY": 1, "NKREDZ": 1, "SHIFTRED": false, "ODDONLY": false, "EVENONLY": false, "LMAXFOCK": 0, "NMAXFOCKAE": 0, "LFOCKAEDFT": false, "HFSCREEN": 0.0, "HFSCREENC": 0.0, "NBANDSGWLOW": 0, "LUSE_VDW": false, "Zab_VDW": -0.8491, "PARAM1": 0.1234, "PARAM2": 1.0, "PARAM3": 0.0, "MODEL_GW": 0, "MODEL_EPS0": 24.84988316, "MODEL_ALPHA": 1.0, "LEPSILON": false, "LRPA": false, "LNABLA": false, "LVEL": false, "CSHIFT": 0.1, "OMEGAMAX": -1.0, "DEG_THRESHOLD": 0.002, "RTIME": -0.1, "WPLASMAI": 0.0, "DFIELD": [0.0, 0.0, 0.0], "WPLASMA": [0.0, 0.0, 0.0, 0.0, 0.0, 0.0, 0.0, 0.0, 0.0], "NUCIND": false, "MAGPOS": [0.0, 0.0, 0.0], "LNICSALL": true, "ORBITALMAG": false, "LMAGBLOCH": false, "LCHIMAG": false, "LGAUGE": true, "MAGATOM": 0, "MAGDIPOL": [0.0, 0.0, 0.0], "AVECCONST": [0.0, 0.0, 0.0], "LFINITE_TEMPERATURE": false, "LADDER": false, "LRPAFORCE": false, "LFXC": false, "LHARTREE": true, "IBSE": 0, "KPOINT": [-1, 0, 0, 0], "LTCTC": false, "LTCTE": false, "LTETE": false, "LTRIPLET": false, "LFXCEPS": false, "LFXHEG": false, "NATURALO": 2, "LHOLEGF": false, "L2ORDER": false, "LDMP1": false, "LMP2LT": false, "LSMP2LT": false, "LGWLF": false, "ENCUTGW": -2.0, "ENCUTGWSOFT": -2.0, "ENCUTLF": -1.0, "LESF_SPLINES": false, "LMAXMP2": -1, "SCISSOR": 0.0, "NOMEGA": 0, "NOMEGAR": 0, "NBANDSGW": -1, "NBANDSO": -1, "NBANDSV": -1, "NELMGW": 1, "NELMHF": 1, "DIM": 3, "IESPILON": 4, "ANTIRES": 0, "OMEGAMIN": -30.0, "OMEGATL": -200.0, "OMEGAGRID": 0, "LSELFENERGY": false, "LSPECTRAL": false, "LSPECTRALGW": false, "LSINGLES": false, "LFERMIGW": false, "ODDONLYGW": false, "EVENONLYGW": false, "NKREDLFX": 1, "NKREDLFY": 1, "NKREDLFZ": 1, "MAXMEM": 2800, "TELESCOPE": 0, "NTAUPAR": -1, "NOMEGAPAR": -1, "DAMP_NEWTON": 0.80000001, "LAMBDA": 1.0, "OFIELD_KAPPA": 0.0, "OFIELD_K": [0.0, 0.0, 0.0], "OFIELD_Q6_NEAR": 0.0, "OFIELD_Q6_FAR": 0.0, "OFIELD_A": 0.0, "KPOINTS_OPT_MODE": 1, "LKPOINTS_OPT": false, "@module": "pymatgen.io.vasp.inputs", "@class": "Incar"}, "relaxed_structures": {"@module": "pymatgen.core.structure", "@class": "Structure", "charge": 0, "lattice": {"matrix": [[6.259951, 0.0, 0.0], [0.0, 20.817994, 0.0], [0.0, 0.0, 50.8491]], "a": 6.259951, "b": 20.817994, "c": 50.8491, "alpha": 90.0, "beta": 90.0, "gamma": 90.0, "volume": 6626.6355092591275}, "sites": [{"species": [{"element": "Li", "occu": 1}], "abc": [0.87856375, 0.6698201, 0.07635779], "xyz": [5.49976602537625, 13.9443108228794, 3.882724899489], "label": "Li", "properties": {}}, {"species": [{"element": "Li", "occu": 1}], "abc": [0.88006969, 0.36378655, 0.17725681], "xyz": [5.50919313598519, 7.5733062151807, 9.013349257370999], "label": "Li", "properties": {}}, {"species": [{"element": "Li", "occu": 1}], "abc": [0.08119874, 0.25217597, 0.10176487], "xyz": [0.50830013366174, 5.24979783040418, 5.1746520511169996], "label": "Li", "properties": {}}, {"species": [{"element": "Li", "occu": 1}], "abc": [0.05966609, 0.56416005, 0.007414059999999998], "xyz": [0.37350679976159, 11.7446805359397, 0.3769982783459999], "label": "Li", "properties": {}}, {"species": [{"element": "Li", "occu": 1}], "abc": [0.41137725, 0.07420454, 0.011557159999999999], "xyz": [2.57520142751475, 1.54478966849276, 0.587671184556], "label": "Li", "properties": {}}, {"species": [{"element": "Li", "occu": 1}], "abc": [0.37621179, 0.75147622, 0.10613869], "xyz": [2.35506737102229, 15.64422743910268, 5.397056861678999], "label": "Li", "properties": {}}, {"species": [{"element": "Li", "occu": 1}], "abc": [0.5894161, 0.86260178, 0.17965604999999998], "xyz": [3.6897159046111, 17.95763868042932, 9.135348452054998], "label": "Li", "properties": {}}, {"species": [{"element": "Li", "occu": 1}], "abc": [0.57343195, 0.17139379, 0.07617194999999999], "xyz": [3.58965590883445, 3.56807489185726, 3.873275102744999], "label": "Li", "properties": {}}, {"species": [{"element": "Li", "occu": 1}], "abc": [0.61571426, 0.33630033, 0.025099540000000004], "xyz": [3.8543410976012598, 7.00109825213802, 1.2762890194140002], "label": "Li", "properties": {}}, {"species": [{"element": "Li", "occu": 1}], "abc": [0.62507955, 0.03379583, 0.12095999999999998], "xyz": [3.9129673541020504, 0.70356138616502, 6.150707135999999], "label": "Li", "properties": {}}, {"species": [{"element": "Li", "occu": 1}], "abc": [0.41487877, 0.57736719, 0.1620544], "xyz": [2.59712077114027, 12.019626697216859, 8.24032039104], "label": "Li", "properties": {}}, {"species": [{"element": "Li", "occu": 1}], "abc": [0.41782282, 0.88339913, 0.06197039000000001], "xyz": [2.61555037988182, 18.390597787945218, 3.1511385581490003], "label": "Li", "properties": {}}, {"species": [{"element": "Li", "occu": 1}], "abc": [0.13526414, 0.38345943, 0.05891994], "xyz": [0.8467468884571401, 7.982856112983419, 2.9960259210539997], "label": "Li", "properties": {}}, {"species": [{"element": "Li", "occu": 1}], "abc": [0.11779195, 0.08345886, 0.16096029], "xyz": [0.73737183519445, 1.7374460467268398, 8.184685882239], "label": "Li", "properties": {}}, {"species": [{"element": "Li", "occu": 1}], "abc": [0.92121083, 0.53872922, 0.12170254], "xyz": [5.76673465646933, 11.21526166958468, 6.1884646267139996], "label": "Li", "properties": {}}, {"species": [{"element": "Li", "occu": 1}], "abc": [0.96187495, 0.85500714, 0.028223400000000003], "xyz": [6.02129005512745, 17.799533510477158, 1.4351344889400002], "label": "Li", "properties": {}}, {"species": [{"element": "Li", "occu": 1}], "abc": [0.43195493, 0.29012152, 0.14422367], "xyz": [2.70401669600843, 6.03974806263088, 7.333643818197], "label": "Li", "properties": {}}, {"species": [{"element": "Li", "occu": 1}], "abc": [0.43621565, 0.58701904, 0.047627380000000004], "xyz": [2.73068859443315, 12.22055885260576, 2.4218094083580004], "label": "Li", "properties": {}}, {"species": [{"element": "Li", "occu": 1}], "abc": [0.93679608, 0.1338897, 0.032486350000000004], "xyz": [5.864297557792081, 2.7873149712617997, 1.6519016597850003], "label": "Li", "properties": {}}, {"species": [{"element": "Li", "occu": 1}], "abc": [0.9348686, 0.82638312, 0.13745053], "xyz": [5.8522316274386, 17.20363883386128, 6.989235745023], "label": "Li", "properties": {}}, {"species": [{"element": "Li", "occu": 1}], "abc": [0.07141745, 0.98145592, 0.08443755], "xyz": [0.44706973754494994, 20.43194345382448, 4.293573423705], "label": "Li", "properties": {}}, {"species": [{"element": "Li", "occu": 1}], "abc": [0.56993164, 0.44476566, 0.09898973], "xyz": [3.5677441397496397, 9.25912884128604, 5.033538679743], "label": "Li", "properties": {}}, {"species": [{"element": "Li", "occu": 1}], "abc": [0.56478228, 0.73002464, 0.004356419999999998], "xyz": [3.53550939846828, 15.19764857537216, 0.2215200362219999], "label": "Li", "properties": {}}, {"species": [{"element": "Li", "occu": 1}], "abc": [0.89268197, 0.06121014, 0.27923819], "xyz": [5.58814539078347, 1.27427232725916, 14.199010647129], "label": "Li", "properties": {}}, {"species": [{"element": "Li", "occu": 1}], "abc": [0.92522066, 0.75618156, 0.38207912], "xyz": [5.79183599578766, 15.74218317899064, 19.428379380792], "label": "Li", "properties": {}}, {"species": [{"element": "Li", "occu": 1}], "abc": [0.12497455, 0.64572306, 0.30651814], "xyz": [0.78233455924705, 13.442658788741639, 15.586171552674], "label": "Li", "properties": {}}, {"species": [{"element": "Li", "occu": 1}], "abc": [0.10962559, 0.94712195, 0.20461632], "xyz": [0.68625082174609, 19.7171790723683, 10.404555717312], "label": "Li", "properties": {}}, {"species": [{"element": "Li", "occu": 1}], "abc": [0.40436787, 0.44938333, 0.20423075], "xyz": [2.53132305217437, 9.35525946764002, 10.384949829824999], "label": "Li", "properties": {}}, {"species": [{"element": "Li", "occu": 1}], "abc": [0.4082795, 0.14636426, 0.30444168], "xyz": [2.5558096643045003, 3.04701028649444, 15.480585430488], "label": "Li", "properties": {}}, {"species": [{"element": "Li", "occu": 1}], "abc": [0.62353948, 0.25760004, 0.37772952], "xyz": [3.9033265913654804, 5.362716087119759, 19.207206135432], "label": "Li", "properties": {}}, {"species": [{"element": "Li", "occu": 1}], "abc": [0.61962526, 0.56136647, 0.27772758], "xyz": [3.8788237659622595, 11.686523804261178, 14.122197488178], "label": "Li", "properties": {}}, {"species": [{"element": "Li", "occu": 1}], "abc": [0.61671249, 0.72980177, 0.22145584], "xyz": [3.86058996848799, 15.193008869049379, 11.260830153744], "label": "Li", "properties": {}}, {"species": [{"element": "Li", "occu": 1}], "abc": [0.58272266, 0.4333132, 0.32207222], "xyz": [3.6478152981896597, 9.0207115977208, 16.377082522002002], "label": "Li", "properties": {}}, {"species": [{"element": "Li", "occu": 1}], "abc": [0.3739965, 0.97534399, 0.36283417], "xyz": [2.3411997641715, 20.30470533175606, 18.449790993747], "label": "Li", "properties": {}}, {"species": [{"element": "Li", "occu": 1}], "abc": [0.37061984, 0.28044453, 0.26224045], "xyz": [2.32006203802784, 5.8382925428728205, 13.334690866095], "label": "Li", "properties": {}}, {"species": [{"element": "Li", "occu": 1}], "abc": [0.09577396, 0.77398591, 0.2620744], "xyz": [0.59954029667596, 16.11283403046454, 13.32624737304], "label": "Li", "properties": {}}, {"species": [{"element": "Li", "occu": 1}], "abc": [0.08296648, 0.47078135, 0.36146527], "xyz": [0.51936609944248, 9.8007233196119, 18.380183660757], "label": "Li", "properties": {}}, {"species": [{"element": "Li", "occu": 1}], "abc": [0.87525851, 0.92513302, 0.32275398], "xyz": [5.47907538493301, 19.25941365956188, 16.411749404418], "label": "Li", "properties": {}}, {"species": [{"element": "Li", "occu": 1}], "abc": [0.90031423, 0.23475145, 0.22227084], "xyz": [5.63592296440273, 4.887054277591299, 11.302272170244], "label": "Li", "properties": {}}, {"species": [{"element": "Li", "occu": 1}], "abc": [0.570135, 0.71949602, 0.33968740999999997], "xyz": [3.569017163385, 14.97846382738388, 17.272799079831], "label": "Li", "properties": {}}, {"species": [{"element": "Li", "occu": 1}], "abc": [0.49995343, 0.00475119, 0.24187021999999997], "xyz": [3.1296839740819298, 0.09891024491285999, 12.298883003801999], "label": "Li", "properties": {}}, {"species": [{"element": "Li", "occu": 1}], "abc": [0.04678027, 0.49261404, 0.24388818], "xyz": [0.29284219796676997, 10.255236129035758, 12.401494453638], "label": "Li", "properties": {}}, {"species": [{"element": "Li", "occu": 1}], "abc": [0.05706972, 0.18318576, 0.34635341], "xyz": [0.35725365078372, 3.81356005256544, 17.611759180430997], "label": "Li", "properties": {}}, {"species": [{"element": "Li", "occu": 1}], "abc": [0.05016917, 0.66328504, 0.18699247], "xyz": [0.31405654591067, 13.808263983009759, 9.508398806277], "label": "Li", "properties": {}}, {"species": [{"element": "Li", "occu": 1}], "abc": [0.93147936, 0.34211552, 0.29805006], "xyz": [5.83101515111136, 7.12215884266688, 15.155577305946], "label": "Li", "properties": {}}, {"species": [{"element": "Li", "occu": 1}], "abc": [0.44349761, 0.86215103, 0.28690811], "xyz": [2.7762733072171097, 17.94825496963382, 14.589019176200999], "label": "Li", "properties": {}}, {"species": [{"element": "Li", "occu": 1}], "abc": [0.55350038, 0.14776713, 0.19671636], "xyz": [3.46488525728138, 3.07621522573722, 10.002849861276001], "label": "Li", "properties": {}}, {"species": [{"element": "Li", "occu": 1}], "abc": [0.93949412, 0.44525921, 0.47616752], "xyz": [5.88118715598812, 9.26940356222474, 24.212689841232], "label": "Li", "properties": {}}, {"species": [{"element": "Li", "occu": 1}], "abc": [0.1209549, 0.33891895, 0.40754534], "xyz": [0.7571717472099, 7.055612667586299, 20.723313748194], "label": "Li", "properties": {}}, {"species": [{"element": "Li", "occu": 1}], "abc": [0.4279791, 0.83855681, 0.40771094], "xyz": [2.6791281950241, 17.45707063923914, 20.731734359154], "label": "Li", "properties": {}}, {"species": [{"element": "Li", "occu": 1}], "abc": [0.59152356, 0.93613075, 0.47225148], "xyz": [3.7029085009455596, 19.4883643367155, 24.013562731668], "label": "Li", "properties": {}}, {"species": [{"element": "Li", "occu": 1}], "abc": [0.57509386, 0.12627265, 0.42150394], "xyz": [3.60005938400086, 2.6287432700640996, 21.433095995454], "label": "Li", "properties": {}}, {"species": [{"element": "Li", "occu": 1}], "abc": [0.38305712, 0.67229376, 0.45851322], "xyz": [2.39791880140112, 13.995807461917439, 23.314984575102], "label": "Li", "properties": {}}, {"species": [{"element": "Li", "occu": 1}], "abc": [0.03508359, 0.15448194, 0.45585555], "xyz": [0.21962155430409, 3.21600410002836, 23.179844447505], "label": "Li", "properties": {}}, {"species": [{"element": "Li", "occu": 1}], "abc": [0.86169992, 0.62501417, 0.42461196], "xyz": [5.39419927590392, 13.01154124097498, 21.591136015236], "label": "Li", "properties": {}}, {"species": [{"element": "Li", "occu": 1}], "abc": [0.56422812, 0.42238345, 0.43591461], "xyz": [3.53204038402212, 8.793176127799299, 22.165865595351], "label": "Li", "properties": {}}, {"species": [{"element": "Li", "occu": 1}], "abc": [0.06597275, 0.87426606, 0.45151354], "xyz": [0.41298618233525, 18.20046559148364, 22.959057146814], "label": "Li", "properties": {}}, {"species": [{"element": "Li", "occu": 1}], "abc": [0.92655892, 0.02739813, 0.39941589], "xyz": [5.8002134378129195, 0.57037410595122, 20.309938532199], "label": "Li", "properties": {}}, {"species": [{"element": "Li", "occu": 1}], "abc": [0.43329193, 0.28004368, 0.47942651999999997], "xyz": [2.71238625049543, 5.82994764997792, 24.378407058131998], "label": "Li", "properties": {}}, {"species": [{"element": "Li", "occu": 1}], "abc": [0.43238003, 0.56502597, 0.38464921], "xyz": [2.70667780117853, 11.762707253304178, 19.559066144211002], "label": "Li", "properties": {}}, {"species": [{"element": "P", "occu": 1}], "abc": [0.16245089, 0.41912203, 0.13400826999999998], "xyz": [1.01693461130639, 8.725279905807819, 6.814199922056999], "label": "P", "properties": {}}, {"species": [{"element": "P", "occu": 1}], "abc": [0.16921601, 0.72411841, 0.03197817], "xyz": [1.05928393101551, 15.074692714669538, 1.626061164147], "label": "P", "properties": {}}, {"species": [{"element": "P", "occu": 1}], "abc": [0.84055092, 0.50169693, 0.04868509000000001], "xyz": [5.26180757220492, 10.44432367855842, 2.475593009919], "label": "P", "properties": {}}, {"species": [{"element": "P", "occu": 1}], "abc": [0.83759973, 0.19728245, 0.14801474], "xyz": [5.24333326741323, 4.1070248604053, 7.526416315734], "label": "P", "properties": {}}, {"species": [{"element": "P", "occu": 1}], "abc": [0.65977665, 0.6967107, 0.14838679], "xyz": [4.13016949994415, 14.5041191723358, 7.545334723389], "label": "P", "properties": {}}, {"species": [{"element": "P", "occu": 1}], "abc": [0.66362252, 0.00276877, 0.04901462], "xyz": [4.15424445769652, 0.057640237247379995, 2.492349313842], "label": "P", "properties": {}}, {"species": [{"element": "P", "occu": 1}], "abc": [0.32419194, 0.2254341, 0.029718460000000002], "xyz": [2.02942565899494, 4.6930857411954, 1.511156944386], "label": "P", "properties": {}}, {"species": [{"element": "P", "occu": 1}], "abc": [0.34522259, 0.91829504, 0.13438181999999999], "xyz": [2.16107649749309, 19.11706063294976, 6.833194603361999], "label": "P", "properties": {}}, {"species": [{"element": "P", "occu": 1}], "abc": [0.16263394, 0.81253994, 0.33573181], "xyz": [1.01808049533694, 16.91545159568036, 17.071660379871002], "label": "P", "properties": {}}, {"species": [{"element": "P", "occu": 1}], "abc": [0.15660618, 0.11631065, 0.23445291], "xyz": [0.9803470130971801, 2.4213544138361, 11.921719465880999], "label": "P", "properties": {}}, {"species": [{"element": "P", "occu": 1}], "abc": [0.84148948, 0.89322126, 0.24933804999999998], "xyz": [5.26768291181548, 18.595074831352438, 12.678615438255], "label": "P", "properties": {}}, {"species": [{"element": "P", "occu": 1}], "abc": [0.8413902, 0.59075937, 0.34957423], "xyz": [5.2670614238802, 12.29842502010378, 17.775534978693], "label": "P", "properties": {}}, {"species": [{"element": "P", "occu": 1}], "abc": [0.65309151, 0.09073813, 0.34947547], "xyz": [4.08832085111601, 1.8889858459112199, 17.770513121577], "label": "P", "properties": {}}, {"species": [{"element": "P", "occu": 1}], "abc": [0.65340352, 0.3938551, 0.24909988], "xyz": [4.09027401842752, 8.1992731086694, 12.666504708108], "label": "P", "properties": {}}, {"species": [{"element": "P", "occu": 1}], "abc": [0.34934523, 0.6157303, 0.23467494], "xyz": [2.18688402188373, 12.818269691018198, 11.933009491554], "label": "P", "properties": {}}, {"species": [{"element": "P", "occu": 1}], "abc": [0.33741225, 0.31247243, 0.335263], "xyz": [2.11218415179975, 6.50504917290542, 17.0478218133], "label": "P", "properties": {}}, {"species": [{"element": "P", "occu": 1}], "abc": [0.15971525, 0.50722656, 0.43481418], "xyz": [0.99980963895275, 10.55943948272064, 22.109909720238], "label": "P", "properties": {}}, {"species": [{"element": "P", "occu": 1}], "abc": [0.82921551, 0.28499597, 0.45206829], "xyz": [5.1908484610400105, 5.933044393484179, 22.987265685039], "label": "P", "properties": {}}, {"species": [{"element": "P", "occu": 1}], "abc": [0.67542022, 0.78357691, 0.45388341], "xyz": [4.22809748160922, 16.312499410918537, 23.079562903431], "label": "P", "properties": {}}, {"species": [{"element": "P", "occu": 1}], "abc": [0.3341868, 0.00653084, 0.43489525], "xyz": [2.0919929928468, 0.13595898793496, 22.114032056775], "label": "P", "properties": {}}, {"species": [{"element": "S", "occu": 1}], "abc": [0.29689683, 0.50680856, 0.12553741999999998], "xyz": [1.85855960785533, 10.550737561228638, 6.383464823321999], "label": "S", "properties": {}}, {"species": [{"element": "S", "occu": 1}], "abc": [0.3201737, 0.81044245, 0.02380894], "xyz": [2.0042716734887, 16.8717860614453, 1.2106631709540001], "label": "S", "properties": {}}, {"species": [{"element": "S", "occu": 1}], "abc": [0.74696394, 0.41008195, 0.05848071], "xyz": [4.67595766316694, 8.5370835746083, 2.973691470861], "label": "S", "properties": {}}, {"species": [{"element": "S", "occu": 1}], "abc": [0.73375009, 0.10600989, 0.15705859], "xyz": [4.5932396096455905, 2.2069132539606597, 7.986287948769], "label": "S", "properties": {}}, {"species": [{"element": "S", "occu": 1}], "abc": [0.79136205, 0.60874005, 0.15684096], "xyz": [4.953887656259551, 12.672746708459698, 7.975221659136], "label": "S", "properties": {}}, {"species": [{"element": "S", "occu": 1}], "abc": [0.789222, 0.91531386, 0.060879869999999996], "xyz": [4.9404910481219995, 19.05499844559684, 3.0956865976169996], "label": "S", "properties": {}}, {"species": [{"element": "S", "occu": 1}], "abc": [0.23969786, 0.3187011, 0.02162517], "xyz": [1.5004968584048601, 6.6347175875934, 1.099620431847], "label": "S", "properties": {}}, {"species": [{"element": "S", "occu": 1}], "abc": [0.24044581, 0.00990124, 0.12605194], "xyz": [1.50517898875531, 0.20612395491256, 6.409627702254], "label": "S", "properties": {}}, {"species": [{"element": "S", "occu": 1}], "abc": [0.19590625, 0.18860079, 0.06432581], "xyz": [1.22636352559375, 3.92629011461526, 3.270909545271], "label": "S", "properties": {}}, {"species": [{"element": "S", "occu": 1}], "abc": [0.21289988, 0.87800538, 0.16746054999999999], "xyz": [1.3327428167058801, 18.278310732807718, 8.515218253005], "label": "S", "properties": {}}, {"species": [{"element": "S", "occu": 1}], "abc": [0.76214754, 0.73706487, 0.11341029], "xyz": [4.77100625517054, 15.34421204127078, 5.766811177239], "label": "S", "properties": {}}, {"species": [{"element": "S", "occu": 1}], "abc": [0.77410174, 0.0334536, 0.01359522], "xyz": [4.84583896141474, 0.6964368440784, 0.691304701302], "label": "S", "properties": {}}, {"species": [{"element": "S", "occu": 1}], "abc": [0.69804446, 0.53748634, 0.015606199999999999], "xyz": [4.36972411542146, 11.189387401201959, 0.79356122442], "label": "S", "properties": {}}, {"species": [{"element": "S", "occu": 1}], "abc": [0.70373084, 0.23650168, 0.11487022], "xyz": [4.40532057558884, 4.92349055522992, 5.841047303802], "label": "S", "properties": {}}, {"species": [{"element": "S", "occu": 1}], "abc": [0.2666172, 0.3792868, 0.16881429], "xyz": [1.6690106077572, 7.8959903266791995, 8.584054713639], "label": "S", "properties": {}}, {"species": [{"element": "S", "occu": 1}], "abc": [0.26651973, 0.68357572, 0.06678925], "xyz": [1.6684004503332301, 14.230675237505679, 3.3961732521749997], "label": "S", "properties": {}}, {"species": [{"element": "S", "occu": 1}], "abc": [0.73748174, 0.55975553, 0.07962812], "xyz": [4.61659955579474, 11.65298726500682, 4.049018236692], "label": "S", "properties": {}}, {"species": [{"element": "S", "occu": 1}], "abc": [0.72672139, 0.25428227, 0.17897538999999998], "xyz": [4.54924029205189, 5.2936467711663795, 9.100737503648999], "label": "S", "properties": {}}, {"species": [{"element": "S", "occu": 1}], "abc": [0.27027184, 0.35803705, 0.10446928999999999], "xyz": [1.69188847507984, 7.4536131586777, 5.312169374139], "label": "S", "properties": {}}, {"species": [{"element": "S", "occu": 1}], "abc": [0.2501847, 0.66458989, 0.0012337999999999984], "xyz": [1.5661439629496998, 13.83542834248066, 0.06273761957999992], "label": "S", "properties": {}}, {"species": [{"element": "S", "occu": 1}], "abc": [0.2177067, 0.16746968, 9.99999999999994e-05], "xyz": [1.3628332743717, 3.48638279342192, 0.005084909999999969], "label": "S", "properties": {}}, {"species": [{"element": "S", "occu": 1}], "abc": [0.23381551, 0.86121445, 0.10360831999999999], "xyz": [1.46367363564001, 17.9287572528133, 5.268389824511999], "label": "S", "properties": {}}, {"species": [{"element": "S", "occu": 1}], "abc": [0.7734333, 0.75763744, 0.17766527999999998], "xyz": [4.8416545597683, 15.772491680095358, 9.034119589247998], "label": "S", "properties": {}}, {"species": [{"element": "S", "occu": 1}], "abc": [0.76492797, 0.06623176, 0.07785226999999999], "xyz": [4.7884116107294705, 1.37881238228944, 3.958717862456999], "label": "S", "properties": {}}, {"species": [{"element": "S", "occu": 1}], "abc": [0.83729878, 0.42887891, 0.13701706], "xyz": [5.24144933515978, 8.92839857510654, 6.967194185646], "label": "S", "properties": {}}, {"species": [{"element": "S", "occu": 1}], "abc": [0.84720204, 0.74303281, 0.035775], "xyz": [5.30344325750004, 15.468452580383138, 1.8191265525], "label": "S", "properties": {}}, {"species": [{"element": "S", "occu": 1}], "abc": [0.16620545, 0.49796025, 0.0431158], "xyz": [1.04043797293295, 10.3665334967385, 2.1923996257800002], "label": "S", "properties": {}}, {"species": [{"element": "S", "occu": 1}], "abc": [0.16260386, 0.19336011, 0.14365656999999998], "xyz": [1.01789219601086, 4.0253696098193394, 7.304807293586999], "label": "S", "properties": {}}, {"species": [{"element": "S", "occu": 1}], "abc": [0.33467566, 0.68779904, 0.14642576], "xyz": [2.09505323249266, 14.31859628792576, 7.445618112816], "label": "S", "properties": {}}, {"species": [{"element": "S", "occu": 1}], "abc": [0.33624701, 0.99278626, 0.0458001], "xyz": [2.10488980649651, 20.66781840396244, 2.3288938649100004], "label": "S", "properties": {}}, {"species": [{"element": "S", "occu": 1}], "abc": [0.65380918, 0.22505145, 0.03443747], "xyz": [4.09281343015018, 4.685119735791299, 1.751114355777], "label": "S", "properties": {}}, {"species": [{"element": "S", "occu": 1}], "abc": [0.66990158, 0.92311571, 0.13873881], "xyz": [4.19355106562258, 19.21741731208574, 7.0547436235709995], "label": "S", "properties": {}}, {"species": [{"element": "S", "occu": 1}], "abc": [0.26201271, 0.90415048, 0.32647054999999997], "xyz": [1.6401867259772098, 18.822599267737118, 16.600733644004997], "label": "S", "properties": {}}, {"species": [{"element": "S", "occu": 1}], "abc": [0.27847738, 0.20523184, 0.22574648], "xyz": [1.74325475340838, 4.27251521372896, 11.479005336168], "label": "S", "properties": {}}, {"species": [{"element": "S", "occu": 1}], "abc": [0.71797459, 0.80452034, 0.25795085], "xyz": [4.494485752645089, 16.748499610997957, 13.116568566735001], "label": "S", "properties": {}}, {"species": [{"element": "S", "occu": 1}], "abc": [0.70771457, 0.50284428, 0.35807931], "xyz": [4.43025853018607, 10.46820920397432, 18.208010642121], "label": "S", "properties": {}}, {"species": [{"element": "S", "occu": 1}], "abc": [0.75801018, 0.99917561, 0.35776543], "xyz": [4.74510658430118, 20.80083185392634, 18.192050126613], "label": "S", "properties": {}}, {"species": [{"element": "S", "occu": 1}], "abc": [0.75612789, 0.30202009, 0.25782403], "xyz": [4.73332354113339, 6.28745242149946, 13.110119883872999], "label": "S", "properties": {}}, {"species": [{"element": "S", "occu": 1}], "abc": [0.23194346, 0.70615699, 0.22621953], "xyz": [1.45195469437046, 14.70077198087806, 11.503059502923], "label": "S", "properties": {}}, {"species": [{"element": "S", "occu": 1}], "abc": [0.20559395, 0.39999885, 0.3263516], "xyz": [1.28700805289645, 8.327173659306899, 16.59468514356], "label": "S", "properties": {}}, {"species": [{"element": "S", "occu": 1}], "abc": [0.23304366, 0.57681956, 0.26911393], "xyz": [1.45884189246066, 12.00822613916264, 13.684201137963], "label": "S", "properties": {}}, {"species": [{"element": "S", "occu": 1}], "abc": [0.23582828, 0.27211809, 0.37023482], "xyz": [1.47627347721428, 5.664952764911459, 18.826107385662002], "label": "S", "properties": {}}, {"species": [{"element": "S", "occu": 1}], "abc": [0.78520587, 0.13069075, 0.31628121], "xyz": [4.91535027111237, 2.7207192493554997, 16.082614875411], "label": "S", "properties": {}}, {"species": [{"element": "S", "occu": 1}], "abc": [0.78332522, 0.43212343, 0.21550424999999998], "xyz": [4.90357749426422, 8.99594297299942, 10.958197158674999], "label": "S", "properties": {}}, {"species": [{"element": "S", "occu": 1}], "abc": [0.72884488, 0.93282045, 0.21489421], "xyz": [4.56253323540088, 19.4194505311773, 10.927177173711], "label": "S", "properties": {}}, {"species": [{"element": "S", "occu": 1}], "abc": [0.73785732, 0.63076248, 0.31486095999999997], "xyz": [4.61895066819132, 13.13120952406512, 16.010396441136], "label": "S", "properties": {}}, {"species": [{"element": "S", "occu": 1}], "abc": [0.29938219, 0.77392227, 0.36883306], "xyz": [1.8741178396726899, 16.11150917332638, 18.754829151246], "label": "S", "properties": {}}, {"species": [{"element": "S", "occu": 1}], "abc": [0.27106608, 0.07690598, 0.26885259], "xyz": [1.69686037856208, 1.6010282302041199, 13.670912234169], "label": "S", "properties": {}}, {"species": [{"element": "S", "occu": 1}], "abc": [0.72512948, 0.95326988, 0.27901598], "xyz": [4.53927501345548, 19.84516664222072, 14.187711468618], "label": "S", "properties": {}}, {"species": [{"element": "S", "occu": 1}], "abc": [0.73174931, 0.65143267, 0.37918251999999997], "xyz": [4.58071482488381, 13.56152141546398, 19.281089877731997], "label": "S", "properties": {}}, {"species": [{"element": "S", "occu": 1}], "abc": [0.27452133, 0.75552874, 0.30486082999999997], "xyz": [1.7184900742548301, 15.72859277614756, 15.501898830752998], "label": "S", "properties": {}}, {"species": [{"element": "S", "occu": 1}], "abc": [0.27282176, 0.0563399, 0.20477847], "xyz": [1.70785084933376, 1.1728837001605998, 10.412800898877], "label": "S", "properties": {}}, {"species": [{"element": "S", "occu": 1}], "abc": [0.2321403, 0.55665015, 0.20469046], "xyz": [1.4531869031253, 11.588339482799098, 10.408325669585999], "label": "S", "properties": {}}, {"species": [{"element": "S", "occu": 1}], "abc": [0.22411231, 0.25115525, 0.3061035], "xyz": [1.40293207909681, 5.228548487568499, 15.565087481849998], "label": "S", "properties": {}}, {"species": [{"element": "S", "occu": 1}], "abc": [0.76510497, 0.14797244, 0.38021633], "xyz": [4.78951962205647, 3.08048936808536, 19.333658185803], "label": "S", "properties": {}}, {"species": [{"element": "S", "occu": 1}], "abc": [0.7694962, 0.45094933, 0.27964852], "xyz": [4.8170085066862, 9.38786044624402, 14.219875558332001], "label": "S", "properties": {}}, {"species": [{"element": "S", "occu": 1}], "abc": [0.8378339, 0.8155771, 0.34042047], "xyz": [5.2447991601389, 16.9786791743374, 17.310074521077], "label": "S", "properties": {}}, {"species": [{"element": "S", "occu": 1}], "abc": [0.83014226, 0.12195189, 0.23736634], "xyz": [5.19664987062926, 2.53879371430866, 12.069864759294001], "label": "S", "properties": {}}, {"species": [{"element": "S", "occu": 1}], "abc": [0.16789154, 0.88711136, 0.24657434], "xyz": [1.0509928137145401, 18.46787896981184, 12.538083272094001], "label": "S", "properties": {}}, {"species": [{"element": "S", "occu": 1}], "abc": [0.16667962, 0.58115485, 0.34677302], "xyz": [1.04340625389862, 12.098478180370899, 17.633095971282], "label": "S", "properties": {}}, {"species": [{"element": "S", "occu": 1}], "abc": [0.32841851, 0.08631871, 0.34536123], "xyz": [2.05588378009301, 1.7969823868677401, 17.561307720393], "label": "S", "properties": {}}, {"species": [{"element": "S", "occu": 1}], "abc": [0.32777359, 0.39100223, 0.24567118], "xyz": [2.05184661249409, 8.13988207812662, 12.492158398937999], "label": "S", "properties": {}}, {"species": [{"element": "S", "occu": 1}], "abc": [0.67315013, 0.62000502, 0.23659220999999997], "xyz": [4.21388682944363, 12.90726078632988, 12.030500945511], "label": "S", "properties": {}}, {"species": [{"element": "S", "occu": 1}], "abc": [0.66278644, 0.32194644, 0.33761617], "xyz": [4.14901063786444, 6.70227905624136, 17.167478389947], "label": "S", "properties": {}}, {"species": [{"element": "S", "occu": 1}], "abc": [0.25209822, 0.59896768, 0.42504545], "xyz": [1.57812250438722, 12.469305568433919, 21.613178591595], "label": "S", "properties": {}}, {"species": [{"element": "S", "occu": 1}], "abc": [0.67681812, 0.19891784, 0.46010481999999997], "xyz": [4.23684826711212, 4.14107039961296, 23.395916002662], "label": "S", "properties": {}}, {"species": [{"element": "S", "occu": 1}], "abc": [0.75958384, 0.69019677, 0.46195584], "xyz": [4.75495761879184, 14.36851221667938, 23.490038703744002], "label": "S", "properties": {}}, {"species": [{"element": "S", "occu": 1}], "abc": [0.20582085, 0.09376585, 0.42317477], "xyz": [1.28842843577835, 1.9520169027049, 21.518056197207], "label": "S", "properties": {}}, {"species": [{"element": "S", "occu": 1}], "abc": [0.22536864, 0.9752371, 0.47029105], "xyz": [1.4107966433366401, 20.302480096377398, 23.913876630555], "label": "S", "properties": {}}, {"species": [{"element": "S", "occu": 1}], "abc": [0.80530628, 0.82051732, 0.41940566], "xyz": [5.041177852792281, 17.081524644656078, 21.326400345906002], "label": "S", "properties": {}}, {"species": [{"element": "S", "occu": 1}], "abc": [0.73264688, 0.32550301, 0.41717292], "xyz": [4.58633356910288, 6.776319709161939, 21.212867526372], "label": "S", "properties": {}}, {"species": [{"element": "S", "occu": 1}], "abc": [0.30185207, 0.47153179, 0.46793582], "xyz": [1.8895791674485698, 9.81634597502926, 23.794115304762], "label": "S", "properties": {}}, {"species": [{"element": "S", "occu": 1}], "abc": [0.74950085, 0.34477352, 0.48273707], "xyz": [4.69183859545835, 7.17749307071888, 24.546745546137], "label": "S", "properties": {}}, {"species": [{"element": "S", "occu": 1}], "abc": [0.26293466, 0.44913849, 0.40390026], "xyz": [1.64595808780166, 9.350162389989059, 20.537964710766], "label": "S", "properties": {}}, {"species": [{"element": "S", "occu": 1}], "abc": [0.23439929, 0.94313532, 0.40596166], "xyz": [1.4673280698347901, 19.63418543294808, 20.642785045506], "label": "S", "properties": {}}, {"species": [{"element": "S", "occu": 1}], "abc": [0.77993382, 0.84162909, 0.48358985], "xyz": [4.88234749644282, 17.52102934584546, 24.590108641635], "label": "S", "properties": {}}, {"species": [{"element": "S", "occu": 1}], "abc": [0.83373791, 0.51091393, 0.44037336], "xyz": [5.21915846344241, 10.636203129256419, 22.392589019976], "label": "S", "properties": {}}, {"species": [{"element": "S", "occu": 1}], "abc": [0.15109066, 0.26578621, 0.44823075], "xyz": [0.9458201281576599, 5.53313572506274, 22.792130229825002], "label": "S", "properties": {}}, {"species": [{"element": "S", "occu": 1}], "abc": [0.34586607, 0.7836121, 0.4489902], "xyz": [2.16510465076257, 16.3132319961274, 22.83074757882], "label": "S", "properties": {}}, {"species": [{"element": "S", "occu": 1}], "abc": [0.66125231, 0.01738874, 0.43795839999999997], "xyz": [4.1394070592368095, 0.36199868498756, 22.269790477439997], "label": "S", "properties": {}}]}, "formula": "(Li3PS4)20.0", "bandgap": 2.3493, "slab_thickness": 24.585023731634998}