{"miller": "100_0.25", "final_energy": -418.06015566, "gamma": 0.019385040067827018, "work_function": "Not calculated", "ionization_potentail": "Not calculated", "electron_affinity": "Not calculated", "is_stochiometric": true, "incar_parameters": {"SYSTEM": "unknown system", "LCOMPAT": false, "PREC": "normal", "ENMAX": 520.0, "ENAUG": 628.945, "EDIFF": 1e-05, "IALGO": 38, "IWAVPR": 11, "NBANDS": 278, "NBANDSLOW": -1, "NBANDSHIGH": -1, "NELECT": 456.0, "TURBO": 0, "IRESTART": 0, "NREBOOT": 0, "NMIN": 0, "EREF": 0.0, "ISMEAR": 0, "SIGMA": 0.05, "KSPACING": 0.5, "KGAMMA": true, "KBLOWUP": true, "LREAL": true, "ROPT": [-0.0005, -0.0005, -0.0005], "LMAXPAW": -100, "LMAXMIX": 2, "NLSPLINE": false, "ISTART": 0, "ICHARG": 2, "INIWAV": 1, "ISPIN": 1, "LNONCOLLINEAR": false, "MAGMOM": [0.6, 0.6, 0.6, 0.6, 0.6, 0.6, 0.6, 0.6, 0.6, 0.6, 0.6, 0.6, 0.6, 0.6, 0.6, 0.6, 0.6, 0.6, 0.6, 0.6, 0.6, 0.6, 0.6, 0.6, 0.6, 0.6, 0.6, 0.6, 0.6, 0.6, 0.6, 0.6, 0.6, 0.6, 0.6, 0.6, 0.6, 0.6, 0.6, 0.6, 0.6, 0.6, 0.6, 0.6, 0.6, 0.6, 0.6, 0.6, 0.6, 0.6, 0.6, 0.6, 0.6, 0.6, 0.6, 0.6, 0.6, 0.6, 0.6, 0.6, 0.6, 0.6, 0.6, 0.6, 0.6, 0.6, 0.6, 0.6, 0.6, 0.6, 0.6, 0.6, 0.6, 0.6, 0.6, 0.6, 0.6, 0.6, 0.6, 0.6, 0.6, 0.6, 0.6, 0.6, 0.6, 0.6, 0.6, 0.6, 0.6, 0.6, 0.6, 0.6, 0.6, 0.6, 0.6, 0.6], "NUPDOWN": -1.0, "LSORBIT": false, "SAXIS": [0.0, 0.0, 1.0], "LSPIRAL": false, "QSPIRAL": [0.0, 0.0, 0.0], "LZEROZ": false, "LASPH": false, "LMETAGGA": false, "NELM": 100, "NELMDL": -5, "NELMIN": 6, "ENINI": 520.0, "LDIAG": true, "LSUBROT": false, "WEIMIN": 0.001, "EBREAK": 1e-08, "DEPER": 0.3, "NRMM": 4, "TIME": 0.4, "AMIX": 0.4, "BMIX": 1.0, "AMIN": 0.1, "AMIX_MAG": 1.6, "BMIX_MAG": 1.0, "IMIX": 4, "MIXFIRST": false, "MAXMIX": -45, "WC": 100.0, "INIMIX": 1, "MIXPRE": 1, "MREMOVE": 5, "LDIPOL": false, "LMONO": false, "IDIPOL": 0, "EPSILON": 1.0, "DIPOL": [-100.0, -100.0, -100.0], "EFIELD": 0.0, "NGX": 48, "NGY": 80, "NGZ": 250, "NGXF": 96, "NGYF": 160, "NGZF": 500, "ADDGRID": false, "NSW": 150, "IBRION": 2, "MDALGO": 0, "ISIF": 2, "PSTRESS": 0.0, "EDIFFG": -0.01, "NFREE": 1, "POTIM": 0.5, "SMASS": -3.0, "SCALEE": 1.0, "TEBEG": 0.0001, "TEEND": 0.0001, "NBLOCK": 1, "KBLOCK": 150, "NPACO": 256, "APACO": 10.0, "ISYM": 0, "SYMPREC": 1e-05, "LORBIT": 11, "RWIGS": [-1.0, -1.0, -1.0], "NEDOS": 301, "EMIN": 10.0, "EMAX": -10.0, "EFERMI": 0.0, "NWRITE": 2, "LWAVE": false, "LDOWNSAMPLE": false, "LCHARG": false, "LPARD": false, "LVTOT": false, "LVHAR": false, "LELF": false, "LOPTICS": false, "STM": [0.0, 0.0, 0.0, 0.0, 0.0, 0.0, 0.0], "NPAR": 2, "NSIM": 4, "NBLK": -1, "LPLANE": true, "LSCALAPACK": true, "LSCAAWARE": false, "LSCALU": false, "LASYNC": false, "LORBITALREAL": false, "IDIOT": 3, "PHON_NSTRUCT": -1, "LMUSIC": false, "POMASS": [7.01, 30.974, 32.066], "DARWINR": [0.0, 0.0, 0.0], "DARWINV": [1.0, 1.0, 1.0], "LCORR": true, "GGA_COMPAT": true, "LBERRY": false, "ICORELEVEL": 0, "LDAU": false, "I_CONSTRAINED_M": 0, "GGA": "--", "VOSKOWN": 0, "LHFCALC": false, "PRECFOCK": "", "LSYMGRAD": false, "LHFONE": false, "LRHFCALC": false, "LTHOMAS": false, "LMODELHF": false, "LFOCKACE": false, "ENCUT4O": -1.0, "EXXOEP": 0, "FOURORBIT": 0, "AEXX": 0.0, "HFALPHA": 0.0, "MCALPHA": 0.0, "ALDAX": 1.0, "AGGAX": 1.0, "ALDAC": 1.0, "AGGAC": 1.0, "NKREDX": 1, "NKREDY": 1, "NKREDZ": 1, "SHIFTRED": false, "ODDONLY": false, "EVENONLY": false, "LMAXFOCK": 0, "NMAXFOCKAE": 0, "LFOCKAEDFT": false, "HFSCREEN": 0.0, "HFSCREENC": 0.0, "NBANDSGWLOW": 0, "LUSE_VDW": false, "Zab_VDW": -0.8491, "PARAM1": 0.1234, "PARAM2": 1.0, "PARAM3": 0.0, "MODEL_GW": 0, "MODEL_EPS0": 28.99153096, "MODEL_ALPHA": 1.0, "LEPSILON": false, "LRPA": false, "LNABLA": false, "LVEL": false, "CSHIFT": 0.1, "OMEGAMAX": -1.0, "DEG_THRESHOLD": 0.002, "RTIME": -0.1, "WPLASMAI": 0.0, "DFIELD": [0.0, 0.0, 0.0], "WPLASMA": [0.0, 0.0, 0.0, 0.0, 0.0, 0.0, 0.0, 0.0, 0.0], "NUCIND": false, "MAGPOS": [0.0, 0.0, 0.0], "LNICSALL": true, "ORBITALMAG": false, "LMAGBLOCH": false, "LCHIMAG": false, "LGAUGE": true, "MAGATOM": 0, "MAGDIPOL": [0.0, 0.0, 0.0], "AVECCONST": [0.0, 0.0, 0.0], "LFINITE_TEMPERATURE": false, "LADDER": false, "LRPAFORCE": false, "LFXC": false, "LHARTREE": true, "IBSE": 0, "KPOINT": [-1, 0, 0, 0], "LTCTC": false, "LTCTE": false, "LTETE": false, "LTRIPLET": false, "LFXCEPS": false, "LFXHEG": false, "NATURALO": 2, "LHOLEGF": false, "L2ORDER": false, "LDMP1": false, "LMP2LT": false, "LSMP2LT": false, "LGWLF": false, "ENCUTGW": -2.0, "ENCUTGWSOFT": -2.0, "ENCUTLF": -1.0, "LESF_SPLINES": false, "LMAXMP2": -1, "SCISSOR": 0.0, "NOMEGA": 0, "NOMEGAR": 0, "NBANDSGW": -1, "NBANDSO": -1, "NBANDSV": -1, "NELMGW": 1, "NELMHF": 1, "DIM": 3, "IESPILON": 4, "ANTIRES": 0, "OMEGAMIN": -30.0, "OMEGATL": -200.0, "OMEGAGRID": 0, "LSELFENERGY": false, "LSPECTRAL": false, "LSPECTRALGW": false, "LSINGLES": false, "LFERMIGW": false, "ODDONLYGW": false, "EVENONLYGW": false, "NKREDLFX": 1, "NKREDLFY": 1, "NKREDLFZ": 1, "MAXMEM": 2800, "TELESCOPE": 0, "NTAUPAR": -1, "NOMEGAPAR": -1, "DAMP_NEWTON": 0.80000001, "LAMBDA": 1.0, "OFIELD_KAPPA": 0.0, "OFIELD_K": [0.0, 0.0, 0.0], "OFIELD_Q6_NEAR": 0.0, "OFIELD_Q6_FAR": 0.0, "OFIELD_A": 0.0, "KPOINTS_OPT_MODE": 1, "LKPOINTS_OPT": false, "@module": "pymatgen.io.vasp.inputs", "@class": "Incar"}, "relaxed_structures": {"@module": "pymatgen.core.structure", "@class": "Structure", "charge": 0, "lattice": {"matrix": [[8.106791, 0.0, 0.0], [0.0, 13.057895, 0.0], [0.0, 0.0, 43.819658]], "a": 8.106791, "b": 13.057895, "c": 43.819658, "alpha": 90.0, "beta": 90.0, "gamma": 90.0, "volume": 4638.644953329912}, "sites": [{"species": [{"element": "Li", "occu": 1}], "abc": [0.96601172, 0.82209777, 0.09672425999999999], "xyz": [7.831255117590519, 10.73486636039415, 4.238423993503079], "label": "Li", "properties": {}}, {"species": [{"element": "Li", "occu": 1}], "abc": [0.0382482, 0.17467956, 0.06298642], "xyz": [0.3100701635262, 2.2809473531262, 2.76004338304436], "label": "Li", "properties": {}}, {"species": [{"element": "Li", "occu": 1}], "abc": [0.08108223, 0.64943969, 0.03355835], "xyz": [0.65731669242393, 8.480315280852551, 1.4705154200443], "label": "Li", "properties": {}}, {"species": [{"element": "Li", "occu": 1}], "abc": [0.40968109, 0.64389438, 0.02926953], "xyz": [3.32119897328219, 8.4079052051301, 1.28258079442074], "label": "Li", "properties": {}}, {"species": [{"element": "Li", "occu": 1}], "abc": [0.46861958, 0.1966367, 0.06790905], "xyz": [3.7990009935677795, 2.5676613817465, 2.9757513461048997], "label": "Li", "properties": {}}, {"species": [{"element": "Li", "occu": 1}], "abc": [0.52452375, 0.81519081, 0.09922675], "xyz": [4.25220441578625, 10.644676001944951, 4.3480822494515], "label": "Li", "properties": {}}, {"species": [{"element": "Li", "occu": 1}], "abc": [0.03753607, 0.47601633, 0.09770711], "xyz": [0.30429707445136994, 6.21577125542535, 4.2814921443683795], "label": "Li", "properties": {}}, {"species": [{"element": "Li", "occu": 1}], "abc": [0.48849661, 0.47841518, 0.09409925], "xyz": [3.96013992147851, 6.2470951868461, 4.123396953056499], "label": "Li", "properties": {}}, {"species": [{"element": "Li", "occu": 1}], "abc": [0.54701747, 0.99754358, 0.035113000000000005], "xyz": [4.43455630263877, 13.0258193255641, 1.5386396513540002], "label": "Li", "properties": {}}, {"species": [{"element": "Li", "occu": 1}], "abc": [0.96320776, 0.84158132, 0.24274524], "xyz": [7.808523999898159, 10.9892805105214, 10.63701339792792], "label": "Li", "properties": {}}, {"species": [{"element": "Li", "occu": 1}], "abc": [0.03281279, 0.15605996, 0.21625465], "xyz": [0.26600643065689, 2.0378145713842, 9.476204803909699], "label": "Li", "properties": {}}, {"species": [{"element": "Li", "occu": 1}], "abc": [0.03522684, 0.66977854, 0.1725669], "xyz": [0.28557662947044, 8.7458978485733, 7.5618225401201995], "label": "Li", "properties": {}}, {"species": [{"element": "Li", "occu": 1}], "abc": [0.96352104, 0.31452735, 0.14512996], "xyz": [7.81106369538264, 4.10706511092825, 6.359545212753679], "label": "Li", "properties": {}}, {"species": [{"element": "Li", "occu": 1}], "abc": [0.53859759, 0.32341272, 0.14700693], "xyz": [4.366298095233689, 4.2230893394244, 6.44179339622994], "label": "Li", "properties": {}}, {"species": [{"element": "Li", "occu": 1}], "abc": [0.4745727, 0.66045584, 0.17734118], "xyz": [3.8472616932057, 8.624163010856801, 7.771029856916439], "label": "Li", "properties": {}}, {"species": [{"element": "Li", "occu": 1}], "abc": [0.46371946, 0.15903943, 0.21550386], "xyz": [3.75927674485286, 2.0767201777998503, 9.443305442879879], "label": "Li", "properties": {}}, {"species": [{"element": "Li", "occu": 1}], "abc": [0.53274345, 0.84392734, 0.24209869999999997], "xyz": [4.31883980576895, 11.0199145933493, 10.608682236244597], "label": "Li", "properties": {}}, {"species": [{"element": "Li", "occu": 1}], "abc": [0.02433689, 0.99133155, 0.1487874], "xyz": [0.19729408081998998, 12.944703290087249, 6.519812982709199], "label": "Li", "properties": {}}, {"species": [{"element": "Li", "occu": 1}], "abc": [0.95639391, 0.50535889, 0.2212719], "xyz": [7.753285542042809, 6.5989233229365505, 9.696058983010198], "label": "Li", "properties": {}}, {"species": [{"element": "Li", "occu": 1}], "abc": [0.45670221, 0.49474199, 0.23704756000000002], "xyz": [3.7023893657081097, 6.46028895751105, 10.38734300893448], "label": "Li", "properties": {}}, {"species": [{"element": "Li", "occu": 1}], "abc": [0.46893241, 0.99128146, 0.14829859], "xyz": [3.80153704099631, 12.944049220126699, 6.49839349568222], "label": "Li", "properties": {}}, {"species": [{"element": "Li", "occu": 1}], "abc": [0.96868097, 0.80294133, 0.39040468], "xyz": [7.85289416946727, 10.48472357830035, 17.10739955919944], "label": "Li", "properties": {}}, {"species": [{"element": "Li", "occu": 1}], "abc": [0.02447279, 0.1847125, 0.35914112000000004], "xyz": [0.19839579371689, 2.4119564301875003, 15.73744105213696], "label": "Li", "properties": {}}, {"species": [{"element": "Li", "occu": 1}], "abc": [0.03857565, 0.6765917, 0.3113032], "xyz": [0.31272473223915, 8.8348633764715, 13.6411997583056], "label": "Li", "properties": {}}, {"species": [{"element": "Li", "occu": 1}], "abc": [0.97455514, 0.33931221, 0.28084548000000004], "xyz": [7.90051483795574, 4.43070321039795, 12.306552884445841], "label": "Li", "properties": {}}, {"species": [{"element": "Li", "occu": 1}], "abc": [0.53526092, 0.33010756, 0.28576533000000004], "xyz": [4.33924840890772, 4.3105098571862, 12.522139028857142], "label": "Li", "properties": {}}, {"species": [{"element": "Li", "occu": 1}], "abc": [0.46367159, 0.68528262, 0.31323285], "xyz": [3.75888867276769, 8.948348497284899, 13.725756361365299], "label": "Li", "properties": {}}, {"species": [{"element": "Li", "occu": 1}], "abc": [0.46603163, 0.17809101, 0.36171564], "xyz": [3.7780210237993295, 2.32549370902395, 15.850255638051118], "label": "Li", "properties": {}}, {"species": [{"element": "Li", "occu": 1}], "abc": [0.53834366, 0.82576557, 0.39543808], "xyz": [4.36423953779506, 10.78276010767515, 17.32796142577664], "label": "Li", "properties": {}}, {"species": [{"element": "Li", "occu": 1}], "abc": [0.96874048, 0.00862552, 0.31003688], "xyz": [7.85337660459968, 0.11263113448039999, 13.585710048987039], "label": "Li", "properties": {}}, {"species": [{"element": "Li", "occu": 1}], "abc": [0.98850132, 0.52124541, 0.36418355], "xyz": [8.013573604464119, 6.806367833011951, 15.958398610225899], "label": "Li", "properties": {}}, {"species": [{"element": "Li", "occu": 1}], "abc": [0.53745589, 0.52388081, 0.36063627000000004], "xyz": [4.35704257194899, 6.84078060949495, 15.80295801379566], "label": "Li", "properties": {}}, {"species": [{"element": "Li", "occu": 1}], "abc": [0.52248146, 0.00956444, 0.30971045], "xyz": [4.235647997594859, 0.12489145325380001, 13.5714059980261], "label": "Li", "properties": {}}, {"species": [{"element": "Li", "occu": 1}], "abc": [0.90960278, 0.35602885, 0.42909252000000003], "xyz": [7.37395963047898, 4.64898734027075, 18.80268747675816], "label": "Li", "properties": {}}, {"species": [{"element": "Li", "occu": 1}], "abc": [0.58054519, 0.35128781, 0.42503403], "xyz": [4.70635852138529, 4.58707933775995, 18.62484583296174], "label": "Li", "properties": {}}, {"species": [{"element": "Li", "occu": 1}], "abc": [0.04706066, 0.00232385, 0.42319491000000004], "xyz": [0.38151093494205995, 0.030344589295750003, 18.54425622354078], "label": "Li", "properties": {}}, {"species": [{"element": "P", "occu": 1}], "abc": [0.24702102, 0.90146864, 0.05950983], "xyz": [2.00254778174682, 11.7712828469128, 2.6077003982381397], "label": "P", "properties": {}}, {"species": [{"element": "P", "occu": 1}], "abc": [0.7472721, 0.08803007, 0.10386324999999999], "xyz": [6.057978734831099, 1.14948741090265, 4.5512520937684995], "label": "P", "properties": {}}, {"species": [{"element": "P", "occu": 1}], "abc": [0.24982422, 0.44844671, 0.040800680000000006], "xyz": [2.02527273827802, 5.85577005227545, 1.7878718437674401], "label": "P", "properties": {}}, {"species": [{"element": "P", "occu": 1}], "abc": [0.24788598, 0.91111466, 0.20406222], "xyz": [2.0095598316901797, 11.8972395632407, 8.941936691120759], "label": "P", "properties": {}}, {"species": [{"element": "P", "occu": 1}], "abc": [0.74759929, 0.08877636, 0.25426226], "xyz": [6.06063119577839, 1.1592323873622, 11.14168527550708], "label": "P", "properties": {}}, {"species": [{"element": "P", "occu": 1}], "abc": [0.75305276, 0.58171733, 0.13827268], "xyz": [6.104841337293159, 7.59600381482035, 6.05906154834344], "label": "P", "properties": {}}, {"species": [{"element": "P", "occu": 1}], "abc": [0.24599735, 0.4020398, 0.18190246999999998], "xyz": [1.9942491030038498, 5.2497934942210005, 7.970904024755258], "label": "P", "properties": {}}, {"species": [{"element": "P", "occu": 1}], "abc": [0.24737769, 0.91189469, 0.35450808], "xyz": [2.0054392308927897, 11.90742511307755, 15.534422823836639], "label": "P", "properties": {}}, {"species": [{"element": "P", "occu": 1}], "abc": [0.74697752, 0.09855679, 0.39887946], "xyz": [6.055590636338319, 1.28694421535705, 17.47876152042468], "label": "P", "properties": {}}, {"species": [{"element": "P", "occu": 1}], "abc": [0.74606711, 0.59803485, 0.27641488000000003], "xyz": [6.04821013274401, 7.8090762776407505, 12.11240550771104], "label": "P", "properties": {}}, {"species": [{"element": "P", "occu": 1}], "abc": [0.25267167, 0.41798551, 0.31992036], "xyz": [2.04835642031097, 5.45801090110145, 14.01880076243688], "label": "P", "properties": {}}, {"species": [{"element": "P", "occu": 1}], "abc": [0.7500042, 0.55150037, 0.41752177], "xyz": [6.0801272985222, 7.20143392392115, 18.29566116895466], "label": "P", "properties": {}}, {"species": [{"element": "S", "occu": 1}], "abc": [0.46124222, 0.82740736, 0.04399821999999999], "xyz": [3.7391942779160194, 10.8041984291072, 1.9279869530087594], "label": "S", "properties": {}}, {"species": [{"element": "S", "occu": 1}], "abc": [0.53733609, 0.64313476, 0.12267418], "xyz": [4.35607137838719, 8.3979861669302, 5.37554061303044], "label": "S", "properties": {}}, {"species": [{"element": "S", "occu": 1}], "abc": [0.46884829, 0.37191729, 0.04645317], "xyz": [3.8008550977373896, 4.8564569215045506, 2.03556202241586], "label": "S", "properties": {}}, {"species": [{"element": "S", "occu": 1}], "abc": [0.04448688, 0.36461927, 0.05127476], "xyz": [0.36064583840208, 4.76116014263665, 2.24684244723208], "label": "S", "properties": {}}, {"species": [{"element": "S", "occu": 1}], "abc": [0.95904893, 0.64677594, 0.11947836], "xyz": [7.774809234283629, 8.4455323130463, 5.23550087360088], "label": "S", "properties": {}}, {"species": [{"element": "S", "occu": 1}], "abc": [0.03769271, 0.83549588, 0.04256330999999999], "xyz": [0.30556692219361, 10.9098174739726, 1.8651096875479796], "label": "S", "properties": {}}, {"species": [{"element": "S", "occu": 1}], "abc": [0.26724117, 0.05124744, 0.044196879999999994], "xyz": [2.1664683117854695, 0.6691836905388, 1.9366921662670395], "label": "S", "properties": {}}, {"species": [{"element": "S", "occu": 1}], "abc": [0.25696254, 0.57192608, 0.07151373], "xyz": [2.08314160660914, 7.4681507004016, 3.1337071909043397], "label": "S", "properties": {}}, {"species": [{"element": "S", "occu": 1}], "abc": [0.75340915, 0.42990485, 0.12265288999999999], "xyz": [6.107730516537649, 5.61365239129075, 5.374607692511619], "label": "S", "properties": {}}, {"species": [{"element": "S", "occu": 1}], "abc": [0.24693916, 0.88859402, 0.1067553], "xyz": [2.00188415983556, 11.6031674107879, 4.6779807356874], "label": "S", "properties": {}}, {"species": [{"element": "S", "occu": 1}], "abc": [0.74574397, 0.1104084, 0.05729371], "xyz": [6.04559050430027, 1.441701294318, 2.5105907777511796], "label": "S", "properties": {}}, {"species": [{"element": "S", "occu": 1}], "abc": [0.23383428, 0.52690407, 9.99999999999994e-05], "xyz": [1.89564563659548, 6.88025802113265, 0.004381965799999973], "label": "S", "properties": {}}, {"species": [{"element": "S", "occu": 1}], "abc": [0.46042449, 0.84734523, 0.18672534], "xyz": [3.73256511171159, 11.064545042090849, 8.18224053873372], "label": "S", "properties": {}}, {"species": [{"element": "S", "occu": 1}], "abc": [0.53756961, 0.15385432, 0.12174072999999999], "xyz": [4.35796447622151, 2.0090135558564, 5.334637153270339], "label": "S", "properties": {}}, {"species": [{"element": "S", "occu": 1}], "abc": [0.53196039, 0.66259295, 0.25986896000000004], "xyz": [4.312491702008489, 8.65206916884025, 11.387368952015681], "label": "S", "properties": {}}, {"species": [{"element": "S", "occu": 1}], "abc": [0.45850321, 0.34215956, 0.19999111], "xyz": [3.71698969629911, 4.4678836077262, 8.76354204324038], "label": "S", "properties": {}}, {"species": [{"element": "S", "occu": 1}], "abc": [0.03200092, 0.3375453, 0.19849729], "xyz": [0.25942477024772, 4.4076310851435, 8.69808336172682], "label": "S", "properties": {}}, {"species": [{"element": "S", "occu": 1}], "abc": [0.95834422, 0.65813758, 0.25830084000000003], "xyz": [7.769096297598019, 8.5938914151941, 11.31865446991272], "label": "S", "properties": {}}, {"species": [{"element": "S", "occu": 1}], "abc": [0.96583112, 0.1489029, 0.11912989999999998], "xyz": [7.82979103113592, 1.9443584333955002, 5.220231475574199], "label": "S", "properties": {}}, {"species": [{"element": "S", "occu": 1}], "abc": [0.0326071, 0.8492324, 0.18725458], "xyz": [0.2643389448161, 11.089187509798, 8.205431654533639], "label": "S", "properties": {}}, {"species": [{"element": "S", "occu": 1}], "abc": [0.74483652, 0.93660203, 0.11883013], "xyz": [6.038233996807319, 12.23005096452685, 5.2070956566955395], "label": "S", "properties": {}}, {"species": [{"element": "S", "occu": 1}], "abc": [0.24867432, 0.06123842, 0.18722387], "xyz": [2.01595073930712, 0.7996448583259, 8.20408595283646], "label": "S", "properties": {}}, {"species": [{"element": "S", "occu": 1}], "abc": [0.24149518, 0.5537946, 0.19656286], "xyz": [1.95775095176738, 7.231391738367001, 8.61331730070188], "label": "S", "properties": {}}, {"species": [{"element": "S", "occu": 1}], "abc": [0.74150079, 0.4462675, 0.26173055], "xyz": [6.011191930864889, 5.8273141569125, 11.468943189151899], "label": "S", "properties": {}}, {"species": [{"element": "S", "occu": 1}], "abc": [0.24830461, 0.90168577, 0.25029087], "xyz": [2.0129535776065097, 11.77411810765415, 10.967660323922459], "label": "S", "properties": {}}, {"species": [{"element": "S", "occu": 1}], "abc": [0.74832573, 0.09826022, 0.2080253], "xyz": [6.06652029303243, 1.2830716354369, 9.115597501347398], "label": "S", "properties": {}}, {"species": [{"element": "S", "occu": 1}], "abc": [0.75822678, 0.5974147, 0.18471943], "xyz": [6.14678603606298, 7.8009784240565, 8.09434224855494], "label": "S", "properties": {}}, {"species": [{"element": "S", "occu": 1}], "abc": [0.25012188, 0.38088001, 0.13539587], "xyz": [2.02768580568708, 4.97349117817895, 5.93300071801246], "label": "S", "properties": {}}, {"species": [{"element": "S", "occu": 1}], "abc": [0.46594183, 0.85117738, 0.33923657], "xyz": [3.77729303396753, 11.1145848544151, 14.865230478493059], "label": "S", "properties": {}}, {"species": [{"element": "S", "occu": 1}], "abc": [0.53218579, 0.15081865, 0.27098442], "xyz": [4.31431897269989, 1.96937409574175, 11.874444607728359], "label": "S", "properties": {}}, {"species": [{"element": "S", "occu": 1}], "abc": [0.54479562, 0.63545155, 0.40703555], "xyz": [4.41654422905542, 8.29765961748725, 17.8361585948419], "label": "S", "properties": {}}, {"species": [{"element": "S", "occu": 1}], "abc": [0.45858892, 0.35311551, 0.33880429], "xyz": [3.71768452935572, 4.61094525245145, 14.846288116732818], "label": "S", "properties": {}}, {"species": [{"element": "S", "occu": 1}], "abc": [0.03701045, 0.35635132, 0.3354498], "xyz": [0.30003598296594997, 4.6531981196714005, 14.6992955121684], "label": "S", "properties": {}}, {"species": [{"element": "S", "occu": 1}], "abc": [0.96927595, 0.62777054, 0.41183825], "xyz": [7.857717547976449, 8.1973617954133, 18.0466112663185], "label": "S", "properties": {}}, {"species": [{"element": "S", "occu": 1}], "abc": [0.9601456, 0.15250448, 0.27162327], "xyz": [7.7836997087696, 1.9913874868696, 11.902438796241661], "label": "S", "properties": {}}, {"species": [{"element": "S", "occu": 1}], "abc": [0.03770538, 0.84611408, 0.33661651000000004], "xyz": [0.30566963523557994, 11.0484688146616, 14.75042034535358], "label": "S", "properties": {}}, {"species": [{"element": "S", "occu": 1}], "abc": [0.74821551, 0.93876546, 0.27114342], "xyz": [6.065626762528409, 12.258300806306702, 11.88141193335036], "label": "S", "properties": {}}, {"species": [{"element": "S", "occu": 1}], "abc": [0.24490198, 0.06339125, 0.33957025], "xyz": [1.9853691673461797, 0.82775628641875, 14.879852221974499], "label": "S", "properties": {}}, {"species": [{"element": "S", "occu": 1}], "abc": [0.25307603, 0.56982525, 0.33556418000000005], "xyz": [2.05163448231973, 7.440718282848749, 14.704307604650442], "label": "S", "properties": {}}, {"species": [{"element": "S", "occu": 1}], "abc": [0.75689942, 0.42783662, 0.38685694000000004], "xyz": [6.136025405961219, 5.5866456611149005, 16.95193880572652], "label": "S", "properties": {}}, {"species": [{"element": "S", "occu": 1}], "abc": [0.24567924, 0.88943624, 0.40107111], "xyz": [1.9916702517188398, 11.6141650311148, 17.57479887388038], "label": "S", "properties": {}}, {"species": [{"element": "S", "occu": 1}], "abc": [0.74677622, 0.11140093, 0.35163168], "xyz": [6.053958739310019, 1.4546616468423499, 15.408379959565439], "label": "S", "properties": {}}, {"species": [{"element": "S", "occu": 1}], "abc": [0.75035525, 0.61899768, 0.32294768], "xyz": [6.08297318750275, 8.0828067106836, 14.15145688949344], "label": "S", "properties": {}}, {"species": [{"element": "S", "occu": 1}], "abc": [0.25840641, 0.40236421, 0.27346932], "xyz": [2.0948467589303097, 5.2540296059379505, 11.98333207589256], "label": "S", "properties": {}}, {"species": [{"element": "S", "occu": 1}], "abc": [0.53796606, 0.16474094, 0.41587421], "xyz": [4.36117841351346, 2.1511698967213, 18.22346565322018], "label": "S", "properties": {}}, {"species": [{"element": "S", "occu": 1}], "abc": [0.96141686, 0.1724875, 0.41435242], "xyz": [7.794005547896259, 2.2523236638124997, 18.15678133587236], "label": "S", "properties": {}}, {"species": [{"element": "S", "occu": 1}], "abc": [0.76720249, 0.94875132, 0.41416989000000004], "xyz": [6.219550241109589, 12.3886951176714, 18.14878293369762], "label": "S", "properties": {}}, {"species": [{"element": "S", "occu": 1}], "abc": [0.73422799, 0.47334085, 0.45829859], "xyz": [5.95223286128009, 6.18083511851075, 20.082487475682218], "label": "S", "properties": {}}]}, "formula": "(Li3PS4)12.0", "bandgap": 2.4516, "slab_thickness": 20.078105509882217}