{"miller": "101_0.30", "final_energy": -559.93449746, "gamma": 0.012569652966708854, "work_function": "Not calculated", "ionization_potentail": "Not calculated", "electron_affinity": "Not calculated", "is_stochiometric": true, "incar_parameters": {"SYSTEM": "unknown system", "LCOMPAT": false, "PREC": "normal", "ENMAX": 520.0, "ENAUG": 628.945, "EDIFF": 1e-05, "IALGO": 38, "IWAVPR": 11, "NBANDS": 370, "NBANDSLOW": -1, "NBANDSHIGH": -1, "NELECT": 608.0, "TURBO": 0, "IRESTART": 0, "NREBOOT": 0, "NMIN": 0, "EREF": 0.0, "ISMEAR": 0, "SIGMA": 0.05, "KSPACING": 0.5, "KGAMMA": true, "KBLOWUP": true, "LREAL": true, "ROPT": [-0.0005, -0.0005, -0.0005], "LMAXPAW": -100, "LMAXMIX": 2, "NLSPLINE": false, "ISTART": 0, "ICHARG": 2, "INIWAV": 1, "ISPIN": 1, "LNONCOLLINEAR": false, "MAGMOM": [0.6, 0.6, 0.6, 0.6, 0.6, 0.6, 0.6, 0.6, 0.6, 0.6, 0.6, 0.6, 0.6, 0.6, 0.6, 0.6, 0.6, 0.6, 0.6, 0.6, 0.6, 0.6, 0.6, 0.6, 0.6, 0.6, 0.6, 0.6, 0.6, 0.6, 0.6, 0.6, 0.6, 0.6, 0.6, 0.6, 0.6, 0.6, 0.6, 0.6, 0.6, 0.6, 0.6, 0.6, 0.6, 0.6, 0.6, 0.6, 0.6, 0.6, 0.6, 0.6, 0.6, 0.6, 0.6, 0.6, 0.6, 0.6, 0.6, 0.6, 0.6, 0.6, 0.6, 0.6, 0.6, 0.6, 0.6, 0.6, 0.6, 0.6, 0.6, 0.6, 0.6, 0.6, 0.6, 0.6, 0.6, 0.6, 0.6, 0.6, 0.6, 0.6, 0.6, 0.6, 0.6, 0.6, 0.6, 0.6, 0.6, 0.6, 0.6, 0.6, 0.6, 0.6, 0.6, 0.6, 0.6, 0.6, 0.6, 0.6, 0.6, 0.6, 0.6, 0.6, 0.6, 0.6, 0.6, 0.6, 0.6, 0.6, 0.6, 0.6, 0.6, 0.6, 0.6, 0.6, 0.6, 0.6, 0.6, 0.6, 0.6, 0.6, 0.6, 0.6, 0.6, 0.6, 0.6, 0.6], "NUPDOWN": -1.0, "LSORBIT": false, "SAXIS": [0.0, 0.0, 1.0], "LSPIRAL": false, "QSPIRAL": [0.0, 0.0, 0.0], "LZEROZ": false, "LASPH": false, "LMETAGGA": false, "NELM": 100, "NELMDL": -5, "NELMIN": 6, "ENINI": 520.0, "LDIAG": true, "LSUBROT": false, "WEIMIN": 0.001, "EBREAK": 1e-08, "DEPER": 0.3, "NRMM": 4, "TIME": 0.4, "AMIX": 0.4, "BMIX": 1.0, "AMIN": 0.1, "AMIX_MAG": 1.6, "BMIX_MAG": 1.0, "IMIX": 4, "MIXFIRST": false, "MAXMIX": -45, "WC": 100.0, "INIMIX": 1, "MIXPRE": 1, "MREMOVE": 5, "LDIPOL": false, "LMONO": false, "IDIPOL": 0, "EPSILON": 1.0, "DIPOL": [-100.0, -100.0, -100.0], "EFIELD": 0.0, "NGX": 48, "NGY": 84, "NGZ": 252, "NGXF": 96, "NGYF": 168, "NGZF": 504, "ADDGRID": false, "NSW": 150, "IBRION": 2, "MDALGO": 0, "ISIF": 2, "PSTRESS": 0.0, "EDIFFG": -0.01, "NFREE": 1, "POTIM": 0.5, "SMASS": -3.0, "SCALEE": 1.0, "TEBEG": 0.0001, "TEEND": 0.0001, "NBLOCK": 1, "KBLOCK": 150, "NPACO": 256, "APACO": 10.0, "ISYM": 0, "SYMPREC": 1e-05, "LORBIT": 11, "RWIGS": [-1.0, -1.0, -1.0], "NEDOS": 301, "EMIN": 10.0, "EMAX": -10.0, "EFERMI": 0.0, "NWRITE": 2, "LWAVE": false, "LDOWNSAMPLE": false, "LCHARG": false, "LPARD": false, "LVTOT": false, "LVHAR": false, "LELF": false, "LOPTICS": false, "STM": [0.0, 0.0, 0.0, 0.0, 0.0, 0.0, 0.0], "NPAR": 2, "NSIM": 4, "NBLK": -1, "LPLANE": true, "LSCALAPACK": true, "LSCAAWARE": false, "LSCALU": false, "LASYNC": false, "LORBITALREAL": false, "IDIOT": 3, "PHON_NSTRUCT": -1, "LMUSIC": false, "POMASS": [7.01, 30.974, 32.066], "DARWINR": [0.0, 0.0, 0.0], "DARWINV": [1.0, 1.0, 1.0], "LCORR": true, "GGA_COMPAT": true, "LBERRY": false, "ICORELEVEL": 0, "LDAU": false, "I_CONSTRAINED_M": 0, "GGA": "--", "VOSKOWN": 0, "LHFCALC": false, "PRECFOCK": "", "LSYMGRAD": false, "LHFONE": false, "LRHFCALC": false, "LTHOMAS": false, "LMODELHF": false, "LFOCKACE": false, "ENCUT4O": -1.0, "EXXOEP": 0, "FOURORBIT": 0, "AEXX": 0.0, "HFALPHA": 0.0, "MCALPHA": 0.0, "ALDAX": 1.0, "AGGAX": 1.0, "ALDAC": 1.0, "AGGAC": 1.0, "NKREDX": 1, "NKREDY": 1, "NKREDZ": 1, "SHIFTRED": false, "ODDONLY": false, "EVENONLY": false, "LMAXFOCK": 0, "NMAXFOCKAE": 0, "LFOCKAEDFT": false, "HFSCREEN": 0.0, "HFSCREENC": 0.0, "NBANDSGWLOW": 0, "LUSE_VDW": false, "Zab_VDW": -0.8491, "PARAM1": 0.1234, "PARAM2": 1.0, "PARAM3": 0.0, "MODEL_GW": 0, "MODEL_EPS0": 24.8498827, "MODEL_ALPHA": 1.0, "LEPSILON": false, "LRPA": false, "LNABLA": false, "LVEL": false, "CSHIFT": 0.1, "OMEGAMAX": -1.0, "DEG_THRESHOLD": 0.002, "RTIME": -0.1, "WPLASMAI": 0.0, "DFIELD": [0.0, 0.0, 0.0], "WPLASMA": [0.0, 0.0, 0.0, 0.0, 0.0, 0.0, 0.0, 0.0, 0.0], "NUCIND": false, "MAGPOS": [0.0, 0.0, 0.0], "LNICSALL": true, "ORBITALMAG": false, "LMAGBLOCH": false, "LCHIMAG": false, "LGAUGE": true, "MAGATOM": 0, "MAGDIPOL": [0.0, 0.0, 0.0], "AVECCONST": [0.0, 0.0, 0.0], "LFINITE_TEMPERATURE": false, "LADDER": false, "LRPAFORCE": false, "LFXC": false, "LHARTREE": true, "IBSE": 0, "KPOINT": [-1, 0, 0, 0], "LTCTC": false, "LTCTE": false, "LTETE": false, "LTRIPLET": false, "LFXCEPS": false, "LFXHEG": false, "NATURALO": 2, "LHOLEGF": false, "L2ORDER": false, "LDMP1": false, "LMP2LT": false, "LSMP2LT": false, "LGWLF": false, "ENCUTGW": -2.0, "ENCUTGWSOFT": -2.0, "ENCUTLF": -1.0, "LESF_SPLINES": false, "LMAXMP2": -1, "SCISSOR": 0.0, "NOMEGA": 0, "NOMEGAR": 0, "NBANDSGW": -1, "NBANDSO": -1, "NBANDSV": -1, "NELMGW": 1, "NELMHF": 1, "DIM": 3, "IESPILON": 4, "ANTIRES": 0, "OMEGAMIN": -30.0, "OMEGATL": -200.0, "OMEGAGRID": 0, "LSELFENERGY": false, "LSPECTRAL": false, "LSPECTRALGW": false, "LSINGLES": false, "LFERMIGW": false, "ODDONLYGW": false, "EVENONLYGW": false, "NKREDLFX": 1, "NKREDLFY": 1, "NKREDLFZ": 1, "MAXMEM": 2800, "TELESCOPE": 0, "NTAUPAR": -1, "NOMEGAPAR": -1, "DAMP_NEWTON": 0.80000001, "LAMBDA": 1.0, "OFIELD_KAPPA": 0.0, "OFIELD_K": [0.0, 0.0, 0.0], "OFIELD_Q6_NEAR": 0.0, "OFIELD_Q6_FAR": 0.0, "OFIELD_A": 0.0, "KPOINTS_OPT_MODE": 1, "LKPOINTS_OPT": false, "@module": "pymatgen.io.vasp.inputs", "@class": "Incar"}, "relaxed_structures": {"@module": "pymatgen.core.structure", "@class": "Structure", "charge": 0, "lattice": {"matrix": [[8.106791, 0.0, 0.0], [0.0, 14.48087, 0.0], [0.0, 0.0, 45.158492]], "a": 8.106791, "b": 14.48087, "c": 45.158492, "alpha": 90.0, "beta": 90.0, "gamma": 90.0, "volume": 5301.308309094782}, "sites": [{"species": [{"element": "Li", "occu": 1}], "abc": [0.96458801, 0.71796416, 0.04233266000000001], "xyz": [7.81971339817591, 10.3967456656192, 1.9116790879487204], "label": "Li", "properties": {}}, {"species": [{"element": "Li", "occu": 1}], "abc": [0.031386, 0.02137459, 0.05709826], "xyz": [0.254439742326, 0.30952265909329996, 2.57847131742392], "label": "Li", "properties": {}}, {"species": [{"element": "Li", "occu": 1}], "abc": [0.02816783, 0.4874273, 0.09060426], "xyz": [0.22835071073353, 7.058371365750999, 4.0915517503759204], "label": "Li", "properties": {}}, {"species": [{"element": "Li", "occu": 1}], "abc": [0.01687338, 0.40228658, 0.014840139999999998], "xyz": [0.13678896512358, 5.8254596677245996, 0.6701583434688799], "label": "Li", "properties": {}}, {"species": [{"element": "Li", "occu": 1}], "abc": [0.74100234, 0.26509611, 0.06477438], "xyz": [6.0071511008909395, 3.8388223064157, 2.9251133210349605], "label": "Li", "properties": {}}, {"species": [{"element": "Li", "occu": 1}], "abc": [0.46837815, 0.48234941, 0.09265085], "xyz": [3.7970437710166496, 6.984839100786699, 4.183972668518201], "label": "Li", "properties": {}}, {"species": [{"element": "Li", "occu": 1}], "abc": [0.44480111, 0.01980069, 0.06893463000000001], "xyz": [3.60590963533801, 0.2867312178003, 3.112983937377961], "label": "Li", "properties": {}}, {"species": [{"element": "Li", "occu": 1}], "abc": [0.51395691, 0.71921304, 0.046867290000000006], "xyz": [4.16654125237581, 10.4148305345448, 2.1164561405266804], "label": "Li", "properties": {}}, {"species": [{"element": "Li", "occu": 1}], "abc": [0.45934842, 0.40874955, 0.0158556], "xyz": [3.7238416371202194, 5.9190490961085, 0.7160149857552001], "label": "Li", "properties": {}}, {"species": [{"element": "Li", "occu": 1}], "abc": [0.54132738, 0.93101133, 0.013120330000000003], "xyz": [4.38842793223758, 13.481854038257099, 0.5924943173423601], "label": "Li", "properties": {}}, {"species": [{"element": "Li", "occu": 1}], "abc": [0.95217437, 0.53088315, 0.16987849], "xyz": [7.71907861314667, 7.6876498803405, 7.67145643163708], "label": "Li", "properties": {}}, {"species": [{"element": "Li", "occu": 1}], "abc": [0.02086398, 0.83906872, 0.184413], "xyz": [0.16913992528818, 12.150445055386399, 8.327812985196001], "label": "Li", "properties": {}}, {"species": [{"element": "Li", "occu": 1}], "abc": [0.03017239, 0.30588356, 0.21427401], "xyz": [0.24460125970049, 4.4294600674972, 9.67629116639292], "label": "Li", "properties": {}}, {"species": [{"element": "Li", "occu": 1}], "abc": [0.96613237, 0.06373304, 0.14433113], "xyz": [7.832233201924669, 0.9229098669448, 6.517776179455961], "label": "Li", "properties": {}}, {"species": [{"element": "Li", "occu": 1}], "abc": [0.53834692, 0.06070103, 0.14920148], "xyz": [4.364265965933719, 0.8790037242961, 6.73771384096816], "label": "Li", "properties": {}}, {"species": [{"element": "Li", "occu": 1}], "abc": [0.46497982, 0.29398109, 0.21690199], "xyz": [3.7694942199576196, 4.2571019467483, 9.79496678019908], "label": "Li", "properties": {}}, {"species": [{"element": "Li", "occu": 1}], "abc": [0.45618794, 0.83732398, 0.19126145], "xyz": [3.69822028630054, 12.1251797022626, 8.637078659733401], "label": "Li", "properties": {}}, {"species": [{"element": "Li", "occu": 1}], "abc": [0.52055126, 0.52504361, 0.17693244], "xyz": [4.220000269606659, 7.6030882607407, 7.9900021762804805], "label": "Li", "properties": {}}, {"species": [{"element": "Li", "occu": 1}], "abc": [0.05943898, 0.78363168, 0.10572311], "xyz": [0.48185938811317996, 11.3476684859616, 4.77429621715012], "label": "Li", "properties": {}}, {"species": [{"element": "Li", "occu": 1}], "abc": [0.03485034, 0.26173665, 0.12298167], "xyz": [0.28252442265894, 3.7901744028855, 5.55366676084164], "label": "Li", "properties": {}}, {"species": [{"element": "Li", "occu": 1}], "abc": [0.4516975, 0.25799004, 0.12444498], "xyz": [3.6618172277224996, 3.7359202305347994, 5.61974763377016], "label": "Li", "properties": {}}, {"species": [{"element": "Li", "occu": 1}], "abc": [0.54795668, 0.76783694, 0.12517984999999998], "xyz": [4.44217028181388, 11.118946909337799, 5.652933254786199], "label": "Li", "properties": {}}, {"species": [{"element": "Li", "occu": 1}], "abc": [0.95524049, 0.34352732, 0.29607181], "xyz": [7.74393500716759, 4.9745744623684, 13.37015646331052], "label": "Li", "properties": {}}, {"species": [{"element": "Li", "occu": 1}], "abc": [0.02076863, 0.65191229, 0.31077589], "xyz": [0.16836694276633, 9.4402571228923, 14.03417054235788], "label": "Li", "properties": {}}, {"species": [{"element": "Li", "occu": 1}], "abc": [0.03643265, 0.11790555, 0.33754705], "xyz": [0.29535187912614996, 1.7073749418284998, 15.243115757048601], "label": "Li", "properties": {}}, {"species": [{"element": "Li", "occu": 1}], "abc": [0.96642153, 0.88523953, 0.26966463], "xyz": [7.834577361610229, 12.819038552791099, 12.177648036537962], "label": "Li", "properties": {}}, {"species": [{"element": "Li", "occu": 1}], "abc": [0.53119949, 0.87336256, 0.27283792], "xyz": [4.30632324473659, 12.6470496942272, 12.320949027616642], "label": "Li", "properties": {}}, {"species": [{"element": "Li", "occu": 1}], "abc": [0.46627559, 0.11493975, 0.34282434], "xyz": [3.7799987565316897, 1.6644275775825, 15.481430215295282], "label": "Li", "properties": {}}, {"species": [{"element": "Li", "occu": 1}], "abc": [0.45275814, 0.64798525, 0.31691020999999997], "xyz": [3.6704156145287397, 9.3833901671675, 14.31118718300332], "label": "Li", "properties": {}}, {"species": [{"element": "Li", "occu": 1}], "abc": [0.52078301, 0.34009609, 0.30202046], "xyz": [4.2218790184209105, 4.9248872667983, 13.638788526746321], "label": "Li", "properties": {}}, {"species": [{"element": "Li", "occu": 1}], "abc": [0.04601402, 0.59600538, 0.23414425], "xyz": [0.37302604320981997, 8.6306764270806, 10.573601240471001], "label": "Li", "properties": {}}, {"species": [{"element": "Li", "occu": 1}], "abc": [0.93899124, 0.10726233, 0.23656257999999997], "xyz": [7.612205733510839, 1.5532518566271, 10.68280937642936], "label": "Li", "properties": {}}, {"species": [{"element": "Li", "occu": 1}], "abc": [0.44072468, 0.07152069, 0.25057399999999996], "xyz": [3.5728628693018796, 1.0356818142003, 11.315543974408], "label": "Li", "properties": {}}, {"species": [{"element": "Li", "occu": 1}], "abc": [0.54304934, 0.58286565, 0.2525951], "xyz": [4.40238750206794, 8.4404017051155, 11.406813802589202], "label": "Li", "properties": {}}, {"species": [{"element": "Li", "occu": 1}], "abc": [0.94482825, 0.15874459, 0.41818819], "xyz": [7.65952515364575, 2.2987597709933, 18.884748032609483], "label": "Li", "properties": {}}, {"species": [{"element": "Li", "occu": 1}], "abc": [0.01230572, 0.46004916, 0.44013494999999997], "xyz": [0.09975990014451999, 6.6619120795692, 19.8758306184954], "label": "Li", "properties": {}}, {"species": [{"element": "Li", "occu": 1}], "abc": [0.24220088, 0.91363825, 0.42158965], "xyz": [1.96347191417608, 13.230276725277498, 19.0383528368078], "label": "Li", "properties": {}}, {"species": [{"element": "Li", "occu": 1}], "abc": [0.9678791, 0.69509169, 0.39501008], "xyz": [7.846393576968099, 10.0655324009703, 17.83805953759936], "label": "Li", "properties": {}}, {"species": [{"element": "Li", "occu": 1}], "abc": [0.52837828, 0.69096498, 0.39646199], "xyz": [4.28345228489948, 10.0057740499326, 17.90362560371908], "label": "Li", "properties": {}}, {"species": [{"element": "Li", "occu": 1}], "abc": [0.52087658, 0.77669886, 0.47198867], "xyz": [4.22263757085478, 11.2472752208082, 21.314296578285642], "label": "Li", "properties": {}}, {"species": [{"element": "Li", "occu": 1}], "abc": [0.46213635, 0.45888673, 0.44495134999999997], "xyz": [3.7464428029528496, 6.6450790818551, 20.0933319793642], "label": "Li", "properties": {}}, {"species": [{"element": "Li", "occu": 1}], "abc": [0.53127631, 0.15744401, 0.43025967], "xyz": [4.3069460084212094, 2.2799262410887, 19.42987786561764], "label": "Li", "properties": {}}, {"species": [{"element": "Li", "occu": 1}], "abc": [0.04316964, 0.40971781, 0.36198691], "xyz": [0.34996724902524, 5.9330703432947, 16.34678297933972], "label": "Li", "properties": {}}, {"species": [{"element": "Li", "occu": 1}], "abc": [0.95166035, 0.92021494, 0.36253594], "xyz": [7.71491156043685, 13.3255129181978, 16.37157634620248], "label": "Li", "properties": {}}, {"species": [{"element": "Li", "occu": 1}], "abc": [0.53183739, 0.91540149, 0.36437509], "xyz": [4.311494566715489, 13.2558099744963, 16.45462958676428], "label": "Li", "properties": {}}, {"species": [{"element": "Li", "occu": 1}], "abc": [0.55201011, 0.39774358, 0.38148818], "xyz": [4.47503059165701, 5.759673075314599, 17.22743092462456], "label": "Li", "properties": {}}, {"species": [{"element": "Li", "occu": 1}], "abc": [0.04172547, 0.24883297, 0.47457123999999995], "xyz": [0.33825966466677, 3.6033178902838996, 21.43092154497008], "label": "Li", "properties": {}}, {"species": [{"element": "Li", "occu": 1}], "abc": [0.96494332, 0.77292721, 0.47172243], "xyz": [7.8225938220861195, 11.192658447472699, 21.302273581375562], "label": "Li", "properties": {}}, {"species": [{"element": "P", "occu": 1}], "abc": [0.23461833, 0.82959875, 0.022172630000000002], "xyz": [1.90200176607903, 12.0133116509125, 1.0012825344739602], "label": "P", "properties": {}}, {"species": [{"element": "P", "occu": 1}], "abc": [0.74856378, 0.91266368, 0.08678289], "xyz": [6.06845011462998, 13.2161641038016, 3.91898444380188], "label": "P", "properties": {}}, {"species": [{"element": "P", "occu": 1}], "abc": [0.74273921, 0.46966872, 0.048163040000000004], "xyz": [6.0212315429751095, 6.8012116773864, 2.1749702565356803], "label": "P", "properties": {}}, {"species": [{"element": "P", "occu": 1}], "abc": [0.24253974, 0.26319028, 0.06413540000000001], "xyz": [1.9662189813743398, 3.8112242299436, 2.8962579478168005], "label": "P", "properties": {}}, {"species": [{"element": "P", "occu": 1}], "abc": [0.24519995, 0.64043792, 0.15000091999999998], "xyz": [1.9877847478604498, 9.2740982625904, 6.77381534581264], "label": "P", "properties": {}}, {"species": [{"element": "P", "occu": 1}], "abc": [0.74528939, 0.7254864, 0.21172355999999998], "xyz": [6.04190531924749, 10.505674245167999, 9.56111669047152], "label": "P", "properties": {}}, {"species": [{"element": "P", "occu": 1}], "abc": [0.74601262, 0.28397436, 0.1723972], "xyz": [6.04776839370242, 4.1121957904932, 7.785197577022401], "label": "P", "properties": {}}, {"species": [{"element": "P", "occu": 1}], "abc": [0.2393764, 0.08268084, 0.18980776], "xyz": [1.9405744451323999, 1.1972904955308001, 8.57143221149792], "label": "P", "properties": {}}, {"species": [{"element": "P", "occu": 1}], "abc": [0.24456725, 0.4530848, 0.27539187], "xyz": [1.98265558119475, 6.5610620877759995, 12.43628155826004], "label": "P", "properties": {}}, {"species": [{"element": "P", "occu": 1}], "abc": [0.74336863, 0.53802361, 0.33698603], "xyz": [6.02633411936633, 7.7910499533407, 15.21778093986676], "label": "P", "properties": {}}, {"species": [{"element": "P", "occu": 1}], "abc": [0.73887816, 0.09658151, 0.2971787], "xyz": [5.989930817584559, 1.3985842907136998, 13.4201419465204], "label": "P", "properties": {}}, {"species": [{"element": "P", "occu": 1}], "abc": [0.24622512, 0.89465962, 0.31452673], "xyz": [1.9960955867899197, 12.955449651469399, 14.20355282049116], "label": "P", "properties": {}}, {"species": [{"element": "P", "occu": 1}], "abc": [0.248178, 0.26551171, 0.40030311], "xyz": [2.011927176798, 3.8448405559877, 18.07708479051012], "label": "P", "properties": {}}, {"species": [{"element": "P", "occu": 1}], "abc": [0.73413273, 0.3485273, 0.46488302], "xyz": [5.9514606083694295, 5.046978522751, 20.99341613960584], "label": "P", "properties": {}}, {"species": [{"element": "P", "occu": 1}], "abc": [0.74461483, 0.91553461, 0.42283093], "xyz": [6.036436802310529, 13.2577376679107, 19.09440716975756], "label": "P", "properties": {}}, {"species": [{"element": "P", "occu": 1}], "abc": [0.24504011, 0.70885803, 0.43894962], "xyz": [1.98648895838701, 10.2648809808861, 19.82230290317304], "label": "P", "properties": {}}, {"species": [{"element": "S", "occu": 1}], "abc": [0.44335615, 0.78634378, 9.99999999999994e-05], "xyz": [3.59419564661465, 11.3869420534886, 0.004515849199999973], "label": "S", "properties": {}}, {"species": [{"element": "S", "occu": 1}], "abc": [0.52944559, 0.54391404, 0.04260493], "xyz": [4.29210474400169, 7.8763485044148, 1.92397439056556], "label": "S", "properties": {}}, {"species": [{"element": "S", "occu": 1}], "abc": [0.4532892, 0.18918553, 0.07364248000000001], "xyz": [3.6747208069572, 2.7395710658111, 3.3255833439401608], "label": "S", "properties": {}}, {"species": [{"element": "S", "occu": 1}], "abc": [0.03356918, 0.18772378, 0.07316832000000001], "xyz": [0.27213832630137996, 2.7184036540886, 3.3041709933734404], "label": "S", "properties": {}}, {"species": [{"element": "S", "occu": 1}], "abc": [0.95582514, 0.54233726, 0.040439710000000004], "xyz": [7.74867464252574, 7.8535153582162005, 1.8261963205173202], "label": "S", "properties": {}}, {"species": [{"element": "S", "occu": 1}], "abc": [0.02308252, 0.80824668, 0.0005273099999999996], "xyz": [0.18712516539331997, 11.704115101011599, 0.023812524416519983], "label": "S", "properties": {}}, {"species": [{"element": "S", "occu": 1}], "abc": [0.74960539, 0.77119084, 0.07996647], "xyz": [6.07689422920349, 11.1675142992308, 3.61116519576324], "label": "S", "properties": {}}, {"species": [{"element": "S", "occu": 1}], "abc": [0.26755858, 0.97247871, 0.029224250000000004], "xyz": [2.16904148831678, 14.082337777277699, 1.3197230598310001], "label": "S", "properties": {}}, {"species": [{"element": "S", "occu": 1}], "abc": [0.7369713, 0.35848046, 0.01902547], "xyz": [5.9744723020983, 5.1911089388002, 0.85916153479124], "label": "S", "properties": {}}, {"species": [{"element": "S", "occu": 1}], "abc": [0.23675919, 0.7550094, 0.06214186000000001], "xyz": [1.9193572706592898, 10.933192970178, 2.8062326876751205], "label": "S", "properties": {}}, {"species": [{"element": "S", "occu": 1}], "abc": [0.7333416, 0.99314794, 0.04942945], "xyz": [5.9450470828055995, 14.3816462099078, 2.2321594223894], "label": "S", "properties": {}}, {"species": [{"element": "S", "occu": 1}], "abc": [0.74909555, 0.41797794, 0.09077219], "xyz": [6.07276106288005, 6.0526842120078, 4.099135215937481], "label": "S", "properties": {}}, {"species": [{"element": "S", "occu": 1}], "abc": [0.24313875, 0.3025224, 0.020556260000000003], "xyz": [1.9710750302512499, 4.380787546488, 0.9282897027599202], "label": "S", "properties": {}}, {"species": [{"element": "S", "occu": 1}], "abc": [0.46359671, 0.60477658, 0.12968058999999998], "xyz": [3.75828163625761, 8.7576910340246, 5.856179886070279], "label": "S", "properties": {}}, {"species": [{"element": "S", "occu": 1}], "abc": [0.54418897, 0.93673427, 0.11274754], "xyz": [4.411626244295269, 13.5647271884149, 5.09150888310968], "label": "S", "properties": {}}, {"species": [{"element": "S", "occu": 1}], "abc": [0.52941095, 0.35592112, 0.16705988], "xyz": [4.2918239247614505, 5.154047468974399, 7.54417225450096], "label": "S", "properties": {}}, {"species": [{"element": "S", "occu": 1}], "abc": [0.44903061, 0.00752388, 0.19807427], "xyz": [3.64019730787251, 0.1089523281756, 8.944735337200841], "label": "S", "properties": {}}, {"species": [{"element": "S", "occu": 1}], "abc": [0.02416402, 0.00893612, 0.19438435999999998], "xyz": [0.19589265985982, 0.1294027920244, 8.77810456598512], "label": "S", "properties": {}}, {"species": [{"element": "S", "occu": 1}], "abc": [0.95638594, 0.36042875, 0.16507349], "xyz": [7.753220930918539, 5.2193218730125, 7.45446987757708], "label": "S", "properties": {}}, {"species": [{"element": "S", "occu": 1}], "abc": [0.969186, 0.94510261, 0.10666441], "xyz": [7.856988342125999, 13.6859080320707, 4.816803905669721], "label": "S", "properties": {}}, {"species": [{"element": "S", "occu": 1}], "abc": [0.03612763, 0.61647763, 0.12556893], "xyz": [0.29287914573532997, 8.9271324179381, 5.67050352085356], "label": "S", "properties": {}}, {"species": [{"element": "S", "occu": 1}], "abc": [0.75192059, 0.58213964, 0.20744215], "xyz": [6.0956630717266895, 8.4298884486868, 9.3677746712378], "label": "S", "properties": {}}, {"species": [{"element": "S", "occu": 1}], "abc": [0.25386673, 0.78314595, 0.15450991], "xyz": [2.0580445219634296, 11.340634692976499, 6.97743453465572], "label": "S", "properties": {}}, {"species": [{"element": "S", "occu": 1}], "abc": [0.24304174, 0.36832654, 0.09606288], "xyz": [1.9702885904563399, 5.3336887432898, 4.338054797976961], "label": "S", "properties": {}}, {"species": [{"element": "S", "occu": 1}], "abc": [0.74510367, 0.18284509, 0.13949902], "xyz": [6.04039972602297, 2.6477559784283, 6.2995653786778405], "label": "S", "properties": {}}, {"species": [{"element": "S", "occu": 1}], "abc": [0.23357826, 0.56570445, 0.18860127999999998], "xyz": [1.8935701359636599, 8.1918925988715, 8.51694939406976], "label": "S", "properties": {}}, {"species": [{"element": "S", "occu": 1}], "abc": [0.73472212, 0.79833765, 0.17295628], "xyz": [5.95623866991692, 11.5606237257555, 7.81044478672976], "label": "S", "properties": {}}, {"species": [{"element": "S", "occu": 1}], "abc": [0.75008645, 0.23576851, 0.21505359999999998], "xyz": [6.080794082081949, 3.4141331434036997, 9.7114962751712], "label": "S", "properties": {}}, {"species": [{"element": "S", "occu": 1}], "abc": [0.24969752, 0.13060094, 0.14676027], "xyz": [2.0242456078583198, 1.8912152340178, 6.62747247871284], "label": "S", "properties": {}}, {"species": [{"element": "S", "occu": 1}], "abc": [0.46133489, 0.41822375, 0.25435173], "xyz": [3.73994553423799, 6.0562437546625, 11.48614056439116], "label": "S", "properties": {}}, {"species": [{"element": "S", "occu": 1}], "abc": [0.53535043, 0.75044966, 0.23592014], "xyz": [4.33997404777013, 10.8671639680042, 10.653797754828881], "label": "S", "properties": {}}, {"species": [{"element": "S", "occu": 1}], "abc": [0.52317175, 0.1699164, 0.29269299], "xyz": [4.24124403435425, 2.4605372992679997, 13.21757404737108], "label": "S", "properties": {}}, {"species": [{"element": "S", "occu": 1}], "abc": [0.45673022, 0.81832551, 0.32192292], "xyz": [3.70261643692402, 11.850065327993699, 14.53755360743664], "label": "S", "properties": {}}, {"species": [{"element": "S", "occu": 1}], "abc": [0.02996305, 0.82239548, 0.31969839], "xyz": [0.24290418407255, 11.9090020344676, 14.43709718722788], "label": "S", "properties": {}}, {"species": [{"element": "S", "occu": 1}], "abc": [0.94793637, 0.17227938, 0.28895353], "xyz": [7.684722032888669, 2.4947553054606, 13.04870567287676], "label": "S", "properties": {}}, {"species": [{"element": "S", "occu": 1}], "abc": [0.96263135, 0.76047067, 0.23250815999999996], "xyz": [7.803851164497849, 11.0122769110829, 10.49971788329472], "label": "S", "properties": {}}, {"species": [{"element": "S", "occu": 1}], "abc": [0.03450112, 0.42846525, 0.25119035], "xyz": [0.27969336910592, 6.2045495847675, 11.3433774109522], "label": "S", "properties": {}}, {"species": [{"element": "S", "occu": 1}], "abc": [0.75134247, 0.39526964, 0.33265195999999997], "xyz": [6.09097637371377, 5.7238482717868, 15.02206087444432], "label": "S", "properties": {}}, {"species": [{"element": "S", "occu": 1}], "abc": [0.25151887, 0.59641042, 0.27965369], "xyz": [2.03901091164617, 8.6365417586654, 12.628738922635481], "label": "S", "properties": {}}, {"species": [{"element": "S", "occu": 1}], "abc": [0.23433813, 0.18293225, 0.22273092], "xyz": [1.8997302432408298, 2.6490181310575, 10.05819246897264], "label": "S", "properties": {}}, {"species": [{"element": "S", "occu": 1}], "abc": [0.73427348, 0.99658385, 0.26413441], "xyz": [5.95260163920268, 14.4314011759495, 11.92791164090972], "label": "S", "properties": {}}, {"species": [{"element": "S", "occu": 1}], "abc": [0.23447002, 0.38039833, 0.31415936], "xyz": [1.90079944790582, 5.5084987649471, 14.18696294528512], "label": "S", "properties": {}}, {"species": [{"element": "S", "occu": 1}], "abc": [0.73400684, 0.61229062, 0.298317], "xyz": [5.95044004445044, 8.866500870439399, 13.471545857964001], "label": "S", "properties": {}}, {"species": [{"element": "S", "occu": 1}], "abc": [0.74925597, 0.04770097, 0.34008208], "xyz": [6.074061554292269, 0.6907515454439, 15.357593889023361], "label": "S", "properties": {}}, {"species": [{"element": "S", "occu": 1}], "abc": [0.25107725, 0.94288472, 0.27185995], "xyz": [2.0354307906047495, 13.6537910553064, 12.276785377195402], "label": "S", "properties": {}}, {"species": [{"element": "S", "occu": 1}], "abc": [0.46936121, 0.23370049, 0.38063231999999997], "xyz": [3.8050132329771094, 3.3841864146263, 17.18878157766144], "label": "S", "properties": {}}, {"species": [{"element": "S", "occu": 1}], "abc": [0.53368429, 0.56301876, 0.36119471999999997], "xyz": [4.326466999013389, 8.153001471121199, 16.31100887356224], "label": "S", "properties": {}}, {"species": [{"element": "S", "occu": 1}], "abc": [0.53540332, 0.99091599, 0.41376867], "xyz": [4.34040281594612, 14.349325632111299, 18.68516917404564], "label": "S", "properties": {}}, {"species": [{"element": "S", "occu": 1}], "abc": [0.45762786, 0.63570334, 0.4466343], "xyz": [3.70989341679726, 9.205537425105799, 20.1693314634756], "label": "S", "properties": {}}, {"species": [{"element": "S", "occu": 1}], "abc": [0.03111051, 0.63570524, 0.44522595], "xyz": [0.25220640247341, 9.2055649387588, 20.1057325012674], "label": "S", "properties": {}}, {"species": [{"element": "S", "occu": 1}], "abc": [0.95506959, 0.98945544, 0.4131459], "xyz": [7.74254955658569, 14.328175597432798, 18.6570458199828], "label": "S", "properties": {}}, {"species": [{"element": "S", "occu": 1}], "abc": [0.96104137, 0.57320538, 0.35772401], "xyz": [7.79096152894367, 8.300512591080599, 16.15427684379292], "label": "S", "properties": {}}, {"species": [{"element": "S", "occu": 1}], "abc": [0.04408249, 0.24112734, 0.37426987], "xyz": [0.35736753318958997, 3.4917336639857997, 16.90146293023604], "label": "S", "properties": {}}, {"species": [{"element": "S", "occu": 1}], "abc": [0.76867947, 0.20573746, 0.45800308], "xyz": [6.23152380928077, 2.9792574123902003, 20.68272842415536], "label": "S", "properties": {}}, {"species": [{"element": "S", "occu": 1}], "abc": [0.24810545, 0.4072317, 0.40702858], "xyz": [2.01133902911095, 5.897069307579, 18.38079687370136], "label": "S", "properties": {}}, {"species": [{"element": "S", "occu": 1}], "abc": [0.24481303, 0.99597257, 0.34735158], "xyz": [1.9846480682867298, 14.4225493097359, 15.68587354661736], "label": "S", "properties": {}}, {"species": [{"element": "S", "occu": 1}], "abc": [0.74404509, 0.80981778, 0.39112155], "xyz": [6.031818039206189, 11.7268659958686, 17.6624593867026], "label": "S", "properties": {}}, {"species": [{"element": "S", "occu": 1}], "abc": [0.23268537, 0.18557228, 0.43777417], "xyz": [1.8863316633476699, 2.6872480622836, 19.769221353751643], "label": "S", "properties": {}}, {"species": [{"element": "S", "occu": 1}], "abc": [0.73481898, 0.42274907, 0.42488629], "xyz": [5.957023893693179, 6.1217743252909, 19.187224127874682], "label": "S", "properties": {}}, {"species": [{"element": "S", "occu": 1}], "abc": [0.74599861, 0.8773605, 0.46650965], "xyz": [6.04765481756051, 12.704943343635, 21.0668722974478], "label": "S", "properties": {}}, {"species": [{"element": "S", "occu": 1}], "abc": [0.24911191, 0.75943285, 0.39615331], "xyz": [2.0194981899808098, 10.9972483745795, 17.88968608040852], "label": "S", "properties": {}}, {"species": [{"element": "S", "occu": 1}], "abc": [0.52263894, 0.36898861, 0.48666049], "xyz": [4.236924655041539, 5.3432760928907, 21.976853844381083], "label": "S", "properties": {}}, {"species": [{"element": "S", "occu": 1}], "abc": [0.94215951, 0.39318319, 0.48690988999999996], "xyz": [7.637890236232409, 5.6936346605753, 21.98811637228588], "label": "S", "properties": {}}, {"species": [{"element": "S", "occu": 1}], "abc": [0.24210186, 0.82124556, 0.46762469], "xyz": [1.9626691797312599, 11.8923501924372, 21.11722582236748], "label": "S", "properties": {}}]}, "formula": "(Li3PS4)16.0", "bandgap": 2.0226, "slab_thickness": 21.98360052308588}