{"miller": "101_0.26", "final_energy": -559.92289593, "gamma": 0.012619066014313942, "work_function": "Not calculated", "ionization_potentail": "Not calculated", "electron_affinity": "Not calculated", "is_stochiometric": true, "incar_parameters": {"SYSTEM": "unknown system", "LCOMPAT": false, "PREC": "normal", "ENMAX": 520.0, "ENAUG": 628.945, "EDIFF": 1e-05, "IALGO": 38, "IWAVPR": 11, "NBANDS": 370, "NBANDSLOW": -1, "NBANDSHIGH": -1, "NELECT": 608.0, "TURBO": 0, "IRESTART": 0, "NREBOOT": 0, "NMIN": 0, "EREF": 0.0, "ISMEAR": 0, "SIGMA": 0.05, "KSPACING": 0.5, "KGAMMA": true, "KBLOWUP": true, "LREAL": true, "ROPT": [-0.0005, -0.0005, -0.0005], "LMAXPAW": -100, "LMAXMIX": 2, "NLSPLINE": false, "ISTART": 0, "ICHARG": 2, "INIWAV": 1, "ISPIN": 1, "LNONCOLLINEAR": false, "MAGMOM": [0.6, 0.6, 0.6, 0.6, 0.6, 0.6, 0.6, 0.6, 0.6, 0.6, 0.6, 0.6, 0.6, 0.6, 0.6, 0.6, 0.6, 0.6, 0.6, 0.6, 0.6, 0.6, 0.6, 0.6, 0.6, 0.6, 0.6, 0.6, 0.6, 0.6, 0.6, 0.6, 0.6, 0.6, 0.6, 0.6, 0.6, 0.6, 0.6, 0.6, 0.6, 0.6, 0.6, 0.6, 0.6, 0.6, 0.6, 0.6, 0.6, 0.6, 0.6, 0.6, 0.6, 0.6, 0.6, 0.6, 0.6, 0.6, 0.6, 0.6, 0.6, 0.6, 0.6, 0.6, 0.6, 0.6, 0.6, 0.6, 0.6, 0.6, 0.6, 0.6, 0.6, 0.6, 0.6, 0.6, 0.6, 0.6, 0.6, 0.6, 0.6, 0.6, 0.6, 0.6, 0.6, 0.6, 0.6, 0.6, 0.6, 0.6, 0.6, 0.6, 0.6, 0.6, 0.6, 0.6, 0.6, 0.6, 0.6, 0.6, 0.6, 0.6, 0.6, 0.6, 0.6, 0.6, 0.6, 0.6, 0.6, 0.6, 0.6, 0.6, 0.6, 0.6, 0.6, 0.6, 0.6, 0.6, 0.6, 0.6, 0.6, 0.6, 0.6, 0.6, 0.6, 0.6, 0.6, 0.6], "NUPDOWN": -1.0, "LSORBIT": false, "SAXIS": [0.0, 0.0, 1.0], "LSPIRAL": false, "QSPIRAL": [0.0, 0.0, 0.0], "LZEROZ": false, "LASPH": false, "LMETAGGA": false, "NELM": 100, "NELMDL": -5, "NELMIN": 6, "ENINI": 520.0, "LDIAG": true, "LSUBROT": false, "WEIMIN": 0.001, "EBREAK": 1e-08, "DEPER": 0.3, "NRMM": 4, "TIME": 0.4, "AMIX": 0.4, "BMIX": 1.0, "AMIN": 0.1, "AMIX_MAG": 1.6, "BMIX_MAG": 1.0, "IMIX": 4, "MIXFIRST": false, "MAXMIX": -45, "WC": 100.0, "INIMIX": 1, "MIXPRE": 1, "MREMOVE": 5, "LDIPOL": false, "LMONO": false, "IDIPOL": 0, "EPSILON": 1.0, "DIPOL": [-100.0, -100.0, -100.0], "EFIELD": 0.0, "NGX": 48, "NGY": 84, "NGZ": 252, "NGXF": 96, "NGYF": 168, "NGZF": 504, "ADDGRID": false, "NSW": 150, "IBRION": 2, "MDALGO": 0, "ISIF": 2, "PSTRESS": 0.0, "EDIFFG": -0.01, "NFREE": 1, "POTIM": 0.5, "SMASS": -3.0, "SCALEE": 1.0, "TEBEG": 0.0001, "TEEND": 0.0001, "NBLOCK": 1, "KBLOCK": 150, "NPACO": 256, "APACO": 10.0, "ISYM": 0, "SYMPREC": 1e-05, "LORBIT": 11, "RWIGS": [-1.0, -1.0, -1.0], "NEDOS": 301, "EMIN": 10.0, "EMAX": -10.0, "EFERMI": 0.0, "NWRITE": 2, "LWAVE": false, "LDOWNSAMPLE": false, "LCHARG": false, "LPARD": false, "LVTOT": false, "LVHAR": false, "LELF": false, "LOPTICS": false, "STM": [0.0, 0.0, 0.0, 0.0, 0.0, 0.0, 0.0], "NPAR": 2, "NSIM": 4, "NBLK": -1, "LPLANE": true, "LSCALAPACK": true, "LSCAAWARE": false, "LSCALU": false, "LASYNC": false, "LORBITALREAL": false, "IDIOT": 3, "PHON_NSTRUCT": -1, "LMUSIC": false, "POMASS": [7.01, 30.974, 32.066], "DARWINR": [0.0, 0.0, 0.0], "DARWINV": [1.0, 1.0, 1.0], "LCORR": true, "GGA_COMPAT": true, "LBERRY": false, "ICORELEVEL": 0, "LDAU": false, "I_CONSTRAINED_M": 0, "GGA": "--", "VOSKOWN": 0, "LHFCALC": false, "PRECFOCK": "", "LSYMGRAD": false, "LHFONE": false, "LRHFCALC": false, "LTHOMAS": false, "LMODELHF": false, "LFOCKACE": false, "ENCUT4O": -1.0, "EXXOEP": 0, "FOURORBIT": 0, "AEXX": 0.0, "HFALPHA": 0.0, "MCALPHA": 0.0, "ALDAX": 1.0, "AGGAX": 1.0, "ALDAC": 1.0, "AGGAC": 1.0, "NKREDX": 1, "NKREDY": 1, "NKREDZ": 1, "SHIFTRED": false, "ODDONLY": false, "EVENONLY": false, "LMAXFOCK": 0, "NMAXFOCKAE": 0, "LFOCKAEDFT": false, "HFSCREEN": 0.0, "HFSCREENC": 0.0, "NBANDSGWLOW": 0, "LUSE_VDW": false, "Zab_VDW": -0.8491, "PARAM1": 0.1234, "PARAM2": 1.0, "PARAM3": 0.0, "MODEL_GW": 0, "MODEL_EPS0": 24.8498827, "MODEL_ALPHA": 1.0, "LEPSILON": false, "LRPA": false, "LNABLA": false, "LVEL": false, "CSHIFT": 0.1, "OMEGAMAX": -1.0, "DEG_THRESHOLD": 0.002, "RTIME": -0.1, "WPLASMAI": 0.0, "DFIELD": [0.0, 0.0, 0.0], "WPLASMA": [0.0, 0.0, 0.0, 0.0, 0.0, 0.0, 0.0, 0.0, 0.0], "NUCIND": false, "MAGPOS": [0.0, 0.0, 0.0], "LNICSALL": true, "ORBITALMAG": false, "LMAGBLOCH": false, "LCHIMAG": false, "LGAUGE": true, "MAGATOM": 0, "MAGDIPOL": [0.0, 0.0, 0.0], "AVECCONST": [0.0, 0.0, 0.0], "LFINITE_TEMPERATURE": false, "LADDER": false, "LRPAFORCE": false, "LFXC": false, "LHARTREE": true, "IBSE": 0, "KPOINT": [-1, 0, 0, 0], "LTCTC": false, "LTCTE": false, "LTETE": false, "LTRIPLET": false, "LFXCEPS": false, "LFXHEG": false, "NATURALO": 2, "LHOLEGF": false, "L2ORDER": false, "LDMP1": false, "LMP2LT": false, "LSMP2LT": false, "LGWLF": false, "ENCUTGW": -2.0, "ENCUTGWSOFT": -2.0, "ENCUTLF": -1.0, "LESF_SPLINES": false, "LMAXMP2": -1, "SCISSOR": 0.0, "NOMEGA": 0, "NOMEGAR": 0, "NBANDSGW": -1, "NBANDSO": -1, "NBANDSV": -1, "NELMGW": 1, "NELMHF": 1, "DIM": 3, "IESPILON": 4, "ANTIRES": 0, "OMEGAMIN": -30.0, "OMEGATL": -200.0, "OMEGAGRID": 0, "LSELFENERGY": false, "LSPECTRAL": false, "LSPECTRALGW": false, "LSINGLES": false, "LFERMIGW": false, "ODDONLYGW": false, "EVENONLYGW": false, "NKREDLFX": 1, "NKREDLFY": 1, "NKREDLFZ": 1, "MAXMEM": 2800, "TELESCOPE": 0, "NTAUPAR": -1, "NOMEGAPAR": -1, "DAMP_NEWTON": 0.80000001, "LAMBDA": 1.0, "OFIELD_KAPPA": 0.0, "OFIELD_K": [0.0, 0.0, 0.0], "OFIELD_Q6_NEAR": 0.0, "OFIELD_Q6_FAR": 0.0, "OFIELD_A": 0.0, "KPOINTS_OPT_MODE": 1, "LKPOINTS_OPT": false, "@module": "pymatgen.io.vasp.inputs", "@class": "Incar"}, "relaxed_structures": {"@module": "pymatgen.core.structure", "@class": "Structure", "charge": 0, "lattice": {"matrix": [[8.106791, 0.0, 0.0], [0.0, 14.48087, 0.0], [0.0, 0.0, 45.158492]], "a": 8.106791, "b": 14.48087, "c": 45.158492, "alpha": 90.0, "beta": 90.0, "gamma": 90.0, "volume": 5301.308309094782}, "sites": [{"species": [{"element": "Li", "occu": 1}], "abc": [0.96329061, 0.71289786, 0.04193535], "xyz": [7.80919564753251, 10.3233812339382, 1.8937371674922003], "label": "Li", "properties": {}}, {"species": [{"element": "Li", "occu": 1}], "abc": [0.0312157, 0.0141268, 0.056730659999999995], "xyz": [0.2530591558187, 0.20456835431599998, 2.56187105576472], "label": "Li", "properties": {}}, {"species": [{"element": "Li", "occu": 1}], "abc": [0.01652039, 0.39374536, 0.01529391], "xyz": [0.13392734896848998, 5.701775371263199, 0.6906499123837201], "label": "Li", "properties": {}}, {"species": [{"element": "Li", "occu": 1}], "abc": [0.74101675, 0.25745649, 0.06517484000000001], "xyz": [6.00726791974925, 3.7281939623462996, 2.9431974907412806], "label": "Li", "properties": {}}, {"species": [{"element": "Li", "occu": 1}], "abc": [0.44291403, 0.01250013, 0.06947795000000001], "xyz": [3.59061147217773, 0.1810127575131, 3.1375194492514007], "label": "Li", "properties": {}}, {"species": [{"element": "Li", "occu": 1}], "abc": [0.51316521, 0.71032603, 0.047148100000000005], "xyz": [4.16012310594111, 10.2861388980461, 2.1291370966652003], "label": "Li", "properties": {}}, {"species": [{"element": "Li", "occu": 1}], "abc": [0.46057571, 0.40061911, 0.015386000000000004], "xyz": [3.73379102064661, 5.8013132514257, 0.6948085579120002], "label": "Li", "properties": {}}, {"species": [{"element": "Li", "occu": 1}], "abc": [0.54263673, 0.92324159, 0.013429870000000003], "xyz": [4.39904255903343, 13.369341443383298, 0.6064726769560402], "label": "Li", "properties": {}}, {"species": [{"element": "Li", "occu": 1}], "abc": [0.95464883, 0.52382555, 0.16958736], "xyz": [7.73913854320453, 7.585449692228499, 7.65830943986112], "label": "Li", "properties": {}}, {"species": [{"element": "Li", "occu": 1}], "abc": [0.02303421, 0.8322896, 0.18494379], "xyz": [0.18673352632010998, 12.052277499951998, 8.35178266116468], "label": "Li", "properties": {}}, {"species": [{"element": "Li", "occu": 1}], "abc": [0.02945164, 0.4815139, 0.09012240999999999], "xyz": [0.23875829008724, 6.972740189093, 4.06979213100572], "label": "Li", "properties": {}}, {"species": [{"element": "Li", "occu": 1}], "abc": [0.96515777, 0.05618609, 0.14376584], "xyz": [7.82433232341607, 0.8136234650983, 6.492248535513281], "label": "Li", "properties": {}}, {"species": [{"element": "Li", "occu": 1}], "abc": [0.53700261, 0.05469499, 0.14934337], "xyz": [4.35336792572451, 0.7920310398413, 6.744121379398041], "label": "Li", "properties": {}}, {"species": [{"element": "Li", "occu": 1}], "abc": [0.46753277, 0.47554123, 0.09260764999999999], "xyz": [3.7901904520410694, 6.886250731270099, 4.1820218216638], "label": "Li", "properties": {}}, {"species": [{"element": "Li", "occu": 1}], "abc": [0.45587708, 0.82852923, 0.1910239], "xyz": [3.6957002092502798, 11.9978240708301, 8.6263512599588], "label": "Li", "properties": {}}, {"species": [{"element": "Li", "occu": 1}], "abc": [0.52166863, 0.51946391, 0.1764489], "xyz": [4.229058554666329, 7.5222893504017, 7.9681662390588], "label": "Li", "properties": {}}, {"species": [{"element": "Li", "occu": 1}], "abc": [0.05599839, 0.77440968, 0.10538428], "xyz": [0.45396724406648997, 11.2141259028216, 4.75899516530576], "label": "Li", "properties": {}}, {"species": [{"element": "Li", "occu": 1}], "abc": [0.031469, 0.25577645, 0.12272432999999999], "xyz": [0.255112605979, 3.7038655215114997, 5.54204567451036], "label": "Li", "properties": {}}, {"species": [{"element": "Li", "occu": 1}], "abc": [0.44946538, 0.25189614, 0.12444882999999998], "xyz": [3.64372189739558, 3.6476752568418, 5.61992149396436], "label": "Li", "properties": {}}, {"species": [{"element": "Li", "occu": 1}], "abc": [0.54648645, 0.76177467, 0.12530956], "xyz": [4.430251434481949, 11.0311599655629, 5.65879076278352], "label": "Li", "properties": {}}, {"species": [{"element": "Li", "occu": 1}], "abc": [0.95629894, 0.33335586, 0.29487042], "xyz": [7.75251564010154, 4.8272828723982, 13.315903502606641], "label": "Li", "properties": {}}, {"species": [{"element": "Li", "occu": 1}], "abc": [0.02194153, 0.64337277, 0.31033464], "xyz": [0.17787539793023, 9.3165974439099, 14.01424435776288], "label": "Li", "properties": {}}, {"species": [{"element": "Li", "occu": 1}], "abc": [0.0290455, 0.29824433, 0.21402653000000002], "xyz": [0.23546579799049996, 4.3188373709671, 9.665115342792761], "label": "Li", "properties": {}}, {"species": [{"element": "Li", "occu": 1}], "abc": [0.96474075, 0.87567389, 0.26992796], "xyz": [7.8209516294332495, 12.680519763484298, 12.189539622236321], "label": "Li", "properties": {}}, {"species": [{"element": "Li", "occu": 1}], "abc": [0.53095598, 0.86276311, 0.27331920000000004], "xyz": [4.3043491600601795, 12.4935604367057, 12.342682906646402], "label": "Li", "properties": {}}, {"species": [{"element": "Li", "occu": 1}], "abc": [0.46359734, 0.28576558, 0.2165866], "xyz": [3.75828674353594, 4.1381342144546, 9.7807242434072], "label": "Li", "properties": {}}, {"species": [{"element": "Li", "occu": 1}], "abc": [0.45385618, 0.6382102, 0.31713828], "xyz": [3.67931719531838, 9.241838938873999, 14.32148648027376], "label": "Li", "properties": {}}, {"species": [{"element": "Li", "occu": 1}], "abc": [0.52153195, 0.33137303, 0.30191053], "xyz": [4.22795051847245, 4.7985697689361, 13.63382425372076], "label": "Li", "properties": {}}, {"species": [{"element": "Li", "occu": 1}], "abc": [0.04769431, 0.5883805, 0.23404139], "xyz": [0.3866478030592099, 8.520261531034999, 10.56895623798388], "label": "Li", "properties": {}}, {"species": [{"element": "Li", "occu": 1}], "abc": [0.93752784, 0.09881747, 0.23618695999999997], "xyz": [7.600342255561439, 1.4309629367989, 10.66584694366432], "label": "Li", "properties": {}}, {"species": [{"element": "Li", "occu": 1}], "abc": [0.43755806, 0.06112097, 0.25069786], "xyz": [3.54719174278546, 0.8850848208438999, 11.32113730522712], "label": "Li", "properties": {}}, {"species": [{"element": "Li", "occu": 1}], "abc": [0.55030754, 0.57360919, 0.25271198], "xyz": [4.46122821250414, 8.3063601111953, 11.41209192713416], "label": "Li", "properties": {}}, {"species": [{"element": "Li", "occu": 1}], "abc": [0.94447473, 0.1491392, 0.41732379000000003], "xyz": [7.65665924089143, 2.159665367104, 18.84571303212468], "label": "Li", "properties": {}}, {"species": [{"element": "Li", "occu": 1}], "abc": [0.01280611, 0.45112071, 0.43962716], "xyz": [0.10381645729300999, 6.532620355817699, 19.85289958784272], "label": "Li", "properties": {}}, {"species": [{"element": "Li", "occu": 1}], "abc": [0.0363696, 0.10681378, 0.33705251], "xyz": [0.2948407459536, 1.5467564623885999, 15.220783076414921], "label": "Li", "properties": {}}, {"species": [{"element": "Li", "occu": 1}], "abc": [0.96758142, 0.68580146, 0.39450064], "xyz": [7.843980347423219, 9.9310017880702, 17.81505399543488], "label": "Li", "properties": {}}, {"species": [{"element": "Li", "occu": 1}], "abc": [0.52729405, 0.68222197, 0.3964627], "xyz": [4.27466265889355, 9.879167658713898, 17.9036576662484], "label": "Li", "properties": {}}, {"species": [{"element": "Li", "occu": 1}], "abc": [0.46626595, 0.10645953, 0.34275984000000004], "xyz": [3.7799206070664497, 1.5416266141911, 15.478517492561283], "label": "Li", "properties": {}}, {"species": [{"element": "Li", "occu": 1}], "abc": [0.46171229, 0.45011562, 0.44441436], "xyz": [3.74300503716139, 6.5180657781894, 20.06908232074512], "label": "Li", "properties": {}}, {"species": [{"element": "Li", "occu": 1}], "abc": [0.53112552, 0.14880295, 0.43043182], "xyz": [4.30572358540632, 2.1547961745664996, 19.437651900015442], "label": "Li", "properties": {}}, {"species": [{"element": "Li", "occu": 1}], "abc": [0.0472043, 0.4002536, 0.36106134], "xyz": [0.38267539440129994, 5.796020348631999, 16.304985633899282], "label": "Li", "properties": {}}, {"species": [{"element": "Li", "occu": 1}], "abc": [0.95171171, 0.91019304, 0.36261934], "xyz": [7.715327925222609, 13.1803870871448, 16.375342564435282], "label": "Li", "properties": {}}, {"species": [{"element": "Li", "occu": 1}], "abc": [0.53134519, 0.90654327, 0.36439754], "xyz": [4.3075044041852895, 13.1275352422449, 16.455643394909682], "label": "Li", "properties": {}}, {"species": [{"element": "Li", "occu": 1}], "abc": [0.55554853, 0.38769699, 0.38113263000000003], "xyz": [4.50371582306723, 5.6141897115813, 17.211374822793964], "label": "Li", "properties": {}}, {"species": [{"element": "Li", "occu": 1}], "abc": [0.2423793, 0.9047832, 0.42209006000000004], "xyz": [1.9649183278262998, 13.102047897383999, 19.060950597789525], "label": "Li", "properties": {}}, {"species": [{"element": "Li", "occu": 1}], "abc": [0.51910421, 0.76638563, 0.47162764], "xyz": [4.208269337690109, 11.0979306778981, 21.297993007918883], "label": "Li", "properties": {}}, {"species": [{"element": "Li", "occu": 1}], "abc": [0.04164663, 0.23952903, 0.47328021], "xyz": [0.33762052526432995, 3.4685887446561, 21.37262057704332], "label": "Li", "properties": {}}, {"species": [{"element": "Li", "occu": 1}], "abc": [0.96241478, 0.76211196, 0.4711413400000001], "xyz": [7.80209547677098, 11.0360442182052, 21.276032433259285], "label": "Li", "properties": {}}, {"species": [{"element": "P", "occu": 1}], "abc": [0.23603337, 0.82258642, 0.022098690000000004], "xyz": [1.9134731996156698, 11.9117670117854, 0.9979435155754802], "label": "P", "properties": {}}, {"species": [{"element": "P", "occu": 1}], "abc": [0.74892719, 0.90573518, 0.08693197999999999], "xyz": [6.071396203547289, 13.115833396006598, 3.92571712337416], "label": "P", "properties": {}}, {"species": [{"element": "P", "occu": 1}], "abc": [0.74216977, 0.46273282, 0.04807624], "xyz": [6.01661521190807, 6.700773811153399, 2.17105049943008], "label": "P", "properties": {}}, {"species": [{"element": "P", "occu": 1}], "abc": [0.2430886, 0.25599792, 0.06421924000000001], "xyz": [1.9706684746825998, 3.7070725997903997, 2.9000440357860806], "label": "P", "properties": {}}, {"species": [{"element": "P", "occu": 1}], "abc": [0.2452321, 0.63364338, 0.14977943], "xyz": [1.9880453811910999, 9.1757074121406, 6.76381319141956], "label": "P", "properties": {}}, {"species": [{"element": "P", "occu": 1}], "abc": [0.74627808, 0.71769013, 0.21154441999999998], "xyz": [6.0499204224412795, 10.3927774728131, 9.553026998214639], "label": "P", "properties": {}}, {"species": [{"element": "P", "occu": 1}], "abc": [0.74573245, 0.27716593, 0.17209077], "xyz": [6.04549711406795, 4.0136038007591, 7.771359660318841], "label": "P", "properties": {}}, {"species": [{"element": "P", "occu": 1}], "abc": [0.23725906, 0.07500312, 0.18971554], "xyz": [1.92340961227646, 1.0861104303144, 8.56726769536568], "label": "P", "properties": {}}, {"species": [{"element": "P", "occu": 1}], "abc": [0.24612774, 0.44472133, 0.27495644], "xyz": [1.99530614748234, 6.4399517659571, 12.416618196088482], "label": "P", "properties": {}}, {"species": [{"element": "P", "occu": 1}], "abc": [0.74650661, 0.52908919, 0.33682303], "xyz": [6.051773067388509, 7.6616717787952995, 15.210420105670762], "label": "P", "properties": {}}, {"species": [{"element": "P", "occu": 1}], "abc": [0.73778719, 0.08682277, 0.29692303000000003], "xyz": [5.98108655180729, 1.2572692454099, 13.408596274870762], "label": "P", "properties": {}}, {"species": [{"element": "P", "occu": 1}], "abc": [0.24563934, 0.88479957, 0.31461937], "xyz": [1.9913467907579399, 12.8126675492259, 14.20773630319004], "label": "P", "properties": {}}, {"species": [{"element": "P", "occu": 1}], "abc": [0.24923165, 0.25601366, 0.39981949], "xyz": [2.02046889713515, 3.7073005286841996, 18.055245240609082], "label": "P", "properties": {}}, {"species": [{"element": "P", "occu": 1}], "abc": [0.73453623, 0.34021213, 0.46448217999999997], "xyz": [5.9547316985379295, 4.9265676269531, 20.97531480967256], "label": "P", "properties": {}}, {"species": [{"element": "P", "occu": 1}], "abc": [0.74282868, 0.90609055, 0.42281986000000005], "xyz": [6.02195685756588, 13.1209794627785, 19.093907265251122], "label": "P", "properties": {}}, {"species": [{"element": "P", "occu": 1}], "abc": [0.24296132, 0.69968053, 0.43863853], "xyz": [1.9696366423241198, 10.131982796461099, 19.808254547896762], "label": "P", "properties": {}}, {"species": [{"element": "S", "occu": 1}], "abc": [0.44531594, 0.77883675, 0.00032291000000000264], "xyz": [3.61008325454854, 11.278233727972498, 0.01458212865172012], "label": "S", "properties": {}}, {"species": [{"element": "S", "occu": 1}], "abc": [0.52792554, 0.53604279, 0.042301849999999995], "xyz": [4.27978201634214, 7.7623659564273, 1.9102877548102], "label": "S", "properties": {}}, {"species": [{"element": "S", "occu": 1}], "abc": [0.45353476, 0.18206135, 0.07382285999999999], "xyz": [3.6767115105551595, 2.6364067413745, 3.3337290327271196], "label": "S", "properties": {}}, {"species": [{"element": "S", "occu": 1}], "abc": [0.03415487, 0.18039187, 0.07323551], "xyz": [0.27688639272216997, 2.6122312185269, 3.3072051924509203], "label": "S", "properties": {}}, {"species": [{"element": "S", "occu": 1}], "abc": [0.95459665, 0.53580023, 0.04009379], "xyz": [7.73871553085015, 7.758853476600099, 1.81057509496468], "label": "S", "properties": {}}, {"species": [{"element": "S", "occu": 1}], "abc": [0.02532853, 0.80182738, 0.00010000000000000286], "xyz": [0.20533309904722996, 11.611158052220599, 0.00451584920000013], "label": "S", "properties": {}}, {"species": [{"element": "S", "occu": 1}], "abc": [0.74891291, 0.7642369, 0.08000220999999999], "xyz": [6.07128043857181, 11.066815198102999, 3.6127791602673196], "label": "S", "properties": {}}, {"species": [{"element": "S", "occu": 1}], "abc": [0.26905688, 0.96541803, 0.029271150000000003], "xyz": [2.18118789327208, 13.980092988086101, 1.3218409931058002], "label": "S", "properties": {}}, {"species": [{"element": "S", "occu": 1}], "abc": [0.7372472, 0.3506988, 0.019252240000000004], "xyz": [5.9767089657352, 5.078423731956, 0.8694021260220802], "label": "S", "properties": {}}, {"species": [{"element": "S", "occu": 1}], "abc": [0.23577033, 0.74811634, 0.06204956], "xyz": [1.91134078931103, 10.8333754644158, 2.80206455886352], "label": "S", "properties": {}}, {"species": [{"element": "S", "occu": 1}], "abc": [0.73244615, 0.98671905, 0.04970456], "xyz": [5.93778785680465, 14.2885502895735, 2.24458297512352], "label": "S", "properties": {}}, {"species": [{"element": "S", "occu": 1}], "abc": [0.24396082, 0.29501734, 0.02062721], "xyz": [1.9777393799286198, 4.2721077482858, 0.93149369776732], "label": "S", "properties": {}}, {"species": [{"element": "S", "occu": 1}], "abc": [0.46343717, 0.59845438, 0.12929584], "xyz": [3.7569882788214697, 8.6661400777106, 5.83880515627328], "label": "S", "properties": {}}, {"species": [{"element": "S", "occu": 1}], "abc": [0.54548774, 0.93000231, 0.11313667], "xyz": [4.42215510124234, 13.467242550809699, 5.10908140710164], "label": "S", "properties": {}}, {"species": [{"element": "S", "occu": 1}], "abc": [0.52958153, 0.34959575, 0.16691901], "xyz": [4.2932067811702295, 5.062450608302499, 7.537810777732921], "label": "S", "properties": {}}, {"species": [{"element": "S", "occu": 1}], "abc": [0.44641288, 0.99943685, 0.19796689], "xyz": [3.61897591786808, 14.472715098059501, 8.93988621832988], "label": "S", "properties": {}}, {"species": [{"element": "S", "occu": 1}], "abc": [0.02153725, 0.00152212, 0.19403296], "xyz": [0.17459798446475, 0.0220416218444, 8.762235871896321], "label": "S", "properties": {}}, {"species": [{"element": "S", "occu": 1}], "abc": [0.95615539, 0.35369627, 0.16491250999999998], "xyz": [7.75135191025349, 5.1218297053549, 7.44720026353492], "label": "S", "properties": {}}, {"species": [{"element": "S", "occu": 1}], "abc": [0.97075311, 0.9371401, 0.10644065], "xyz": [7.869692575370009, 13.570603959887, 4.8066992414998], "label": "S", "properties": {}}, {"species": [{"element": "S", "occu": 1}], "abc": [0.03600391, 0.60903591, 0.12540669999999998], "xyz": [0.29187617355281, 8.8193698380417, 5.663177458696399], "label": "S", "properties": {}}, {"species": [{"element": "S", "occu": 1}], "abc": [0.75366278, 0.57443864, 0.20707045999999998], "xyz": [6.109786641938979, 8.318371268816799, 9.350989711346319], "label": "S", "properties": {}}, {"species": [{"element": "S", "occu": 1}], "abc": [0.25312496, 0.77624578, 0.15430976], "xyz": [2.05203114760336, 11.2407142282286, 6.96839606248192], "label": "S", "properties": {}}, {"species": [{"element": "S", "occu": 1}], "abc": [0.24197484, 0.36143879, 0.09604112000000001], "xyz": [1.9616394551384397, 5.2339481309473, 4.337072149191041], "label": "S", "properties": {}}, {"species": [{"element": "S", "occu": 1}], "abc": [0.74438748, 0.17621657, 0.13915191], "xyz": [6.0345937233766795, 2.5517692420159, 6.28389041451972], "label": "S", "properties": {}}, {"species": [{"element": "S", "occu": 1}], "abc": [0.23476403, 0.55894955, 0.1883763], "xyz": [1.90318292552773, 8.0940757701085, 8.506789636539601], "label": "S", "properties": {}}, {"species": [{"element": "S", "occu": 1}], "abc": [0.73598267, 0.79137861, 0.17296401], "xyz": [5.966457685311969, 11.4598507721907, 7.810793861872921], "label": "S", "properties": {}}, {"species": [{"element": "S", "occu": 1}], "abc": [0.74884273, 0.41194663, 0.09078426], "xyz": [6.07071150397943, 5.9653455959681, 4.099680278935921], "label": "S", "properties": {}}, {"species": [{"element": "S", "occu": 1}], "abc": [0.24831105, 0.12371966, 0.14679307], "xyz": [2.01300578534055, 1.7915683129042, 6.62895367725044], "label": "S", "properties": {}}, {"species": [{"element": "S", "occu": 1}], "abc": [0.46307774, 0.40979698, 0.25399683], "xyz": [3.75407445493234, 5.9342167937726, 11.47011381558036], "label": "S", "properties": {}}, {"species": [{"element": "S", "occu": 1}], "abc": [0.53604072, 0.74174883, 0.23576279999999997], "xyz": [4.34557008452952, 10.7411683798821, 10.646692517697598], "label": "S", "properties": {}}, {"species": [{"element": "S", "occu": 1}], "abc": [0.52299853, 0.16088533, 0.29250031000000004], "xyz": [4.239839776017229, 2.3297595486371, 13.208872909132523], "label": "S", "properties": {}}, {"species": [{"element": "S", "occu": 1}], "abc": [0.45541003, 0.80820182, 0.32226705], "xyz": [3.69191393251373, 11.7034654891834, 14.5530939992886], "label": "S", "properties": {}}, {"species": [{"element": "S", "occu": 1}], "abc": [0.02888075, 0.81301866, 0.31979602], "xyz": [0.23413020417324998, 11.7732175230342, 14.441506010801842], "label": "S", "properties": {}}, {"species": [{"element": "S", "occu": 1}], "abc": [0.94739088, 0.16208499, 0.28856857], "xyz": [7.680299859466079, 2.3471316691413002, 13.031321459796441], "label": "S", "properties": {}}, {"species": [{"element": "S", "occu": 1}], "abc": [0.96345849, 0.75237418, 0.23250623], "xyz": [7.810556615605589, 10.8950326919366, 10.499630727405162], "label": "S", "properties": {}}, {"species": [{"element": "S", "occu": 1}], "abc": [0.03575299, 0.42099423, 0.25072204000000003], "xyz": [0.28984201755509, 6.0963627153801, 11.322229237563683], "label": "S", "properties": {}}, {"species": [{"element": "S", "occu": 1}], "abc": [0.75449777, 0.38658572, 0.33201247], "xyz": [6.116555731356069, 5.5980975551764, 14.993182470395242], "label": "S", "properties": {}}, {"species": [{"element": "S", "occu": 1}], "abc": [0.25372611, 0.58780186, 0.27952548000000005], "xyz": [2.0569045450130097, 8.5118823204182, 12.622949152376163], "label": "S", "properties": {}}, {"species": [{"element": "S", "occu": 1}], "abc": [0.23236157, 0.17492664, 0.22273007999999997], "xyz": [1.8837066844218697, 2.5330899333767998, 10.058154535839359], "label": "S", "properties": {}}, {"species": [{"element": "S", "occu": 1}], "abc": [0.73248267, 0.98648338, 0.26402499], "xyz": [5.938083916811969, 14.2851375829406, 11.922970398715082], "label": "S", "properties": {}}, {"species": [{"element": "S", "occu": 1}], "abc": [0.23506722, 0.3708014, 0.31351514], "xyz": [1.9056408234910198, 5.369526869218, 14.157870941568882], "label": "S", "properties": {}}, {"species": [{"element": "S", "occu": 1}], "abc": [0.73489279, 0.60467893, 0.29838873000000005], "xyz": [5.957622255936889, 8.7562769770691, 13.474785076595163], "label": "S", "properties": {}}, {"species": [{"element": "S", "occu": 1}], "abc": [0.74939456, 0.22808685, 0.21465005], "xyz": [6.07518507445696, 3.3028960235595, 9.693272565724602], "label": "S", "properties": {}}, {"species": [{"element": "S", "occu": 1}], "abc": [0.25078447, 0.9322731, 0.27187985000000003], "xyz": [2.0330572843357695, 13.500125565597, 12.277684031186203], "label": "S", "properties": {}}, {"species": [{"element": "S", "occu": 1}], "abc": [0.4716555, 0.22461133, 0.38049959], "xyz": [3.8236125625004997, 3.2525674702571, 17.18278769101828], "label": "S", "properties": {}}, {"species": [{"element": "S", "occu": 1}], "abc": [0.53747369, 0.55326407, 0.36131774], "xyz": [4.35718687282879, 8.011745073340899, 16.31656427124808], "label": "S", "properties": {}}, {"species": [{"element": "S", "occu": 1}], "abc": [0.5340439, 0.98195998, 0.41391921000000004], "xyz": [4.3293822821249, 14.219634815582598, 18.69196733343132], "label": "S", "properties": {}}, {"species": [{"element": "S", "occu": 1}], "abc": [0.45524124, 0.62624726, 0.44629372], "xyz": [3.6905455872608397, 9.0686051599162, 20.15395138427024], "label": "S", "properties": {}}, {"species": [{"element": "S", "occu": 1}], "abc": [0.02924247, 0.62601904, 0.44450209], "xyz": [0.23706259261376997, 9.0653003357648, 20.073044075248283], "label": "S", "properties": {}}, {"species": [{"element": "S", "occu": 1}], "abc": [0.95385147, 0.97969246, 0.41320345], "xyz": [7.732674512332769, 14.1867991532402, 18.659644691197403], "label": "S", "properties": {}}, {"species": [{"element": "S", "occu": 1}], "abc": [0.96488961, 0.56397419, 0.35729130000000003], "xyz": [7.822158406341509, 8.166836928745301, 16.134736312719603], "label": "S", "properties": {}}, {"species": [{"element": "S", "occu": 1}], "abc": [0.0465102, 0.23148288, 0.37346640000000003], "xyz": [0.3770484707682, 3.3520734925055997, 16.865179436668804], "label": "S", "properties": {}}, {"species": [{"element": "S", "occu": 1}], "abc": [0.76939244, 0.19754395, 0.45730247], "xyz": [6.237303708060039, 2.8606082592365, 20.65108993307524], "label": "S", "properties": {}}, {"species": [{"element": "S", "occu": 1}], "abc": [0.24819144, 0.39763168, 0.4065902], "xyz": [2.01203613206904, 5.7580526659616, 18.361000293978403], "label": "S", "properties": {}}, {"species": [{"element": "S", "occu": 1}], "abc": [0.24466321, 0.98648172, 0.34732578000000003], "xyz": [1.9834335088591097, 14.285113544696399, 15.684708457523762], "label": "S", "properties": {}}, {"species": [{"element": "S", "occu": 1}], "abc": [0.74238062, 0.80070454, 0.39098016], "xyz": [6.01832452879042, 11.5948983521498, 17.65607442751872], "label": "S", "properties": {}}, {"species": [{"element": "S", "occu": 1}], "abc": [0.23238098, 0.17567663, 0.43718456], "xyz": [1.8838640372351798, 2.5439504410681, 19.74259545528352], "label": "S", "properties": {}}, {"species": [{"element": "S", "occu": 1}], "abc": [0.73491714, 0.4149132, 0.42456761000000004], "xyz": [5.9578196562977395, 6.008304110484, 19.172833019644123], "label": "S", "properties": {}}, {"species": [{"element": "S", "occu": 1}], "abc": [0.74884928, 0.03809493, 0.33986256000000004], "xyz": [6.070764603460479, 0.5516477289891, 15.347680696859522], "label": "S", "properties": {}}, {"species": [{"element": "S", "occu": 1}], "abc": [0.24828522, 0.75115999, 0.39598167], "xyz": [2.0127963869290197, 10.8774501643913, 17.881935076841643], "label": "S", "properties": {}}, {"species": [{"element": "S", "occu": 1}], "abc": [0.52288957, 0.36012395, 0.48623904000000007], "xyz": [4.23895646006987, 5.214908103836501, 21.957821797927686], "label": "S", "properties": {}}, {"species": [{"element": "S", "occu": 1}], "abc": [0.9432807, 0.38395114, 0.48644185000000006], "xyz": [7.646979489233699, 5.5599465446918, 21.966980391690203], "label": "S", "properties": {}}, {"species": [{"element": "S", "occu": 1}], "abc": [0.23953867, 0.81113341, 0.46767791000000003], "xyz": [1.9418899341079698, 11.7459174628667, 21.119629157311724], "label": "S", "properties": {}}, {"species": [{"element": "S", "occu": 1}], "abc": [0.74392771, 0.86696066, 0.46640128000000003], "xyz": [6.03086646407861, 12.5543446125742, 21.06197847166976], "label": "S", "properties": {}}]}, "formula": "(Li3PS4)16.0", "bandgap": 2.02, "slab_thickness": 21.962464542490203}