{"miller": "101_0.38", "final_energy": -559.92504265, "gamma": 0.012609922739456507, "work_function": "Not calculated", "ionization_potentail": "Not calculated", "electron_affinity": "Not calculated", "is_stochiometric": true, "incar_parameters": {"SYSTEM": "unknown system", "LCOMPAT": false, "PREC": "normal", "ENMAX": 520.0, "ENAUG": 628.945, "EDIFF": 1e-05, "IALGO": 38, "IWAVPR": 11, "NBANDS": 370, "NBANDSLOW": -1, "NBANDSHIGH": -1, "NELECT": 608.0, "TURBO": 0, "IRESTART": 0, "NREBOOT": 0, "NMIN": 0, "EREF": 0.0, "ISMEAR": 0, "SIGMA": 0.05, "KSPACING": 0.5, "KGAMMA": true, "KBLOWUP": true, "LREAL": true, "ROPT": [-0.0005, -0.0005, -0.0005], "LMAXPAW": -100, "LMAXMIX": 2, "NLSPLINE": false, "ISTART": 0, "ICHARG": 2, "INIWAV": 1, "ISPIN": 1, "LNONCOLLINEAR": false, "MAGMOM": [0.6, 0.6, 0.6, 0.6, 0.6, 0.6, 0.6, 0.6, 0.6, 0.6, 0.6, 0.6, 0.6, 0.6, 0.6, 0.6, 0.6, 0.6, 0.6, 0.6, 0.6, 0.6, 0.6, 0.6, 0.6, 0.6, 0.6, 0.6, 0.6, 0.6, 0.6, 0.6, 0.6, 0.6, 0.6, 0.6, 0.6, 0.6, 0.6, 0.6, 0.6, 0.6, 0.6, 0.6, 0.6, 0.6, 0.6, 0.6, 0.6, 0.6, 0.6, 0.6, 0.6, 0.6, 0.6, 0.6, 0.6, 0.6, 0.6, 0.6, 0.6, 0.6, 0.6, 0.6, 0.6, 0.6, 0.6, 0.6, 0.6, 0.6, 0.6, 0.6, 0.6, 0.6, 0.6, 0.6, 0.6, 0.6, 0.6, 0.6, 0.6, 0.6, 0.6, 0.6, 0.6, 0.6, 0.6, 0.6, 0.6, 0.6, 0.6, 0.6, 0.6, 0.6, 0.6, 0.6, 0.6, 0.6, 0.6, 0.6, 0.6, 0.6, 0.6, 0.6, 0.6, 0.6, 0.6, 0.6, 0.6, 0.6, 0.6, 0.6, 0.6, 0.6, 0.6, 0.6, 0.6, 0.6, 0.6, 0.6, 0.6, 0.6, 0.6, 0.6, 0.6, 0.6, 0.6, 0.6], "NUPDOWN": -1.0, "LSORBIT": false, "SAXIS": [0.0, 0.0, 1.0], "LSPIRAL": false, "QSPIRAL": [0.0, 0.0, 0.0], "LZEROZ": false, "LASPH": false, "LMETAGGA": false, "NELM": 100, "NELMDL": -5, "NELMIN": 6, "ENINI": 520.0, "LDIAG": true, "LSUBROT": false, "WEIMIN": 0.001, "EBREAK": 1e-08, "DEPER": 0.3, "NRMM": 4, "TIME": 0.4, "AMIX": 0.4, "BMIX": 1.0, "AMIN": 0.1, "AMIX_MAG": 1.6, "BMIX_MAG": 1.0, "IMIX": 4, "MIXFIRST": false, "MAXMIX": -45, "WC": 100.0, "INIMIX": 1, "MIXPRE": 1, "MREMOVE": 5, "LDIPOL": false, "LMONO": false, "IDIPOL": 0, "EPSILON": 1.0, "DIPOL": [-100.0, -100.0, -100.0], "EFIELD": 0.0, "NGX": 48, "NGY": 84, "NGZ": 252, "NGXF": 96, "NGYF": 168, "NGZF": 504, "ADDGRID": false, "NSW": 150, "IBRION": 2, "MDALGO": 0, "ISIF": 2, "PSTRESS": 0.0, "EDIFFG": -0.01, "NFREE": 1, "POTIM": 0.5, "SMASS": -3.0, "SCALEE": 1.0, "TEBEG": 0.0001, "TEEND": 0.0001, "NBLOCK": 1, "KBLOCK": 150, "NPACO": 256, "APACO": 10.0, "ISYM": 0, "SYMPREC": 1e-05, "LORBIT": 11, "RWIGS": [-1.0, -1.0, -1.0], "NEDOS": 301, "EMIN": 10.0, "EMAX": -10.0, "EFERMI": 0.0, "NWRITE": 2, "LWAVE": false, "LDOWNSAMPLE": false, "LCHARG": false, "LPARD": false, "LVTOT": false, "LVHAR": false, "LELF": false, "LOPTICS": false, "STM": [0.0, 0.0, 0.0, 0.0, 0.0, 0.0, 0.0], "NPAR": 2, "NSIM": 4, "NBLK": -1, "LPLANE": true, "LSCALAPACK": true, "LSCAAWARE": false, "LSCALU": false, "LASYNC": false, "LORBITALREAL": false, "IDIOT": 3, "PHON_NSTRUCT": -1, "LMUSIC": false, "POMASS": [7.01, 30.974, 32.066], "DARWINR": [0.0, 0.0, 0.0], "DARWINV": [1.0, 1.0, 1.0], "LCORR": true, "GGA_COMPAT": true, "LBERRY": false, "ICORELEVEL": 0, "LDAU": false, "I_CONSTRAINED_M": 0, "GGA": "--", "VOSKOWN": 0, "LHFCALC": false, "PRECFOCK": "", "LSYMGRAD": false, "LHFONE": false, "LRHFCALC": false, "LTHOMAS": false, "LMODELHF": false, "LFOCKACE": false, "ENCUT4O": -1.0, "EXXOEP": 0, "FOURORBIT": 0, "AEXX": 0.0, "HFALPHA": 0.0, "MCALPHA": 0.0, "ALDAX": 1.0, "AGGAX": 1.0, "ALDAC": 1.0, "AGGAC": 1.0, "NKREDX": 1, "NKREDY": 1, "NKREDZ": 1, "SHIFTRED": false, "ODDONLY": false, "EVENONLY": false, "LMAXFOCK": 0, "NMAXFOCKAE": 0, "LFOCKAEDFT": false, "HFSCREEN": 0.0, "HFSCREENC": 0.0, "NBANDSGWLOW": 0, "LUSE_VDW": false, "Zab_VDW": -0.8491, "PARAM1": 0.1234, "PARAM2": 1.0, "PARAM3": 0.0, "MODEL_GW": 0, "MODEL_EPS0": 24.8498827, "MODEL_ALPHA": 1.0, "LEPSILON": false, "LRPA": false, "LNABLA": false, "LVEL": false, "CSHIFT": 0.1, "OMEGAMAX": -1.0, "DEG_THRESHOLD": 0.002, "RTIME": -0.1, "WPLASMAI": 0.0, "DFIELD": [0.0, 0.0, 0.0], "WPLASMA": [0.0, 0.0, 0.0, 0.0, 0.0, 0.0, 0.0, 0.0, 0.0], "NUCIND": false, "MAGPOS": [0.0, 0.0, 0.0], "LNICSALL": true, "ORBITALMAG": false, "LMAGBLOCH": false, "LCHIMAG": false, "LGAUGE": true, "MAGATOM": 0, "MAGDIPOL": [0.0, 0.0, 0.0], "AVECCONST": [0.0, 0.0, 0.0], "LFINITE_TEMPERATURE": false, "LADDER": false, "LRPAFORCE": false, "LFXC": false, "LHARTREE": true, "IBSE": 0, "KPOINT": [-1, 0, 0, 0], "LTCTC": false, "LTCTE": false, "LTETE": false, "LTRIPLET": false, "LFXCEPS": false, "LFXHEG": false, "NATURALO": 2, "LHOLEGF": false, "L2ORDER": false, "LDMP1": false, "LMP2LT": false, "LSMP2LT": false, "LGWLF": false, "ENCUTGW": -2.0, "ENCUTGWSOFT": -2.0, "ENCUTLF": -1.0, "LESF_SPLINES": false, "LMAXMP2": -1, "SCISSOR": 0.0, "NOMEGA": 0, "NOMEGAR": 0, "NBANDSGW": -1, "NBANDSO": -1, "NBANDSV": -1, "NELMGW": 1, "NELMHF": 1, "DIM": 3, "IESPILON": 4, "ANTIRES": 0, "OMEGAMIN": -30.0, "OMEGATL": -200.0, "OMEGAGRID": 0, "LSELFENERGY": false, "LSPECTRAL": false, "LSPECTRALGW": false, "LSINGLES": false, "LFERMIGW": false, "ODDONLYGW": false, "EVENONLYGW": false, "NKREDLFX": 1, "NKREDLFY": 1, "NKREDLFZ": 1, "MAXMEM": 2800, "TELESCOPE": 0, "NTAUPAR": -1, "NOMEGAPAR": -1, "DAMP_NEWTON": 0.80000001, "LAMBDA": 1.0, "OFIELD_KAPPA": 0.0, "OFIELD_K": [0.0, 0.0, 0.0], "OFIELD_Q6_NEAR": 0.0, "OFIELD_Q6_FAR": 0.0, "OFIELD_A": 0.0, "KPOINTS_OPT_MODE": 1, "LKPOINTS_OPT": false, "@module": "pymatgen.io.vasp.inputs", "@class": "Incar"}, "relaxed_structures": {"@module": "pymatgen.core.structure", "@class": "Structure", "charge": 0, "lattice": {"matrix": [[8.106791, 0.0, 0.0], [0.0, 14.48087, 0.0], [0.0, 0.0, 45.158492]], "a": 8.106791, "b": 14.48087, "c": 45.158492, "alpha": 90.0, "beta": 90.0, "gamma": 90.0, "volume": 5301.308309094782}, "sites": [{"species": [{"element": "Li", "occu": 1}], "abc": [0.96505539, 0.73368726, 0.042208169999999996], "xyz": [7.823502350153489, 10.6244298327162, 1.9060573072796398], "label": "Li", "properties": {}}, {"species": [{"element": "Li", "occu": 1}], "abc": [0.03045228, 0.03595544, 0.05627729], "xyz": [0.24687026943348, 0.5206660524328, 2.54139755024668], "label": "Li", "properties": {}}, {"species": [{"element": "Li", "occu": 1}], "abc": [0.03131157, 0.50427934, 0.08916266], "xyz": [0.25383635387187, 7.3024035662258, 4.026451268308721], "label": "Li", "properties": {}}, {"species": [{"element": "Li", "occu": 1}], "abc": [0.02091713, 0.41690514, 0.013934910000000002], "xyz": [0.16957080122982998, 6.0371491346718, 0.6292795217557201], "label": "Li", "properties": {}}, {"species": [{"element": "Li", "occu": 1}], "abc": [0.74100488, 0.27990608, 0.06441796999999999], "xyz": [6.007171692140079, 4.0532835566896, 2.9090183829012397], "label": "Li", "properties": {}}, {"species": [{"element": "Li", "occu": 1}], "abc": [0.46939831, 0.49820314, 0.09159786], "xyz": [3.8053139949232095, 7.214414903931799, 4.13642122802712], "label": "Li", "properties": {}}, {"species": [{"element": "Li", "occu": 1}], "abc": [0.44306299, 0.03531399, 0.06932147999999999], "xyz": [3.59181905976509, 0.5113772983713001, 3.13045350000816], "label": "Li", "properties": {}}, {"species": [{"element": "Li", "occu": 1}], "abc": [0.51438684, 0.73315847, 0.04669566000000001], "xyz": [4.17002660503044, 10.6167724934689, 2.1087055885447206], "label": "Li", "properties": {}}, {"species": [{"element": "Li", "occu": 1}], "abc": [0.46528076, 0.42162223, 0.01492876], "xyz": [3.77193387764116, 6.1054567017401, 0.67416028902992], "label": "Li", "properties": {}}, {"species": [{"element": "Li", "occu": 1}], "abc": [0.54165254, 0.94644835, 0.012874129999999998], "xyz": [4.3910639363991395, 13.7053955180645, 0.5813762966119599], "label": "Li", "properties": {}}, {"species": [{"element": "Li", "occu": 1}], "abc": [0.95363803, 0.54688639, 0.16910723], "xyz": [7.73094419886173, 7.919390718359299, 7.63662749309716], "label": "Li", "properties": {}}, {"species": [{"element": "Li", "occu": 1}], "abc": [0.02264235, 0.85291609, 0.18459383999999998], "xyz": [0.18355679919884998, 12.3509670201983, 8.33597944688928], "label": "Li", "properties": {}}, {"species": [{"element": "Li", "occu": 1}], "abc": [0.0293862, 0.32105121, 0.21342955], "xyz": [0.2382277816842, 4.6491008353527, 9.638156626238601], "label": "Li", "properties": {}}, {"species": [{"element": "Li", "occu": 1}], "abc": [0.96721234, 0.07845249, 0.14381987], "xyz": [7.840988293000939, 1.1360603088663, 6.4946884488360395], "label": "Li", "properties": {}}, {"species": [{"element": "Li", "occu": 1}], "abc": [0.53756502, 0.07763066, 0.14871173999999998], "xyz": [4.35792726605082, 1.1241594954742, 6.715597921096079], "label": "Li", "properties": {}}, {"species": [{"element": "Li", "occu": 1}], "abc": [0.46350896, 0.3091228, 0.2157712], "xyz": [3.75757026534736, 4.476367080836, 9.7439020090304], "label": "Li", "properties": {}}, {"species": [{"element": "Li", "occu": 1}], "abc": [0.45732379, 0.85159426, 0.19092679999999998], "xyz": [3.7074283848578897, 12.3318257718062, 8.6219663703856], "label": "Li", "properties": {}}, {"species": [{"element": "Li", "occu": 1}], "abc": [0.52248203, 0.54088458, 0.17584847], "xyz": [4.23565261846573, 7.832479287984599, 7.941051725707241], "label": "Li", "properties": {}}, {"species": [{"element": "Li", "occu": 1}], "abc": [0.0571818, 0.79756971, 0.10545694], "xyz": [0.4635609016037999, 11.549503286447699, 4.76227638133448], "label": "Li", "properties": {}}, {"species": [{"element": "Li", "occu": 1}], "abc": [0.03154406, 0.27942208, 0.12170576], "xyz": [0.25572110171145995, 4.0462748156096, 5.49604858931392], "label": "Li", "properties": {}}, {"species": [{"element": "Li", "occu": 1}], "abc": [0.45161612, 0.27429765, 0.12362037000000001], "xyz": [3.6611574970709198, 3.9720686109555, 5.582509489682041], "label": "Li", "properties": {}}, {"species": [{"element": "Li", "occu": 1}], "abc": [0.54563084, 0.78462866, 0.12509029], "xyz": [4.42331518303444, 11.3621056237342, 5.64888886024268], "label": "Li", "properties": {}}, {"species": [{"element": "Li", "occu": 1}], "abc": [0.95431871, 0.35665156, 0.29510386], "xyz": [7.736462329359609, 5.164624875657199, 13.32644530097912], "label": "Li", "properties": {}}, {"species": [{"element": "Li", "occu": 1}], "abc": [0.0196624, 0.66632856, 0.30936888], "xyz": [0.15939896735839998, 9.649017254647198, 13.97063209252896], "label": "Li", "properties": {}}, {"species": [{"element": "Li", "occu": 1}], "abc": [0.03911924, 0.13033985, 0.33703349000000005], "xyz": [0.31713150275884, 1.8874344236695, 15.219924161897083], "label": "Li", "properties": {}}, {"species": [{"element": "Li", "occu": 1}], "abc": [0.96513663, 0.8988541, 0.26975834000000004], "xyz": [7.82416094585433, 13.016189371067, 12.181879838823283], "label": "Li", "properties": {}}, {"species": [{"element": "Li", "occu": 1}], "abc": [0.53095972, 0.88662923, 0.27238262], "xyz": [4.30437947945852, 12.8391626178301, 12.300388366209042], "label": "Li", "properties": {}}, {"species": [{"element": "Li", "occu": 1}], "abc": [0.46818798, 0.12677766, 0.34291367], "xyz": [3.7955021025721796, 1.8358508133641998, 15.485464223385641], "label": "Li", "properties": {}}, {"species": [{"element": "Li", "occu": 1}], "abc": [0.45161536, 0.66114226, 0.31659377], "xyz": [3.66115133590976, 9.5739151185662, 14.29689722979484], "label": "Li", "properties": {}}, {"species": [{"element": "Li", "occu": 1}], "abc": [0.52081121, 0.35502825, 0.30132621000000004], "xyz": [4.22210762992711, 5.141117934577499, 13.607437243675323], "label": "Li", "properties": {}}, {"species": [{"element": "Li", "occu": 1}], "abc": [0.04779473, 0.61116651, 0.23328658], "xyz": [0.38746188701143, 8.8502227796637, 10.53487015663736], "label": "Li", "properties": {}}, {"species": [{"element": "Li", "occu": 1}], "abc": [0.93754861, 0.12201426, 0.23532215999999997], "xyz": [7.60051063361051, 1.7668726372062, 10.626793879782719], "label": "Li", "properties": {}}, {"species": [{"element": "Li", "occu": 1}], "abc": [0.43788069, 0.0864877, 0.25045022], "xyz": [3.54980723676579, 1.2524171402989999, 11.30995425626824], "label": "Li", "properties": {}}, {"species": [{"element": "Li", "occu": 1}], "abc": [0.54551838, 0.5958384, 0.25212725], "xyz": [4.42240349331858, 8.628258411408, 11.385686402107002], "label": "Li", "properties": {}}, {"species": [{"element": "Li", "occu": 1}], "abc": [0.94438648, 0.17242393, 0.41693714000000004], "xyz": [7.65594381658568, 2.4968485152191, 18.828252501192882], "label": "Li", "properties": {}}, {"species": [{"element": "Li", "occu": 1}], "abc": [0.0123769, 0.47490021, 0.43907449000000004], "xyz": [0.10033694152789999, 6.8769682039827, 19.827941844069084], "label": "Li", "properties": {}}, {"species": [{"element": "Li", "occu": 1}], "abc": [0.24189983, 0.92856824, 0.42141531000000004], "xyz": [1.96103136474553, 13.4464759695688, 19.03047990531252], "label": "Li", "properties": {}}, {"species": [{"element": "Li", "occu": 1}], "abc": [0.96586013, 0.70867904, 0.39430546], "xyz": [7.830026209142829, 10.2622890499648, 17.80623996096632], "label": "Li", "properties": {}}, {"species": [{"element": "Li", "occu": 1}], "abc": [0.52494408, 0.70389014, 0.39640649], "xyz": [4.25561194324728, 10.1929416116218, 17.90111930741308], "label": "Li", "properties": {}}, {"species": [{"element": "Li", "occu": 1}], "abc": [0.51460029, 0.79149764, 0.47221153000000005], "xyz": [4.171756999569389, 11.461574430146799, 21.324360599812763], "label": "Li", "properties": {}}, {"species": [{"element": "Li", "occu": 1}], "abc": [0.46028186, 0.4752559, 0.44416093], "xyz": [3.7314088401112597, 6.882118904633, 20.05763780411756], "label": "Li", "properties": {}}, {"species": [{"element": "Li", "occu": 1}], "abc": [0.53100462, 0.17251718, 0.42942219000000004], "xyz": [4.30474347437442, 2.4981988563465998, 19.392058531737483], "label": "Li", "properties": {}}, {"species": [{"element": "Li", "occu": 1}], "abc": [0.04614769, 0.42413185, 0.36089190000000004], "xyz": [0.37410967796278993, 6.1417981827095, 16.2973339790148], "label": "Li", "properties": {}}, {"species": [{"element": "Li", "occu": 1}], "abc": [0.94941119, 0.93333039, 0.36209229000000004], "xyz": [7.6966780903912895, 13.5154360446393, 16.351541781226683], "label": "Li", "properties": {}}, {"species": [{"element": "Li", "occu": 1}], "abc": [0.52998967, 0.92840704, 0.36401673], "xyz": [4.2965154868489694, 13.444141653324799, 16.43844658957116], "label": "Li", "properties": {}}, {"species": [{"element": "Li", "occu": 1}], "abc": [0.55524072, 0.41082092, 0.38057650000000004], "xyz": [4.5012204717295194, 5.9490443358004, 17.186260830638002], "label": "Li", "properties": {}}, {"species": [{"element": "Li", "occu": 1}], "abc": [0.04140574, 0.26329169, 0.47231985000000004], "xyz": [0.33566768038034, 3.8126927349703004, 21.329252167666205], "label": "Li", "properties": {}}, {"species": [{"element": "Li", "occu": 1}], "abc": [0.96049891, 0.7860048, 0.47074586], "xyz": [7.7865639190978095, 11.382033328175998, 21.25817315284312], "label": "Li", "properties": {}}, {"species": [{"element": "P", "occu": 1}], "abc": [0.23639742, 0.84429319, 0.0220954], "xyz": [1.9164244768792198, 12.2260999262753, 0.9977949441368001], "label": "P", "properties": {}}, {"species": [{"element": "P", "occu": 1}], "abc": [0.74909341, 0.92828534, 0.08658421999999999], "xyz": [6.072743714347309, 13.4423793314458, 3.9100128061962396], "label": "P", "properties": {}}, {"species": [{"element": "P", "occu": 1}], "abc": [0.74580075, 0.48472561, 0.04722449], "xyz": [6.046050807893249, 7.0192485440807, 2.1325867538690804], "label": "P", "properties": {}}, {"species": [{"element": "P", "occu": 1}], "abc": [0.24488286, 0.27821004, 0.06334967], "xyz": [1.98521416550226, 4.028723421934799, 2.86077556589764], "label": "P", "properties": {}}, {"species": [{"element": "P", "occu": 1}], "abc": [0.24658461, 0.65525317, 0.1493991], "xyz": [1.99900989708651, 9.488635971857901, 6.746638062157201], "label": "P", "properties": {}}, {"species": [{"element": "P", "occu": 1}], "abc": [0.74559872, 0.73989596, 0.21114196], "xyz": [6.04441299290752, 10.7143372102852, 9.53485251152432], "label": "P", "properties": {}}, {"species": [{"element": "P", "occu": 1}], "abc": [0.74658333, 0.29953756, 0.17145713999999998], "xyz": [6.052395020394029, 4.3375644664771995, 7.742745885032879], "label": "P", "properties": {}}, {"species": [{"element": "P", "occu": 1}], "abc": [0.23943659, 0.09742693, 0.18934942], "xyz": [1.94106239288269, 1.4108267078291, 8.55073426827464], "label": "P", "properties": {}}, {"species": [{"element": "P", "occu": 1}], "abc": [0.24392043, 0.46707689, 0.27449259000000004], "xyz": [1.9774119466401299, 6.7636797240943, 12.395671429574282], "label": "P", "properties": {}}, {"species": [{"element": "P", "occu": 1}], "abc": [0.74417864, 0.55215644, 0.33638375000000004], "xyz": [6.032900701144239, 7.995705627302799, 15.190582883305003], "label": "P", "properties": {}}, {"species": [{"element": "P", "occu": 1}], "abc": [0.73910537, 0.10990642, 0.29670273], "xyz": [5.9917727615676695, 1.5915405801854, 13.398647859083162], "label": "P", "properties": {}}, {"species": [{"element": "P", "occu": 1}], "abc": [0.24586458, 0.90738177, 0.31413893000000004], "xyz": [1.99317276436278, 13.1396774517399, 14.186040357293562], "label": "P", "properties": {}}, {"species": [{"element": "P", "occu": 1}], "abc": [0.24797288, 0.27957413, 0.3992991], "xyz": [2.01026431182808, 4.0484766318931, 18.0317452129572], "label": "P", "properties": {}}, {"species": [{"element": "P", "occu": 1}], "abc": [0.73352745, 0.36386052, 0.46383902000000005], "xyz": [5.946553729912949, 5.2690168882524, 20.946270673957844], "label": "P", "properties": {}}, {"species": [{"element": "P", "occu": 1}], "abc": [0.74098629, 0.92937658, 0.42239261], "xyz": [6.00702098689539, 13.4581814360246, 19.074613299544122], "label": "P", "properties": {}}, {"species": [{"element": "P", "occu": 1}], "abc": [0.24158839, 0.72353249, 0.43861937], "xyz": [1.9585065857564898, 10.477379928466299, 19.807389311190043], "label": "P", "properties": {}}, {"species": [{"element": "S", "occu": 1}], "abc": [0.44558967, 0.80142751, 9.99999999999994e-05], "xyz": [3.6123023264489698, 11.6053675867337, 0.004515849199999973], "label": "S", "properties": {}}, {"species": [{"element": "S", "occu": 1}], "abc": [0.53155661, 0.5579284, 0.04135555], "xyz": [4.30921834193851, 8.079288629708, 1.8675542738306], "label": "S", "properties": {}}, {"species": [{"element": "S", "occu": 1}], "abc": [0.45541643, 0.20433012, 0.07311484000000001], "xyz": [3.6919658159761295, 2.9588779048044, 3.3017559172212807], "label": "S", "properties": {}}, {"species": [{"element": "S", "occu": 1}], "abc": [0.0358142, 0.20290474, 0.07238591], "xyz": [0.29033823423219995, 2.9382371623237997, 3.2688385376477203], "label": "S", "properties": {}}, {"species": [{"element": "S", "occu": 1}], "abc": [0.95790865, 0.55793365, 0.0391557], "xyz": [7.76556522264215, 8.0793646542755, 1.7682123652044002], "label": "S", "properties": {}}, {"species": [{"element": "S", "occu": 1}], "abc": [0.02537058, 0.82298316, 0.0002508300000000005], "xyz": [0.20567398960878, 11.9175121521492, 0.011327104548360023], "label": "S", "properties": {}}, {"species": [{"element": "S", "occu": 1}], "abc": [0.7494878, 0.78673736, 0.07978988000000001], "xyz": [6.0759409516498, 11.3926414343032, 3.6031906576609605], "label": "S", "properties": {}}, {"species": [{"element": "S", "occu": 1}], "abc": [0.26876911, 0.98711011, 0.02928115], "xyz": [2.1788550020260096, 14.2942131785957, 1.3222925780258], "label": "S", "properties": {}}, {"species": [{"element": "S", "occu": 1}], "abc": [0.24448722, 0.383886, 0.09509459], "xyz": [1.9820067947110198, 5.55900326082, 4.294328281758281], "label": "S", "properties": {}}, {"species": [{"element": "S", "occu": 1}], "abc": [0.74190168, 0.37254529, 0.018449060000000003], "xyz": [6.01444186230888, 5.394779913602299, 0.8331317284175201], "label": "S", "properties": {}}, {"species": [{"element": "S", "occu": 1}], "abc": [0.23739401, 0.769623, 0.062032670000000005], "xyz": [1.9245036237219098, 11.14481061201, 2.8013018319336402], "label": "S", "properties": {}}, {"species": [{"element": "S", "occu": 1}], "abc": [0.73195625, 0.00933852, 0.049366219999999995], "xyz": [5.93381633989375, 0.1352298941124, 2.22930405094024], "label": "S", "properties": {}}, {"species": [{"element": "S", "occu": 1}], "abc": [0.75170655, 0.43422764, 0.08999203], "xyz": [6.093927894181049, 6.2879940052468, 4.06390436681876], "label": "S", "properties": {}}, {"species": [{"element": "S", "occu": 1}], "abc": [0.24707735, 0.31689202, 0.01973096], "xyz": [2.00300443728385, 4.5888721456574, 0.89102039931232], "label": "S", "properties": {}}, {"species": [{"element": "S", "occu": 1}], "abc": [0.46469448, 0.62028281, 0.12886456999999998], "xyz": [3.7671810282136797, 8.982234734844699, 5.81932965342844], "label": "S", "properties": {}}, {"species": [{"element": "S", "occu": 1}], "abc": [0.54575086, 0.9524006, 0.11284795], "xyz": [4.424288160090259, 13.791589276522, 5.096043247291401], "label": "S", "properties": {}}, {"species": [{"element": "S", "occu": 1}], "abc": [0.53015051, 0.37162828, 0.16611211], "xyz": [4.29781938311341, 5.381500811003599, 7.501372390538121], "label": "S", "properties": {}}, {"species": [{"element": "S", "occu": 1}], "abc": [0.44938381, 0.02274654, 0.19766666], "xyz": [3.6430606264537095, 0.32938968868979995, 8.926328284276721], "label": "S", "properties": {}}, {"species": [{"element": "S", "occu": 1}], "abc": [0.02461806, 0.02311574, 0.19377498999999998], "xyz": [0.19957346724546, 0.33473602589379997, 8.750586335715079], "label": "S", "properties": {}}, {"species": [{"element": "S", "occu": 1}], "abc": [0.95657526, 0.37638358, 0.16431163999999998], "xyz": [7.754755708590659, 5.450361692114599, 7.42006588044688], "label": "S", "properties": {}}, {"species": [{"element": "S", "occu": 1}], "abc": [0.9708955, 0.96017237, 0.10603388], "xyz": [7.870846901340499, 13.9041312675619, 4.78833012170896], "label": "S", "properties": {}}, {"species": [{"element": "S", "occu": 1}], "abc": [0.03763738, 0.6311787, 0.1248776], "xyz": [0.30511837344757997, 9.140016701469, 5.639284100579201], "label": "S", "properties": {}}, {"species": [{"element": "S", "occu": 1}], "abc": [0.75320124, 0.59668966, 0.20666547], "xyz": [6.106045033620839, 8.6405853968042, 9.33270097367124], "label": "S", "properties": {}}, {"species": [{"element": "S", "occu": 1}], "abc": [0.25429698, 0.7978862, 0.15419016], "xyz": [2.06153246879118, 11.554086336993999, 6.96299510683872], "label": "S", "properties": {}}, {"species": [{"element": "S", "occu": 1}], "abc": [0.23302402, 0.19781137, 0.22225309999999998], "xyz": [1.88907702811982, 2.8644807334918996, 10.0366148383252], "label": "S", "properties": {}}, {"species": [{"element": "S", "occu": 1}], "abc": [0.74677131, 0.19839181, 0.13860564], "xyz": [6.05391893496621, 2.8728860096747, 6.2592216850948805], "label": "S", "properties": {}}, {"species": [{"element": "S", "occu": 1}], "abc": [0.23516823, 0.58003587, 0.18787787], "xyz": [1.9064596904499298, 8.3994240288069, 8.48428128937204], "label": "S", "properties": {}}, {"species": [{"element": "S", "occu": 1}], "abc": [0.73608825, 0.81350863, 0.17253089], "xyz": [5.96731360030575, 11.7803127149081, 7.79123481581788], "label": "S", "properties": {}}, {"species": [{"element": "S", "occu": 1}], "abc": [0.74948148, 0.25082753, 0.21406772999999998], "xyz": [6.07588971673068, 3.6322008543511, 9.66697587266316], "label": "S", "properties": {}}, {"species": [{"element": "S", "occu": 1}], "abc": [0.24967257, 0.14636833, 0.14644732], "xyz": [2.02404334342287, 2.1195407588470996, 6.61334012864144], "label": "S", "properties": {}}, {"species": [{"element": "S", "occu": 1}], "abc": [0.46058607, 0.43210845, 0.25342699], "xyz": [3.73387500700137, 6.257306290351499, 11.444380700499082], "label": "S", "properties": {}}, {"species": [{"element": "S", "occu": 1}], "abc": [0.53517706, 0.76413712, 0.23526814999999998], "xyz": [4.3385685734144595, 11.0653702968944, 10.6243548696298], "label": "S", "properties": {}}, {"species": [{"element": "S", "occu": 1}], "abc": [0.52365615, 0.18367149, 0.29263920000000004], "xyz": [4.245170963914649, 2.6597229693962996, 13.215144972086403], "label": "S", "properties": {}}, {"species": [{"element": "S", "occu": 1}], "abc": [0.45624415, 0.83100716, 0.32140393], "xyz": [3.69867596902265, 12.0337066530292, 14.51411680167356], "label": "S", "properties": {}}, {"species": [{"element": "S", "occu": 1}], "abc": [0.02927123, 0.83540386, 0.31943727], "xyz": [0.23729574392292999, 12.0973746941582, 14.425305401796841], "label": "S", "properties": {}}, {"species": [{"element": "S", "occu": 1}], "abc": [0.94825891, 0.18528852, 0.28831962], "xyz": [7.687336797257809, 2.6831389706124003, 13.02007925321304], "label": "S", "properties": {}}, {"species": [{"element": "S", "occu": 1}], "abc": [0.96224378, 0.77468153, 0.23226438000000002], "xyz": [7.800709215509979, 11.2180625273311, 10.488709146114962], "label": "S", "properties": {}}, {"species": [{"element": "S", "occu": 1}], "abc": [0.03318612, 0.44314891, 0.25044173000000003], "xyz": [0.26903293894091995, 6.4171817563517, 11.309570860671162], "label": "S", "properties": {}}, {"species": [{"element": "S", "occu": 1}], "abc": [0.75224514, 0.40951693, 0.33180731], "xyz": [6.09829413074574, 5.9301614261291, 14.983917754176522], "label": "S", "properties": {}}, {"species": [{"element": "S", "occu": 1}], "abc": [0.25201477, 0.610289, 0.27891055000000003], "xyz": [2.04303106930307, 8.83751567143, 12.595179840890601], "label": "S", "properties": {}}, {"species": [{"element": "S", "occu": 1}], "abc": [0.24486211, 0.0083693, 0.34711449], "xyz": [1.9850459495890098, 0.121194745291, 15.675166919749081], "label": "S", "properties": {}}, {"species": [{"element": "S", "occu": 1}], "abc": [0.73348229, 0.01003036, 0.2636461], "xyz": [5.94618762723139, 0.1452483392132, 11.905860297681201], "label": "S", "properties": {}}, {"species": [{"element": "S", "occu": 1}], "abc": [0.23410713, 0.39386112, 0.31318895], "xyz": [1.8978575745198298, 5.7034516767744, 14.143140693063401], "label": "S", "properties": {}}, {"species": [{"element": "S", "occu": 1}], "abc": [0.73217279, 0.62685747, 0.29779734], "xyz": [5.93557178441689, 9.0774415315989, 13.448078796011282], "label": "S", "properties": {}}, {"species": [{"element": "S", "occu": 1}], "abc": [0.7504221, 0.06071362, 0.33958454000000005], "xyz": [6.0835151264811, 0.8791860384494, 15.335125732913683], "label": "S", "properties": {}}, {"species": [{"element": "S", "occu": 1}], "abc": [0.25027887, 0.95600005, 0.27153475000000005], "xyz": [2.0289584908061697, 13.843712444043499, 12.262099835597002], "label": "S", "properties": {}}, {"species": [{"element": "S", "occu": 1}], "abc": [0.46966964, 0.24815544, 0.37975515000000004], "xyz": [3.80751361052524, 3.5935066664328, 17.1491699032338], "label": "S", "properties": {}}, {"species": [{"element": "S", "occu": 1}], "abc": [0.53503069, 0.57644092, 0.36083468], "xyz": [4.33738198241579, 8.3473660252004, 16.29475001010256], "label": "S", "properties": {}}, {"species": [{"element": "S", "occu": 1}], "abc": [0.53259003, 0.00543243, 0.41329677000000004], "xyz": [4.31759606189373, 0.0786663126141, 18.663858881670844], "label": "S", "properties": {}}, {"species": [{"element": "S", "occu": 1}], "abc": [0.45431675, 0.65085619, 0.44664653000000004], "xyz": [3.6830509400492497, 9.424963876085299, 20.169883751832764], "label": "S", "properties": {}}, {"species": [{"element": "S", "occu": 1}], "abc": [0.0282943, 0.64956228, 0.44455094], "xyz": [0.2293759765913, 9.4062269335836, 20.07525006758248], "label": "S", "properties": {}}, {"species": [{"element": "S", "occu": 1}], "abc": [0.95211744, 0.00274421, 0.41278092], "xyz": [7.718617093535039, 0.0397385482627, 18.640563873572642], "label": "S", "properties": {}}, {"species": [{"element": "S", "occu": 1}], "abc": [0.96246049, 0.58756602, 0.35675284], "xyz": [7.80246603818759, 8.508467152037401, 16.11042027111728], "label": "S", "properties": {}}, {"species": [{"element": "S", "occu": 1}], "abc": [0.04430851, 0.25521118, 0.37316657000000003], "xyz": [0.35919983009141, 3.6956799201265995, 16.85163956601244], "label": "S", "properties": {}}, {"species": [{"element": "S", "occu": 1}], "abc": [0.7683651, 0.22121835, 0.45655102000000003], "xyz": [6.2289752773941, 3.2034341679645, 20.61715558426184], "label": "S", "properties": {}}, {"species": [{"element": "S", "occu": 1}], "abc": [0.24745028, 0.42120531, 0.40615374000000004], "xyz": [2.0060277028514797, 6.099419337419699, 18.34129041856008], "label": "S", "properties": {}}, {"species": [{"element": "S", "occu": 1}], "abc": [0.23647987, 0.83577528, 0.46735445000000003], "xyz": [1.91709288179717, 12.1027531788936, 21.105022191489404], "label": "S", "properties": {}}, {"species": [{"element": "S", "occu": 1}], "abc": [0.74022542, 0.82355702, 0.39068037], "xyz": [6.00085277282722, 11.9258221442074, 17.64253636320204], "label": "S", "properties": {}}, {"species": [{"element": "S", "occu": 1}], "abc": [0.23211463, 0.19884036, 0.43658141], "xyz": [1.8817047934523297, 2.8793814039131997, 19.715358110833723], "label": "S", "properties": {}}, {"species": [{"element": "S", "occu": 1}], "abc": [0.73369081, 0.43930245, 0.42407852], "xyz": [5.94787805529071, 6.3614816691315, 19.150746452791843], "label": "S", "properties": {}}, {"species": [{"element": "S", "occu": 1}], "abc": [0.74150859, 0.89071918, 0.46602168000000005], "xyz": [6.01125516383469, 12.8983886520866, 21.044836308106564], "label": "S", "properties": {}}, {"species": [{"element": "S", "occu": 1}], "abc": [0.24706491, 0.77392052, 0.39585555], "xyz": [2.00290358880381, 11.2070424404524, 17.8762396878306], "label": "S", "properties": {}}, {"species": [{"element": "S", "occu": 1}], "abc": [0.52169858, 0.38349324, 0.48559701], "xyz": [4.22930135305678, 5.5533157543188, 21.928828691308922], "label": "S", "properties": {}}, {"species": [{"element": "S", "occu": 1}], "abc": [0.94218153, 0.40722687, 0.48588137], "xyz": [7.638068747770229, 5.8969993649769, 21.94166996009404], "label": "S", "properties": {}}]}, "formula": "(Li3PS4)16.0", "bandgap": 2.0267, "slab_thickness": 21.93715411089404}