{"miller": "102_0.38", "final_energy": -622.10518775, "gamma": 0.037984739480825286, "work_function": "Not calculated", "ionization_potentail": "Not calculated", "electron_affinity": "Not calculated", "is_stochiometric": true, "incar_parameters": {"SYSTEM": "unknown system", "LCOMPAT": false, "PREC": "normal", "ENMAX": 520.0, "ENAUG": 628.945, "EDIFF": 1e-05, "IALGO": 38, "IWAVPR": 11, "NBANDS": 416, "NBANDSLOW": -1, "NBANDSHIGH": -1, "NELECT": 684.0, "TURBO": 0, "IRESTART": 0, "NREBOOT": 0, "NMIN": 0, "EREF": 0.0, "ISMEAR": 0, "SIGMA": 0.05, "KSPACING": 0.5, "KGAMMA": true, "KBLOWUP": true, "LREAL": true, "ROPT": [-0.0005, -0.0005, -0.0005], "LMAXPAW": -100, "LMAXMIX": 2, "NLSPLINE": false, "ISTART": 0, "ICHARG": 2, "INIWAV": 1, "ISPIN": 1, "LNONCOLLINEAR": false, "MAGMOM": [0.6, 0.6, 0.6, 0.6, 0.6, 0.6, 0.6, 0.6, 0.6, 0.6, 0.6, 0.6, 0.6, 0.6, 0.6, 0.6, 0.6, 0.6, 0.6, 0.6, 0.6, 0.6, 0.6, 0.6, 0.6, 0.6, 0.6, 0.6, 0.6, 0.6, 0.6, 0.6, 0.6, 0.6, 0.6, 0.6, 0.6, 0.6, 0.6, 0.6, 0.6, 0.6, 0.6, 0.6, 0.6, 0.6, 0.6, 0.6, 0.6, 0.6, 0.6, 0.6, 0.6, 0.6, 0.6, 0.6, 0.6, 0.6, 0.6, 0.6, 0.6, 0.6, 0.6, 0.6, 0.6, 0.6, 0.6, 0.6, 0.6, 0.6, 0.6, 0.6, 0.6, 0.6, 0.6, 0.6, 0.6, 0.6, 0.6, 0.6, 0.6, 0.6, 0.6, 0.6, 0.6, 0.6, 0.6, 0.6, 0.6, 0.6, 0.6, 0.6, 0.6, 0.6, 0.6, 0.6, 0.6, 0.6, 0.6, 0.6, 0.6, 0.6, 0.6, 0.6, 0.6, 0.6, 0.6, 0.6, 0.6, 0.6, 0.6, 0.6, 0.6, 0.6, 0.6, 0.6, 0.6, 0.6, 0.6, 0.6, 0.6, 0.6, 0.6, 0.6, 0.6, 0.6, 0.6, 0.6, 0.6, 0.6, 0.6, 0.6, 0.6, 0.6, 0.6, 0.6, 0.6, 0.6, 0.6, 0.6, 0.6, 0.6, 0.6, 0.6], "NUPDOWN": -1.0, "LSORBIT": false, "SAXIS": [0.0, 0.0, 1.0], "LSPIRAL": false, "QSPIRAL": [0.0, 0.0, 0.0], "LZEROZ": false, "LASPH": false, "LMETAGGA": false, "NELM": 100, "NELMDL": -5, "NELMIN": 6, "ENINI": 520.0, "LDIAG": true, "LSUBROT": false, "WEIMIN": 0.001, "EBREAK": 1e-08, "DEPER": 0.3, "NRMM": 4, "TIME": 0.4, "AMIX": 0.4, "BMIX": 1.0, "AMIN": 0.1, "AMIX_MAG": 1.6, "BMIX_MAG": 1.0, "IMIX": 4, "MIXFIRST": false, "MAXMIX": -45, "WC": 100.0, "INIMIX": 1, "MIXPRE": 1, "MREMOVE": 5, "LDIPOL": false, "LMONO": false, "IDIPOL": 0, "EPSILON": 1.0, "DIPOL": [-100.0, -100.0, -100.0], "EFIELD": 0.0, "NGX": 48, "NGY": 108, "NGZ": 252, "NGXF": 96, "NGYF": 216, "NGZF": 504, "ADDGRID": false, "NSW": 150, "IBRION": 2, "MDALGO": 0, "ISIF": 2, "PSTRESS": 0.0, "EDIFFG": -0.01, "NFREE": 1, "POTIM": 0.5, "SMASS": -3.0, "SCALEE": 1.0, "TEBEG": 0.0001, "TEEND": 0.0001, "NBLOCK": 1, "KBLOCK": 150, "NPACO": 256, "APACO": 10.0, "ISYM": 0, "SYMPREC": 1e-05, "LORBIT": 11, "RWIGS": [-1.0, -1.0, -1.0], "NEDOS": 301, "EMIN": 10.0, "EMAX": -10.0, "EFERMI": 0.0, "NWRITE": 2, "LWAVE": false, "LDOWNSAMPLE": false, "LCHARG": false, "LPARD": false, "LVTOT": false, "LVHAR": false, "LELF": false, "LOPTICS": false, "STM": [0.0, 0.0, 0.0, 0.0, 0.0, 0.0, 0.0], "NPAR": 2, "NSIM": 4, "NBLK": -1, "LPLANE": true, "LSCALAPACK": true, "LSCAAWARE": false, "LSCALU": false, "LASYNC": false, "LORBITALREAL": false, "IDIOT": 3, "PHON_NSTRUCT": -1, "LMUSIC": false, "POMASS": [7.01, 30.974, 32.066], "DARWINR": [0.0, 0.0, 0.0], "DARWINV": [1.0, 1.0, 1.0], "LCORR": true, "GGA_COMPAT": true, "LBERRY": false, "ICORELEVEL": 0, "LDAU": false, "I_CONSTRAINED_M": 0, "GGA": "--", "VOSKOWN": 0, "LHFCALC": false, "PRECFOCK": "", "LSYMGRAD": false, "LHFONE": false, "LRHFCALC": false, "LTHOMAS": false, "LMODELHF": false, "LFOCKACE": false, "ENCUT4O": -1.0, "EXXOEP": 0, "FOURORBIT": 0, "AEXX": 0.0, "HFALPHA": 0.0, "MCALPHA": 0.0, "ALDAX": 1.0, "AGGAX": 1.0, "ALDAC": 1.0, "AGGAC": 1.0, "NKREDX": 1, "NKREDY": 1, "NKREDZ": 1, "SHIFTRED": false, "ODDONLY": false, "EVENONLY": false, "LMAXFOCK": 0, "NMAXFOCKAE": 0, "LFOCKAEDFT": false, "HFSCREEN": 0.0, "HFSCREENC": 0.0, "NBANDSGWLOW": 0, "LUSE_VDW": false, "Zab_VDW": -0.8491, "PARAM1": 0.1234, "PARAM2": 1.0, "PARAM3": 0.0, "MODEL_GW": 0, "MODEL_EPS0": 27.61098108, "MODEL_ALPHA": 1.0, "LEPSILON": false, "LRPA": false, "LNABLA": false, "LVEL": false, "CSHIFT": 0.1, "OMEGAMAX": -1.0, "DEG_THRESHOLD": 0.002, "RTIME": -0.1, "WPLASMAI": 0.0, "DFIELD": [0.0, 0.0, 0.0], "WPLASMA": [0.0, 0.0, 0.0, 0.0, 0.0, 0.0, 0.0, 0.0, 0.0], "NUCIND": false, "MAGPOS": [0.0, 0.0, 0.0], "LNICSALL": true, "ORBITALMAG": false, "LMAGBLOCH": false, "LCHIMAG": false, "LGAUGE": true, "MAGATOM": 0, "MAGDIPOL": [0.0, 0.0, 0.0], "AVECCONST": [0.0, 0.0, 0.0], "LFINITE_TEMPERATURE": false, "LADDER": false, "LRPAFORCE": false, "LFXC": false, "LHARTREE": true, "IBSE": 0, "KPOINT": [-1, 0, 0, 0], "LTCTC": false, "LTCTE": false, "LTETE": false, "LTRIPLET": false, "LFXCEPS": false, "LFXHEG": false, "NATURALO": 2, "LHOLEGF": false, "L2ORDER": false, "LDMP1": false, "LMP2LT": false, "LSMP2LT": false, "LGWLF": false, "ENCUTGW": -2.0, "ENCUTGWSOFT": -2.0, "ENCUTLF": -1.0, "LESF_SPLINES": false, "LMAXMP2": -1, "SCISSOR": 0.0, "NOMEGA": 0, "NOMEGAR": 0, "NBANDSGW": -1, "NBANDSO": -1, "NBANDSV": -1, "NELMGW": 1, "NELMHF": 1, "DIM": 3, "IESPILON": 4, "ANTIRES": 0, "OMEGAMIN": -30.0, "OMEGATL": -200.0, "OMEGAGRID": 0, "LSELFENERGY": false, "LSPECTRAL": false, "LSPECTRALGW": false, "LSINGLES": false, "LFERMIGW": false, "ODDONLYGW": false, "EVENONLYGW": false, "NKREDLFX": 1, "NKREDLFY": 1, "NKREDLFZ": 1, "MAXMEM": 2800, "TELESCOPE": 0, "NTAUPAR": -1, "NOMEGAPAR": -1, "DAMP_NEWTON": 0.80000001, "LAMBDA": 1.0, "OFIELD_KAPPA": 0.0, "OFIELD_K": [0.0, 0.0, 0.0], "OFIELD_Q6_NEAR": 0.0, "OFIELD_Q6_FAR": 0.0, "OFIELD_A": 0.0, "KPOINTS_OPT_MODE": 1, "LKPOINTS_OPT": false, "@module": "pymatgen.io.vasp.inputs", "@class": "Incar"}, "relaxed_structures": {"@module": "pymatgen.core.structure", "@class": "Structure", "charge": 0, "lattice": {"matrix": [[8.106791, 0.0, 0.0], [0.0, 18.090234, 0.0], [0.0, 0.0, 45.185586]], "a": 8.106791, "b": 18.090234, "c": 45.185586, "alpha": 90.0, "beta": 90.0, "gamma": 90.0, "volume": 6626.635460197623}, "sites": [{"species": [{"element": "Li", "occu": 1}], "abc": [0.01556724, 0.95382898, 0.09256684], "xyz": [0.12620036112684, 17.25498944418132, 4.18268690956824], "label": "Li", "properties": {}}, {"species": [{"element": "Li", "occu": 1}], "abc": [0.91536442, 0.46297217, 0.10281512999999999], "xyz": [7.420668041776219, 8.37527489078778, 4.64576189871618], "label": "Li", "properties": {}}, {"species": [{"element": "Li", "occu": 1}], "abc": [0.81221966, 0.17354241, 0.12161854999999999], "xyz": [6.58449502971106, 3.1394228058239397, 5.4954054502203], "label": "Li", "properties": {}}, {"species": [{"element": "Li", "occu": 1}], "abc": [0.52147993, 0.16868912, 0.07795726], "xyz": [4.22752880320463, 3.05162565405408, 3.5225444760543603], "label": "Li", "properties": {}}, {"species": [{"element": "Li", "occu": 1}], "abc": [0.31391877, 0.46308722, 0.10718715], "xyz": [2.54487385936707, 8.37735617220948, 4.8433141844199], "label": "Li", "properties": {}}, {"species": [{"element": "Li", "occu": 1}], "abc": [0.44313412, 0.93566215, 0.09359875], "xyz": [3.59239569580892, 16.9263472384431, 4.2293143676175], "label": "Li", "properties": {}}, {"species": [{"element": "Li", "occu": 1}], "abc": [0.01046621, 0.29032627, 0.0830663], "xyz": [0.08484737703211, 5.25207016064718, 3.7533994423518], "label": "Li", "properties": {}}, {"species": [{"element": "Li", "occu": 1}], "abc": [0.3133754, 0.2952109, 0.11485289], "xyz": [2.5404688723414, 5.3404342603506, 5.18969513844354], "label": "Li", "properties": {}}, {"species": [{"element": "Li", "occu": 1}], "abc": [0.01268583, 0.47691777, 0.15993377999999997], "xyz": [0.10284137247153, 8.62755405805818, 7.226701570495079], "label": "Li", "properties": {}}, {"species": [{"element": "Li", "occu": 1}], "abc": [0.02660073, 0.72173578, 0.19191460999999999], "xyz": [0.21564655855742998, 13.05636914637252, 8.671774114811459], "label": "Li", "properties": {}}, {"species": [{"element": "Li", "occu": 1}], "abc": [0.06865661, 0.30491937, 0.16091925999999998], "xyz": [0.55658478803851, 5.51606275443258, 7.271231061786359], "label": "Li", "properties": {}}, {"species": [{"element": "Li", "occu": 1}], "abc": [0.96828484, 0.92142915, 0.17492858999999997], "xyz": [7.84968282634844, 16.6688689379211, 7.9042508473037385], "label": "Li", "properties": {}}, {"species": [{"element": "Li", "occu": 1}], "abc": [0.54091519, 0.91701712, 0.17824828999999998], "xyz": [4.38508639405529, 16.589054282806078, 8.054253437147938], "label": "Li", "properties": {}}, {"species": [{"element": "Li", "occu": 1}], "abc": [0.50603434, 0.28689832, 0.17311445999999997], "xyz": [4.10231463320294, 5.1900577430068795, 7.822278320173559], "label": "Li", "properties": {}}, {"species": [{"element": "Li", "occu": 1}], "abc": [0.46532876, 0.72118794, 0.19291497], "xyz": [3.7723230036091597, 13.04645859257796, 8.71697596762242], "label": "Li", "properties": {}}, {"species": [{"element": "Li", "occu": 1}], "abc": [0.54030013, 0.50738134, 0.15232539999999997], "xyz": [4.38010023118283, 9.17864716783356, 6.882912461684398], "label": "Li", "properties": {}}, {"species": [{"element": "Li", "occu": 1}], "abc": [0.01121304, 0.72796988, 0.10777685], "xyz": [0.09090177175464, 13.169145474151918, 4.8699601244841], "label": "Li", "properties": {}}, {"species": [{"element": "Li", "occu": 1}], "abc": [0.04760232, 0.08436307, 0.17574138999999997], "xyz": [0.38590205935511995, 1.52614767725838, 7.940977691604539], "label": "Li", "properties": {}}, {"species": [{"element": "Li", "occu": 1}], "abc": [0.46874454, 0.08459864, 0.17261270999999997], "xyz": [3.8000140181711397, 1.5304091936817599, 7.799606452398059], "label": "Li", "properties": {}}, {"species": [{"element": "Li", "occu": 1}], "abc": [0.47355738, 0.73284351, 0.1059377], "xyz": [3.83903070616758, 13.25731058128134, 4.7868570539921995], "label": "Li", "properties": {}}, {"species": [{"element": "Li", "occu": 1}], "abc": [0.95841505, 0.2622759, 0.24462499], "xyz": [7.7696705016045495, 4.7446324035606, 11.053523523394139], "label": "Li", "properties": {}}, {"species": [{"element": "Li", "occu": 1}], "abc": [0.0422484, 0.48343568, 0.29996825], "xyz": [0.34249894888439997, 8.74546457514912, 13.5542411576445], "label": "Li", "properties": {}}, {"species": [{"element": "Li", "occu": 1}], "abc": [0.03120783, 0.06020559, 0.26537095], "xyz": [0.25299535537352996, 1.08913321120806, 11.9909418831267], "label": "Li", "properties": {}}, {"species": [{"element": "Li", "occu": 1}], "abc": [0.97750531, 0.69489402, 0.2776265], "xyz": [7.924431249560209, 12.570795427000679, 12.544716091629], "label": "Li", "properties": {}}, {"species": [{"element": "Li", "occu": 1}], "abc": [0.54234209, 0.68291336, 0.28032955], "xyz": [4.39665397413319, 12.35406248412624, 12.6668549898663], "label": "Li", "properties": {}}, {"species": [{"element": "Li", "occu": 1}], "abc": [0.46636894, 0.05083489, 0.26466736], "xyz": [3.7807555254715397, 0.9196150554642599, 11.95914975667296], "label": "Li", "properties": {}}, {"species": [{"element": "Li", "occu": 1}], "abc": [0.47848087, 0.4880113, 0.29221696], "xyz": [3.87894441058817, 8.828238611644199, 13.20399457673856], "label": "Li", "properties": {}}, {"species": [{"element": "Li", "occu": 1}], "abc": [0.5227009, 0.25418905, 0.25218152], "xyz": [4.2374269518119, 4.5983393947377005, 11.39496975957072], "label": "Li", "properties": {}}, {"species": [{"element": "Li", "occu": 1}], "abc": [0.96473473, 0.48595625, 0.23103141], "xyz": [7.820902826551429, 8.7910622762625, 10.43928964525626], "label": "Li", "properties": {}}, {"species": [{"element": "Li", "occu": 1}], "abc": [0.94786738, 0.89210446, 0.26712243], "xyz": [7.68416274537758, 16.138378433843638, 12.070083533293982], "label": "Li", "properties": {}}, {"species": [{"element": "Li", "occu": 1}], "abc": [0.4515095, 0.85349732, 0.27663426], "xyz": [3.6602931510145, 15.439966237172879, 12.499881145776362], "label": "Li", "properties": {}}, {"species": [{"element": "Li", "occu": 1}], "abc": [0.47810842, 0.49965346, 0.21837689999999998], "xyz": [3.8759250362802193, 9.03884801030964, 9.8674881953634], "label": "Li", "properties": {}}, {"species": [{"element": "Li", "occu": 1}], "abc": [0.97342793, 0.02137925, 0.35185736], "xyz": [7.89137678207263, 0.38675563524449996, 15.898881000012961], "label": "Li", "properties": {}}, {"species": [{"element": "Li", "occu": 1}], "abc": [0.99012585, 0.264952, 0.38420898000000003], "xyz": [8.02674332964735, 4.793043678768, 17.360707907762283], "label": "Li", "properties": {}}, {"species": [{"element": "Li", "occu": 1}], "abc": [0.03740484, 0.82384866, 0.36721062], "xyz": [0.30323322026844, 14.90361503998644, 16.59262705012332], "label": "Li", "properties": {}}, {"species": [{"element": "Li", "occu": 1}], "abc": [0.93173419, 0.4373766, 0.38410384000000003], "xyz": [7.55337434588429, 7.912245040124399, 17.355957095250243], "label": "Li", "properties": {}}, {"species": [{"element": "Li", "occu": 1}], "abc": [0.49639782, 0.456506, 0.37185824], "xyz": [4.024193379595619, 8.258300362404, 16.80263248332864], "label": "Li", "properties": {}}, {"species": [{"element": "Li", "occu": 1}], "abc": [0.46564487, 0.82410201, 0.36772527], "xyz": [3.7748856413121694, 14.90819820077034, 16.61588181195822], "label": "Li", "properties": {}}, {"species": [{"element": "Li", "occu": 1}], "abc": [0.46396948, 0.23632327, 0.39201895000000003], "xyz": [3.76130360473868, 4.2751432539451795, 17.7136059788547], "label": "Li", "properties": {}}, {"species": [{"element": "Li", "occu": 1}], "abc": [0.5352108, 0.02489537, 0.35112619], "xyz": [4.338842096542799, 0.45036306881657995, 15.86584265509734], "label": "Li", "properties": {}}, {"species": [{"element": "Li", "occu": 1}], "abc": [0.04016253, 0.25934641, 0.31328981], "xyz": [0.32558923674122997, 4.69163724395994, 14.15618365267866], "label": "Li", "properties": {}}, {"species": [{"element": "Li", "occu": 1}], "abc": [0.95817393, 0.6597807, 0.36766904], "xyz": [7.767715792158629, 11.935587251683799, 16.61334102645744], "label": "Li", "properties": {}}, {"species": [{"element": "Li", "occu": 1}], "abc": [0.53412544, 0.65779702, 0.37197278], "xyz": [4.330043309863039, 11.899702016302678, 16.80780804034908], "label": "Li", "properties": {}}, {"species": [{"element": "Li", "occu": 1}], "abc": [0.52298586, 0.24530114, 0.32576520000000003], "xyz": [4.2397370629752595, 4.43755502306676, 14.7198914604072], "label": "Li", "properties": {}}, {"species": [{"element": "Li", "occu": 1}], "abc": [0.98373236, 0.78863272, 0.45070587], "xyz": [7.97491264245676, 14.266550444856477, 20.36540884958982], "label": "Li", "properties": {}}, {"species": [{"element": "Li", "occu": 1}], "abc": [0.18595524, 0.56693093, 0.42278485], "xyz": [1.5075002660348398, 10.25591318553762, 19.1037811991721], "label": "Li", "properties": {}}, {"species": [{"element": "Li", "occu": 1}], "abc": [0.08459043, 0.2801304, 0.44193916], "xyz": [0.6857569366101299, 5.0676244865135995, 19.96927992094776], "label": "Li", "properties": {}}, {"species": [{"element": "Li", "occu": 1}], "abc": [0.68683745, 0.28019655, 0.43775823], "xyz": [5.568047658122949, 5.068821155492699, 19.780362148872783], "label": "Li", "properties": {}}, {"species": [{"element": "Li", "occu": 1}], "abc": [0.47895579, 0.57617852, 0.46563843], "xyz": [3.8827944877698894, 10.42320425257368, 21.04014532366998], "label": "Li", "properties": {}}, {"species": [{"element": "Li", "occu": 1}], "abc": [0.55639737, 0.80908781, 0.45171192], "xyz": [4.51059719153967, 14.636587809447539, 20.41086780838512], "label": "Li", "properties": {}}, {"species": [{"element": "Li", "occu": 1}], "abc": [0.98583194, 0.01376411, 0.43580757000000003], "xyz": [7.991933498704539, 0.24899597070173998, 19.69222043368602], "label": "Li", "properties": {}}, {"species": [{"element": "Li", "occu": 1}], "abc": [0.98969674, 0.45373186, 0.46208784], "xyz": [8.023264624561339, 8.20811552065524, 20.87970983387424], "label": "Li", "properties": {}}, {"species": [{"element": "Li", "occu": 1}], "abc": [0.68751861, 0.45037397, 0.42987951], "xyz": [5.57356967988051, 8.147370504808979, 19.42435756874286], "label": "Li", "properties": {}}, {"species": [{"element": "Li", "occu": 1}], "abc": [0.52358038, 0.01106465, 0.43896898], "xyz": [4.24455671236058, 0.2001621076281, 19.835070597122282], "label": "Li", "properties": {}}, {"species": [{"element": "P", "occu": 1}], "abc": [0.16840643, 0.81767847, 0.045789979999999994], "xyz": [1.3652357310661298, 14.79199485906198, 2.06904707922828], "label": "P", "properties": {}}, {"species": [{"element": "P", "occu": 1}], "abc": [0.74450397, 0.85492961, 0.10583625999999999], "xyz": [6.03553808346027, 15.465876698428739, 4.782273428148359], "label": "P", "properties": {}}, {"species": [{"element": "P", "occu": 1}], "abc": [0.24064608, 0.60009016, 0.14139880999999999], "xyz": [1.9508674755292799, 10.85577141549744, 6.389188089552659], "label": "P", "properties": {}}, {"species": [{"element": "P", "occu": 1}], "abc": [0.75262818, 0.61979513, 0.20710024999999999], "xyz": [6.101399355970379, 11.21223893376042, 9.3579461569965], "label": "P", "properties": {}}, {"species": [{"element": "P", "occu": 1}], "abc": [0.7308409, 0.34336112, 0.12052679999999999], "xyz": [5.9247744305519, 6.21148300730208, 5.446074086704799], "label": "P", "properties": {}}, {"species": [{"element": "P", "occu": 1}], "abc": [0.24311064, 0.13539484, 0.11719147999999999], "xyz": [1.9708471483562398, 2.4493243379925596, 5.29536569800728], "label": "P", "properties": {}}, {"species": [{"element": "P", "occu": 1}], "abc": [0.25068983, 0.36390043, 0.23918309], "xyz": [2.03229005763553, 6.58304393140062, 10.80762808294074], "label": "P", "properties": {}}, {"species": [{"element": "P", "occu": 1}], "abc": [0.7521308, 0.38019211, 0.30534129], "xyz": [6.097367200262799, 6.87776423485374, 13.797025118645939], "label": "P", "properties": {}}, {"species": [{"element": "P", "occu": 1}], "abc": [0.75076007, 0.0744608, 0.22190498999999997], "xyz": [6.0862549786353695, 1.3470132958271999, 10.026907009474138], "label": "P", "properties": {}}, {"species": [{"element": "P", "occu": 1}], "abc": [0.24473227, 0.90671156, 0.22018654999999998], "xyz": [1.9839933638455698, 16.402624290905038, 9.949258291068299], "label": "P", "properties": {}}, {"species": [{"element": "P", "occu": 1}], "abc": [0.24793119, 0.1244388, 0.33684813], "xyz": [2.00992633971129, 2.2511270106792, 15.220680147054182], "label": "P", "properties": {}}, {"species": [{"element": "P", "occu": 1}], "abc": [0.76090827, 0.14353265, 0.40286721000000003], "xyz": [6.16852431506157, 2.5965392251401, 18.20379096403506], "label": "P", "properties": {}}, {"species": [{"element": "P", "occu": 1}], "abc": [0.74955791, 0.83741091, 0.32372756], "xyz": [6.07650931876681, 15.14895931605294, 14.627819502950162], "label": "P", "properties": {}}, {"species": [{"element": "P", "occu": 1}], "abc": [0.25626841, 0.66906615, 0.32199114], "xyz": [2.07751443977231, 12.103563214979099, 14.54935834770804], "label": "P", "properties": {}}, {"species": [{"element": "P", "occu": 1}], "abc": [0.25604588, 0.8879191, 0.43825322], "xyz": [2.07571043557108, 16.0626642920694, 19.80272856208692], "label": "P", "properties": {}}, {"species": [{"element": "P", "occu": 1}], "abc": [0.83283911, 0.92508214, 0.49867034], "xyz": [6.751652601396009, 16.734952381820758, 22.53271153371924], "label": "P", "properties": {}}, {"species": [{"element": "P", "occu": 1}], "abc": [0.76075541, 0.60892117, 0.42704012], "xyz": [6.16728511098931, 11.015526452853779, 19.296058067710323], "label": "P", "properties": {}}, {"species": [{"element": "P", "occu": 1}], "abc": [0.2706536, 0.39896615, 0.42417198], "xyz": [2.1941321685975996, 7.2173910115791, 19.16645948108028], "label": "P", "properties": {}}, {"species": [{"element": "S", "occu": 1}], "abc": [0.16446444, 0.80601433, 9.999999999998899e-05], "xyz": [1.3332788420120398, 14.580987837053218, 0.004518558599999502], "label": "S", "properties": {}}, {"species": [{"element": "S", "occu": 1}], "abc": [0.93764961, 0.8002006, 0.027449159999999993], "xyz": [7.60132941950151, 14.4758161009404, 1.2403063798077598], "label": "S", "properties": {}}, {"species": [{"element": "S", "occu": 1}], "abc": [0.74722109, 0.75959558, 0.08151428999999999], "xyz": [6.05756520742219, 13.74126178756572, 3.6832709610239394], "label": "S", "properties": {}}, {"species": [{"element": "S", "occu": 1}], "abc": [0.22557607, 0.92274674, 0.05727719999999999], "xyz": [1.8286980540913698, 16.69270444933716, 2.5881038464392], "label": "S", "properties": {}}, {"species": [{"element": "S", "occu": 1}], "abc": [0.72208499, 0.26479592, 0.08418497], "xyz": [5.85379209816709, 4.79022015504528, 3.80394720184242], "label": "S", "properties": {}}, {"species": [{"element": "S", "occu": 1}], "abc": [0.24337454, 0.73153423, 0.0698365], "xyz": [1.9729865305011398, 13.233625399709819, 3.155603176689], "label": "S", "properties": {}}, {"species": [{"element": "S", "occu": 1}], "abc": [0.72986092, 0.94757677, 0.08021302], "xyz": [5.916829937507719, 17.141885502264177, 3.62447231352972], "label": "S", "properties": {}}, {"species": [{"element": "S", "occu": 1}], "abc": [0.23843717, 0.20079475, 0.07967031], "xyz": [1.93296030382147, 3.6324240134715, 3.5999496441516596], "label": "S", "properties": {}}, {"species": [{"element": "S", "occu": 1}], "abc": [0.43310699, 0.58578881, 0.11199785], "xyz": [3.51110784856909, 10.59705664748154, 5.0606884829901], "label": "S", "properties": {}}, {"species": [{"element": "S", "occu": 1}], "abc": [0.53486026, 0.85062445, 0.132215], "xyz": [4.33600034202566, 15.387995346621299, 5.97421225299], "label": "S", "properties": {}}, {"species": [{"element": "S", "occu": 1}], "abc": [0.49565669, 0.37888383, 0.1337651], "xyz": [4.01818519358179, 6.854097143516219, 6.0442544298486], "label": "S", "properties": {}}, {"species": [{"element": "S", "occu": 1}], "abc": [0.45364948, 0.07239631, 0.1145761], "xyz": [3.6776415216186797, 1.30966618863654, 5.1771882200946004], "label": "S", "properties": {}}, {"species": [{"element": "S", "occu": 1}], "abc": [0.02896293, 0.07638643, 0.12065680999999999], "xyz": [0.23479642025763, 1.38184839312462, 5.45194866474066], "label": "S", "properties": {}}, {"species": [{"element": "S", "occu": 1}], "abc": [0.10372702, 0.37967169, 0.11655713], "xyz": [0.84089327219282, 6.86834971527546, 5.26670222152818], "label": "S", "properties": {}}, {"species": [{"element": "S", "occu": 1}], "abc": [0.96324795, 0.8563912, 0.12940685], "xyz": [7.808849811828449, 15.4923172035408, 5.8473243496641], "label": "S", "properties": {}}, {"species": [{"element": "S", "occu": 1}], "abc": [0.01344006, 0.58412314, 0.12161617999999999], "xyz": [0.10895575744746, 10.566924287414759, 5.495298360381479], "label": "S", "properties": {}}, {"species": [{"element": "S", "occu": 1}], "abc": [0.7516485, 0.51121676, 0.19033599999999998], "xyz": [6.0934572949635, 9.24803081312184, 8.600443696895999], "label": "S", "properties": {}}, {"species": [{"element": "S", "occu": 1}], "abc": [0.24580789, 0.7078799, 0.15533349], "xyz": [1.9927131903809898, 12.805713034896598, 7.01883477107514], "label": "S", "properties": {}}, {"species": [{"element": "S", "occu": 1}], "abc": [0.26438322, 0.19586565, 0.15649865999999998], "xyz": [2.1432995084470194, 3.5432554410621, 7.071483660314759], "label": "S", "properties": {}}, {"species": [{"element": "S", "occu": 1}], "abc": [0.74998466, 0.0204138, 0.18107636], "xyz": [6.079968891826059, 0.36929041882919994, 8.18204143734696], "label": "S", "properties": {}}, {"species": [{"element": "S", "occu": 1}], "abc": [0.26928637, 0.52351483, 0.17467385], "xyz": [2.1830483207386697, 9.470505777170219, 7.8927402711261], "label": "S", "properties": {}}, {"species": [{"element": "S", "occu": 1}], "abc": [0.74536875, 0.69932562, 0.17575651999999997], "xyz": [6.0425486741812495, 12.65096410799508, 7.941661349520719], "label": "S", "properties": {}}, {"species": [{"element": "S", "occu": 1}], "abc": [0.78652976, 0.27123659, 0.15659167], "xyz": [6.376232379600159, 4.906733382462059, 7.07568637166862], "label": "S", "properties": {}}, {"species": [{"element": "S", "occu": 1}], "abc": [0.25273377, 0.97529372, 0.18335352], "xyz": [2.04885985203207, 17.64329161353048, 8.28493624636272], "label": "S", "properties": {}}, {"species": [{"element": "S", "occu": 1}], "abc": [0.4744535, 0.35933123, 0.21827820999999997], "xyz": [3.8462953637184993, 6.5003860342078195, 9.86302882988106], "label": "S", "properties": {}}, {"species": [{"element": "S", "occu": 1}], "abc": [0.53883751, 0.62699523, 0.23195576999999998], "xyz": [4.36824307653041, 11.342490427583819, 10.48105739353122], "label": "S", "properties": {}}, {"species": [{"element": "S", "occu": 1}], "abc": [0.53664644, 0.13591456, 0.22259081999999997], "xyz": [4.350480529974039, 2.4587261944070398, 10.057896639920518], "label": "S", "properties": {}}, {"species": [{"element": "S", "occu": 1}], "abc": [0.45424426, 0.84353128, 0.22064230999999998], "xyz": [3.6824632787696596, 15.259678241519518, 9.96985207374366], "label": "S", "properties": {}}, {"species": [{"element": "S", "occu": 1}], "abc": [0.03088472, 0.84612463, 0.21785719999999997], "xyz": [0.25037597013352, 15.306592549863419, 9.844005246319199], "label": "S", "properties": {}}, {"species": [{"element": "S", "occu": 1}], "abc": [0.96223542, 0.13761114, 0.22248271999999997], "xyz": [7.800641442737219, 2.48941772360676, 10.053012078073918], "label": "S", "properties": {}}, {"species": [{"element": "S", "occu": 1}], "abc": [0.96748025, 0.62582521, 0.23113316999999997], "xyz": [7.84316018337775, 11.321324491999139, 10.443887730487619], "label": "S", "properties": {}}, {"species": [{"element": "S", "occu": 1}], "abc": [0.04807823, 0.36056076, 0.21134787], "xyz": [0.38976016225993, 6.5226285196178395, 9.54987735580182], "label": "S", "properties": {}}, {"species": [{"element": "S", "occu": 1}], "abc": [0.75836352, 0.2759962, 0.28580231], "xyz": [6.147894558664319, 4.9928358411108, 12.914144857503661], "label": "S", "properties": {}}, {"species": [{"element": "S", "occu": 1}], "abc": [0.24337601, 0.46808609, 0.25875182], "xyz": [1.97299844748391, 8.46778690024506, 11.691852615266521], "label": "S", "properties": {}}, {"species": [{"element": "S", "occu": 1}], "abc": [0.23908775, 0.96006546, 0.26084203], "xyz": [1.9382344199102497, 17.36780882671764, 11.78629997897958], "label": "S", "properties": {}}, {"species": [{"element": "S", "occu": 1}], "abc": [0.74538268, 0.78412383, 0.28303878], "xyz": [6.042661601779879, 14.184983569676218, 12.78927313502508], "label": "S", "properties": {}}, {"species": [{"element": "S", "occu": 1}], "abc": [0.23581892, 0.27539926, 0.26738939], "xyz": [1.9117346982857197, 4.982037056826839, 12.08214627733254], "label": "S", "properties": {}}, {"species": [{"element": "S", "occu": 1}], "abc": [0.76609615, 0.46845286, 0.27701229], "xyz": [6.210581373954649, 8.47442185536924, 12.516962652851939], "label": "S", "properties": {}}, {"species": [{"element": "S", "occu": 1}], "abc": [0.75047335, 0.00663694, 0.25807652999999997], "xyz": [6.08393059951985, 0.12006379764396, 11.661339240896579], "label": "S", "properties": {}}, {"species": [{"element": "S", "occu": 1}], "abc": [0.26336709, 0.7366952, 0.28581879], "xyz": [2.13506195490819, 13.326988554676799, 12.91488951596094], "label": "S", "properties": {}}, {"species": [{"element": "S", "occu": 1}], "abc": [0.46017227, 0.11792224, 0.31156801], "xyz": [3.73052041688557, 2.13324091540416, 14.07838311070386], "label": "S", "properties": {}}, {"species": [{"element": "S", "occu": 1}], "abc": [0.52930999, 0.38463523, 0.32657756], "xyz": [4.29100546314209, 6.95814131534382, 14.75659842305016], "label": "S", "properties": {}}, {"species": [{"element": "S", "occu": 1}], "abc": [0.53808967, 0.8998309, 0.32548411], "xyz": [4.362180493948969, 16.2781515414306, 14.70719024403846], "label": "S", "properties": {}}, {"species": [{"element": "S", "occu": 1}], "abc": [0.465157, 0.60381894, 0.32281491], "xyz": [3.7709305811869998, 10.92322591823196, 14.586580877887261], "label": "S", "properties": {}}, {"species": [{"element": "S", "occu": 1}], "abc": [0.03938701, 0.61026264, 0.31980921], "xyz": [0.31930225818491, 11.039793959057759, 14.450766562047061], "label": "S", "properties": {}}, {"species": [{"element": "S", "occu": 1}], "abc": [0.96136955, 0.89883892, 0.32391590000000003], "xyz": [7.79362201561405, 16.26020639110728, 14.636329756217402], "label": "S", "properties": {}}, {"species": [{"element": "S", "occu": 1}], "abc": [0.9551365, 0.3840041, 0.33308514], "xyz": [7.7430919819715, 6.9467240259594, 15.05064723879204], "label": "S", "properties": {}}, {"species": [{"element": "S", "occu": 1}], "abc": [0.03142337, 0.11940005, 0.31327772], "xyz": [0.25474269310567, 2.1599748441116997, 14.155637358943919], "label": "S", "properties": {}}, {"species": [{"element": "S", "occu": 1}], "abc": [0.75551814, 0.03590293, 0.38875543], "xyz": [6.124827657688739, 0.64949240498562, 17.56614191523198], "label": "S", "properties": {}}, {"species": [{"element": "S", "occu": 1}], "abc": [0.25070516, 0.2325893, 0.35407742000000003], "xyz": [2.0324143347415595, 4.2075948628962, 15.999195712068122], "label": "S", "properties": {}}, {"species": [{"element": "S", "occu": 1}], "abc": [0.25348308, 0.72280826, 0.36288722], "xyz": [2.05493435159628, 13.075770560532838, 16.39727168761092], "label": "S", "properties": {}}, {"species": [{"element": "S", "occu": 1}], "abc": [0.73807401, 0.54719292, 0.38807277], "xyz": [5.983411741601909, 9.898847965943279, 17.53529552309322], "label": "S", "properties": {}}, {"species": [{"element": "S", "occu": 1}], "abc": [0.25469363, 0.04433542, 0.36795393], "xyz": [2.06474802744133, 0.80203812228828, 16.62621394805298], "label": "S", "properties": {}}, {"species": [{"element": "S", "occu": 1}], "abc": [0.73251714, 0.22016685, 0.36959899], "xyz": [5.93836335789774, 3.9828698355428998, 16.70054694815814], "label": "S", "properties": {}}, {"species": [{"element": "S", "occu": 1}], "abc": [0.75142161, 0.76834467, 0.36045034], "xyz": [6.0916179451535095, 13.899534872952778, 16.28715983679924], "label": "S", "properties": {}}, {"species": [{"element": "S", "occu": 1}], "abc": [0.21442779, 0.47021837, 0.38783602], "xyz": [1.73832127812189, 8.50636034439858, 17.52459783560772], "label": "S", "properties": {}}, {"species": [{"element": "S", "occu": 1}], "abc": [0.46833975, 0.89340221, 0.41270834], "xyz": [3.7967324702422496, 16.161855035017137, 18.64846818998724], "label": "S", "properties": {}}, {"species": [{"element": "S", "occu": 1}], "abc": [0.56832577, 0.1574922, 0.432299], "xyz": [4.607298237304069, 2.8490707511748, 19.533683642214], "label": "S", "properties": {}}, {"species": [{"element": "S", "occu": 1}], "abc": [0.55118119, 0.67252591, 0.42944491], "xyz": [4.46831071046129, 12.166151082962939, 19.40471991306726], "label": "S", "properties": {}}, {"species": [{"element": "S", "occu": 1}], "abc": [0.50710574, 0.36476106, 0.41123364], "xyz": [4.111000249080339, 6.5986129294880405, 18.58183300631304], "label": "S", "properties": {}}, {"species": [{"element": "S", "occu": 1}], "abc": [0.89659255, 0.36433307, 0.4287757], "xyz": [7.26848841500705, 6.5908704902383795, 19.3744812670602], "label": "S", "properties": {}}, {"species": [{"element": "S", "occu": 1}], "abc": [0.97615316, 0.66669567, 0.4229863], "xyz": [7.913469652109559, 12.06068067708678, 19.1128838354718], "label": "S", "properties": {}}, {"species": [{"element": "S", "occu": 1}], "abc": [0.98787218, 0.15933141, 0.42270444], "xyz": [8.00847329797438, 2.8823424904499397, 19.10014782620184], "label": "S", "properties": {}}, {"species": [{"element": "S", "occu": 1}], "abc": [0.03982522, 0.88589046, 0.41385016], "xyz": [0.32285473506902, 16.02596571976764, 18.70006199579376], "label": "S", "properties": {}}, {"species": [{"element": "S", "occu": 1}], "abc": [0.77808012, 0.81987663, 0.48704098], "xyz": [6.30773291409492, 14.83176008783142, 22.007232087314282], "label": "S", "properties": {}}, {"species": [{"element": "S", "occu": 1}], "abc": [0.24937224, 0.98313285, 0.46266071000000003], "xyz": [2.0216086308818397, 17.785103309586898, 20.905595300526063], "label": "S", "properties": {}}, {"species": [{"element": "S", "occu": 1}], "abc": [0.27929623, 0.4781762, 0.46035463], "xyz": [2.2641961636979295, 8.650319351230799, 20.80139372436318], "label": "S", "properties": {}}, {"species": [{"element": "S", "occu": 1}], "abc": [0.2689489, 0.79523568, 0.46385437], "xyz": [2.1803125219798996, 14.38599953634912, 20.959531527110823], "label": "S", "properties": {}}, {"species": [{"element": "S", "occu": 1}], "abc": [0.75686479, 0.01088916, 0.47448154000000003], "xyz": [6.135744667788889, 0.19698745246344, 21.43972643108244], "label": "S", "properties": {}}, {"species": [{"element": "S", "occu": 1}], "abc": [0.76388308, 0.5447894, 0.46492664], "xyz": [6.19264047799628, 9.8553677267196, 21.00798267541104], "label": "S", "properties": {}}, {"species": [{"element": "S", "occu": 1}], "abc": [0.8356735, 0.93681924, 0.54434651], "xyz": [6.774630408738499, 16.94727926730216, 24.59661604140486], "label": "S", "properties": {}}, {"species": [{"element": "S", "occu": 1}], "abc": [0.06290303, 0.94360797, 0.51703812], "xyz": [0.50994171747673, 17.07008898156498, 23.362670436538323], "label": "S", "properties": {}}]}, "formula": "(Li3PS4)18.0", "bandgap": 1.6737, "slab_thickness": 24.59209748280486}