{"miller": "102_0.28", "final_energy": -622.09876748, "gamma": 0.0380066286932297, "work_function": 4.70534131873784, "ionization_potentail": -4.970341318737841, "electron_affinity": -3.3186413187378405, "is_stochiometric": true, "incar_parameters": {"SYSTEM": "unknown system", "LCOMPAT": false, "PREC": "normal", "ENMAX": 520.0, "ENAUG": 628.945, "EDIFF": 1e-05, "IALGO": 38, "IWAVPR": 11, "NBANDS": 416, "NBANDSLOW": -1, "NBANDSHIGH": -1, "NELECT": 684.0, "TURBO": 0, "IRESTART": 0, "NREBOOT": 0, "NMIN": 0, "EREF": 0.0, "ISMEAR": 0, "SIGMA": 0.05, "KSPACING": 0.5, "KGAMMA": true, "KBLOWUP": true, "LREAL": true, "ROPT": [-0.0005, -0.0005, -0.0005], "LMAXPAW": -100, "LMAXMIX": 2, "NLSPLINE": false, "ISTART": 0, "ICHARG": 2, "INIWAV": 1, "ISPIN": 1, "LNONCOLLINEAR": false, "MAGMOM": [0.6, 0.6, 0.6, 0.6, 0.6, 0.6, 0.6, 0.6, 0.6, 0.6, 0.6, 0.6, 0.6, 0.6, 0.6, 0.6, 0.6, 0.6, 0.6, 0.6, 0.6, 0.6, 0.6, 0.6, 0.6, 0.6, 0.6, 0.6, 0.6, 0.6, 0.6, 0.6, 0.6, 0.6, 0.6, 0.6, 0.6, 0.6, 0.6, 0.6, 0.6, 0.6, 0.6, 0.6, 0.6, 0.6, 0.6, 0.6, 0.6, 0.6, 0.6, 0.6, 0.6, 0.6, 0.6, 0.6, 0.6, 0.6, 0.6, 0.6, 0.6, 0.6, 0.6, 0.6, 0.6, 0.6, 0.6, 0.6, 0.6, 0.6, 0.6, 0.6, 0.6, 0.6, 0.6, 0.6, 0.6, 0.6, 0.6, 0.6, 0.6, 0.6, 0.6, 0.6, 0.6, 0.6, 0.6, 0.6, 0.6, 0.6, 0.6, 0.6, 0.6, 0.6, 0.6, 0.6, 0.6, 0.6, 0.6, 0.6, 0.6, 0.6, 0.6, 0.6, 0.6, 0.6, 0.6, 0.6, 0.6, 0.6, 0.6, 0.6, 0.6, 0.6, 0.6, 0.6, 0.6, 0.6, 0.6, 0.6, 0.6, 0.6, 0.6, 0.6, 0.6, 0.6, 0.6, 0.6, 0.6, 0.6, 0.6, 0.6, 0.6, 0.6, 0.6, 0.6, 0.6, 0.6, 0.6, 0.6, 0.6, 0.6, 0.6, 0.6], "NUPDOWN": -1.0, "LSORBIT": false, "SAXIS": [0.0, 0.0, 1.0], "LSPIRAL": false, "QSPIRAL": [0.0, 0.0, 0.0], "LZEROZ": false, "LASPH": false, "LMETAGGA": false, "NELM": 100, "NELMDL": -5, "NELMIN": 6, "ENINI": 520.0, "LDIAG": true, "LSUBROT": false, "WEIMIN": 0.001, "EBREAK": 1e-08, "DEPER": 0.3, "NRMM": 4, "TIME": 0.4, "AMIX": 0.4, "BMIX": 1.0, "AMIN": 0.1, "AMIX_MAG": 1.6, "BMIX_MAG": 1.0, "IMIX": 4, "MIXFIRST": false, "MAXMIX": -45, "WC": 100.0, "INIMIX": 1, "MIXPRE": 1, "MREMOVE": 5, "LDIPOL": false, "LMONO": false, "IDIPOL": 0, "EPSILON": 1.0, "DIPOL": [-100.0, -100.0, -100.0], "EFIELD": 0.0, "NGX": 48, "NGY": 108, "NGZ": 252, "NGXF": 96, "NGYF": 216, "NGZF": 504, "ADDGRID": false, "NSW": 150, "IBRION": 2, "MDALGO": 0, "ISIF": 2, "PSTRESS": 0.0, "EDIFFG": -0.01, "NFREE": 1, "POTIM": 0.5, "SMASS": -3.0, "SCALEE": 1.0, "TEBEG": 0.0001, "TEEND": 0.0001, "NBLOCK": 1, "KBLOCK": 150, "NPACO": 256, "APACO": 10.0, "ISYM": 0, "SYMPREC": 1e-05, "LORBIT": 11, "RWIGS": [-1.0, -1.0, -1.0], "NEDOS": 301, "EMIN": 10.0, "EMAX": -10.0, "EFERMI": 0.0, "NWRITE": 2, "LWAVE": false, "LDOWNSAMPLE": false, "LCHARG": false, "LPARD": false, "LVTOT": false, "LVHAR": false, "LELF": false, "LOPTICS": false, "STM": [0.0, 0.0, 0.0, 0.0, 0.0, 0.0, 0.0], "NPAR": 2, "NSIM": 4, "NBLK": -1, "LPLANE": true, "LSCALAPACK": true, "LSCAAWARE": false, "LSCALU": false, "LASYNC": false, "LORBITALREAL": false, "IDIOT": 3, "PHON_NSTRUCT": -1, "LMUSIC": false, "POMASS": [7.01, 30.974, 32.066], "DARWINR": [0.0, 0.0, 0.0], "DARWINV": [1.0, 1.0, 1.0], "LCORR": true, "GGA_COMPAT": true, "LBERRY": false, "ICORELEVEL": 0, "LDAU": false, "I_CONSTRAINED_M": 0, "GGA": "--", "VOSKOWN": 0, "LHFCALC": false, "PRECFOCK": "", "LSYMGRAD": false, "LHFONE": false, "LRHFCALC": false, "LTHOMAS": false, "LMODELHF": false, "LFOCKACE": false, "ENCUT4O": -1.0, "EXXOEP": 0, "FOURORBIT": 0, "AEXX": 0.0, "HFALPHA": 0.0, "MCALPHA": 0.0, "ALDAX": 1.0, "AGGAX": 1.0, "ALDAC": 1.0, "AGGAC": 1.0, "NKREDX": 1, "NKREDY": 1, "NKREDZ": 1, "SHIFTRED": false, "ODDONLY": false, "EVENONLY": false, "LMAXFOCK": 0, "NMAXFOCKAE": 0, "LFOCKAEDFT": false, "HFSCREEN": 0.0, "HFSCREENC": 0.0, "NBANDSGWLOW": 0, "LUSE_VDW": false, "Zab_VDW": -0.8491, "PARAM1": 0.1234, "PARAM2": 1.0, "PARAM3": 0.0, "MODEL_GW": 0, "MODEL_EPS0": 27.61098108, "MODEL_ALPHA": 1.0, "LEPSILON": false, "LRPA": false, "LNABLA": false, "LVEL": false, "CSHIFT": 0.1, "OMEGAMAX": -1.0, "DEG_THRESHOLD": 0.002, "RTIME": -0.1, "WPLASMAI": 0.0, "DFIELD": [0.0, 0.0, 0.0], "WPLASMA": [0.0, 0.0, 0.0, 0.0, 0.0, 0.0, 0.0, 0.0, 0.0], "NUCIND": false, "MAGPOS": [0.0, 0.0, 0.0], "LNICSALL": true, "ORBITALMAG": false, "LMAGBLOCH": false, "LCHIMAG": false, "LGAUGE": true, "MAGATOM": 0, "MAGDIPOL": [0.0, 0.0, 0.0], "AVECCONST": [0.0, 0.0, 0.0], "LFINITE_TEMPERATURE": false, "LADDER": false, "LRPAFORCE": false, "LFXC": false, "LHARTREE": true, "IBSE": 0, "KPOINT": [-1, 0, 0, 0], "LTCTC": false, "LTCTE": false, "LTETE": false, "LTRIPLET": false, "LFXCEPS": false, "LFXHEG": false, "NATURALO": 2, "LHOLEGF": false, "L2ORDER": false, "LDMP1": false, "LMP2LT": false, "LSMP2LT": false, "LGWLF": false, "ENCUTGW": -2.0, "ENCUTGWSOFT": -2.0, "ENCUTLF": -1.0, "LESF_SPLINES": false, "LMAXMP2": -1, "SCISSOR": 0.0, "NOMEGA": 0, "NOMEGAR": 0, "NBANDSGW": -1, "NBANDSO": -1, "NBANDSV": -1, "NELMGW": 1, "NELMHF": 1, "DIM": 3, "IESPILON": 4, "ANTIRES": 0, "OMEGAMIN": -30.0, "OMEGATL": -200.0, "OMEGAGRID": 0, "LSELFENERGY": false, "LSPECTRAL": false, "LSPECTRALGW": false, "LSINGLES": false, "LFERMIGW": false, "ODDONLYGW": false, "EVENONLYGW": false, "NKREDLFX": 1, "NKREDLFY": 1, "NKREDLFZ": 1, "MAXMEM": 2800, "TELESCOPE": 0, "NTAUPAR": -1, "NOMEGAPAR": -1, "DAMP_NEWTON": 0.80000001, "LAMBDA": 1.0, "OFIELD_KAPPA": 0.0, "OFIELD_K": [0.0, 0.0, 0.0], "OFIELD_Q6_NEAR": 0.0, "OFIELD_Q6_FAR": 0.0, "OFIELD_A": 0.0, "KPOINTS_OPT_MODE": 1, "LKPOINTS_OPT": false, "@module": "pymatgen.io.vasp.inputs", "@class": "Incar"}, "relaxed_structures": {"@module": "pymatgen.core.structure", "@class": "Structure", "charge": 0, "lattice": {"matrix": [[8.106791, 0.0, 0.0], [0.0, 18.090234, 0.0], [0.0, 0.0, 45.185586]], "a": 8.106791, "b": 18.090234, "c": 45.185586, "alpha": 90.0, "beta": 90.0, "gamma": 90.0, "volume": 6626.635460197623}, "sites": [{"species": [{"element": "Li", "occu": 1}], "abc": [0.0142173, 0.93188916, 0.09275713000000002], "xyz": [0.11525667968429999, 16.85809296646344, 4.191285274728181], "label": "Li", "properties": {}}, {"species": [{"element": "Li", "occu": 1}], "abc": [0.91663984, 0.43987677, 0.10334118000000003], "xyz": [7.4310076051534395, 7.957473700464179, 4.669531776231482], "label": "Li", "properties": {}}, {"species": [{"element": "Li", "occu": 1}], "abc": [0.81883044, 0.15267348, 0.12202912000000003], "xyz": [6.63808724151804, 2.76189897879432, 5.513957296264322], "label": "Li", "properties": {}}, {"species": [{"element": "Li", "occu": 1}], "abc": [0.52762291, 0.14387642, 0.07877322000000003], "xyz": [4.277328658181809, 2.60275810488228, 3.5594141068069214], "label": "Li", "properties": {}}, {"species": [{"element": "Li", "occu": 1}], "abc": [0.31455489, 0.44136221, 0.10702974000000003], "xyz": [2.5500307512579896, 7.984345657657139, 4.8362015213276415], "label": "Li", "properties": {}}, {"species": [{"element": "Li", "occu": 1}], "abc": [0.44373691, 0.91232532, 0.09279740000000003], "xyz": [3.5972823883558096, 16.504178522924878, 4.193104898276402], "label": "Li", "properties": {}}, {"species": [{"element": "Li", "occu": 1}], "abc": [0.01430878, 0.2675588, 0.08292052000000003], "xyz": [0.11599828892497999, 4.840201300759199, 3.746812287624721], "label": "Li", "properties": {}}, {"species": [{"element": "Li", "occu": 1}], "abc": [0.31522243, 0.27125223, 0.11466962000000003], "xyz": [2.55544235852213, 4.90701631372182, 5.181413976097321], "label": "Li", "properties": {}}, {"species": [{"element": "Li", "occu": 1}], "abc": [0.01749941, 0.45333136, 0.16080098000000004], "xyz": [0.14186405949331, 8.20087038193824, 7.265886510674282], "label": "Li", "properties": {}}, {"species": [{"element": "Li", "occu": 1}], "abc": [0.029997, 0.69750129, 0.19194417000000003], "xyz": [0.24317940962699996, 12.61796155140186, 8.673109800733622], "label": "Li", "properties": {}}, {"species": [{"element": "Li", "occu": 1}], "abc": [0.07026953, 0.28179299, 0.1607093], "xyz": [0.5696603933782299, 5.09770112865966, 7.2617438961498], "label": "Li", "properties": {}}, {"species": [{"element": "Li", "occu": 1}], "abc": [0.96476625, 0.89813299, 0.17540870000000003], "xyz": [7.82115835260375, 16.24743595221966, 7.9259448989982015], "label": "Li", "properties": {}}, {"species": [{"element": "Li", "occu": 1}], "abc": [0.53746264, 0.89566879, 0.17779401], "xyz": [4.357097292788239, 16.20285799759686, 8.03372652913986], "label": "Li", "properties": {}}, {"species": [{"element": "Li", "occu": 1}], "abc": [0.50478104, 0.2654771, 0.17263382], "xyz": [4.09215439204264, 4.8025428606414, 7.80056032011852], "label": "Li", "properties": {}}, {"species": [{"element": "Li", "occu": 1}], "abc": [0.46776932, 0.69790937, 0.19285901], "xyz": [3.7921081134521195, 12.625343814092579, 8.71444738222986], "label": "Li", "properties": {}}, {"species": [{"element": "Li", "occu": 1}], "abc": [0.54211334, 0.48512607, 0.15218177000000002], "xyz": [4.3947995456919395, 8.77604412580038, 6.876422455967221], "label": "Li", "properties": {}}, {"species": [{"element": "Li", "occu": 1}], "abc": [0.013821, 0.70592673, 0.10814382000000003], "xyz": [0.112043958411, 12.770379732554819, 4.886541878978521], "label": "Li", "properties": {}}, {"species": [{"element": "Li", "occu": 1}], "abc": [0.04844573, 0.06108873, 0.17615346000000004], "xyz": [0.39273940795242995, 1.10510942046282, 7.959597316027562], "label": "Li", "properties": {}}, {"species": [{"element": "Li", "occu": 1}], "abc": [0.47250898, 0.06327536, 0.17277636000000002], "xyz": [3.8305315464831797, 1.14466606883424, 7.807001073546961], "label": "Li", "properties": {}}, {"species": [{"element": "Li", "occu": 1}], "abc": [0.47528981, 0.71048605, 0.10615046000000003], "xyz": [3.8530751540997095, 12.852858898235699, 4.796470739269561], "label": "Li", "properties": {}}, {"species": [{"element": "Li", "occu": 1}], "abc": [0.95758609, 0.23984294, 0.24427300000000002], "xyz": [7.762950296137189, 4.33881490784796, 11.037618648978], "label": "Li", "properties": {}}, {"species": [{"element": "Li", "occu": 1}], "abc": [0.04105763, 0.46193271, 0.29991751000000005], "xyz": [0.33284562536532997, 8.35647081615414, 13.551948441010863], "label": "Li", "properties": {}}, {"species": [{"element": "Li", "occu": 1}], "abc": [0.03013613, 0.03630222, 0.26579008000000004], "xyz": [0.24430730745882998, 0.65671565451948, 12.009880517786883], "label": "Li", "properties": {}}, {"species": [{"element": "Li", "occu": 1}], "abc": [0.97792989, 0.67441063, 0.27659436000000004], "xyz": [7.927873230882989, 12.20024610878742, 12.498078240894962], "label": "Li", "properties": {}}, {"species": [{"element": "Li", "occu": 1}], "abc": [0.54449078, 0.65968208, 0.28077653], "xyz": [4.414072954886979, 11.933803192806717, 12.687052043096582], "label": "Li", "properties": {}}, {"species": [{"element": "Li", "occu": 1}], "abc": [0.46455072, 0.02620696, 0.26509537000000005], "xyz": [3.7660155959395194, 0.47409003882864, 11.978489639336823], "label": "Li", "properties": {}}, {"species": [{"element": "Li", "occu": 1}], "abc": [0.47705583, 0.46334293, 0.29218794000000003], "xyz": [3.8673919091415296, 8.38198202594562, 13.202683291032843], "label": "Li", "properties": {}}, {"species": [{"element": "Li", "occu": 1}], "abc": [0.52156899, 0.23110337, 0.25222417], "xyz": [4.22825079401109, 4.18071404148858, 11.396896924813621], "label": "Li", "properties": {}}, {"species": [{"element": "Li", "occu": 1}], "abc": [0.96054382, 0.46242936, 0.23187835], "xyz": [7.78692799508162, 8.36545533087024, 10.4775591254631], "label": "Li", "properties": {}}, {"species": [{"element": "Li", "occu": 1}], "abc": [0.94787648, 0.86759139, 0.26724020000000004], "xyz": [7.6842365171756795, 15.694931261485259, 12.075405039757202], "label": "Li", "properties": {}}, {"species": [{"element": "Li", "occu": 1}], "abc": [0.45056808, 0.830084, 0.27663236], "xyz": [3.6526612558312794, 15.016413799656, 12.499795293162961], "label": "Li", "properties": {}}, {"species": [{"element": "Li", "occu": 1}], "abc": [0.4794154, 0.47545099, 0.21902806000000002], "xyz": [3.8865204499813997, 8.601019664631659, 9.896911241543162], "label": "Li", "properties": {}}, {"species": [{"element": "Li", "occu": 1}], "abc": [0.97245012, 0.99832548, 0.35231488000000005], "xyz": [7.883449880764919, 18.059941541362317, 15.919554309319683], "label": "Li", "properties": {}}, {"species": [{"element": "Li", "occu": 1}], "abc": [0.98691311, 0.24408, 0.38383333000000003], "xyz": [8.00069831793001, 4.4154643147199995, 17.34373394238138], "label": "Li", "properties": {}}, {"species": [{"element": "Li", "occu": 1}], "abc": [0.03579399, 0.80100707, 0.36658606000000005], "xyz": [0.29017439598608996, 14.49040533195438, 16.564405940531163], "label": "Li", "properties": {}}, {"species": [{"element": "Li", "occu": 1}], "abc": [0.93437012, 0.41622036, 0.38338503], "xyz": [7.574743279484919, 7.529523707964239, 17.32347724417758], "label": "Li", "properties": {}}, {"species": [{"element": "Li", "occu": 1}], "abc": [0.49833094, 0.43494951, 0.37124998000000003], "xyz": [4.03986477941354, 7.868338414085339, 16.775147898788283], "label": "Li", "properties": {}}, {"species": [{"element": "Li", "occu": 1}], "abc": [0.46515857, 0.80090665, 0.36803149], "xyz": [3.7709433088488695, 14.4885887106561, 16.62971854210314], "label": "Li", "properties": {}}, {"species": [{"element": "Li", "occu": 1}], "abc": [0.46180687, 0.21307346, 0.39223781], "xyz": [3.7437717774541697, 3.8545487505896396, 17.72349529620666], "label": "Li", "properties": {}}, {"species": [{"element": "Li", "occu": 1}], "abc": [0.53536969, 0.00135213, 0.35140656000000003], "xyz": [4.3401301845647895, 0.024460348098419998, 15.878511337844161], "label": "Li", "properties": {}}, {"species": [{"element": "Li", "occu": 1}], "abc": [0.03907931, 0.2356738, 0.31308102000000004], "xyz": [0.31680779859421, 4.263394189669199, 14.146749354177722], "label": "Li", "properties": {}}, {"species": [{"element": "Li", "occu": 1}], "abc": [0.95764775, 0.63785686, 0.36742334000000004], "xyz": [7.763450160870249, 11.53897985590524, 16.602238927977243], "label": "Li", "properties": {}}, {"species": [{"element": "Li", "occu": 1}], "abc": [0.531416, 0.63420618, 0.3716372], "xyz": [4.308078446055999, 11.472938200446118, 16.7926446613992], "label": "Li", "properties": {}}, {"species": [{"element": "Li", "occu": 1}], "abc": [0.52286633, 0.22064188, 0.32572958], "xyz": [4.23876805824703, 3.99146323939992, 14.718281949833882], "label": "Li", "properties": {}}, {"species": [{"element": "Li", "occu": 1}], "abc": [0.97996058, 0.76747602, 0.45044779], "xyz": [7.944335610298779, 13.883820791188679, 20.35374735355494], "label": "Li", "properties": {}}, {"species": [{"element": "Li", "occu": 1}], "abc": [0.18635413, 0.54641773, 0.42267248], "xyz": [1.51073398389683, 9.88482459744882, 19.09870369487328], "label": "Li", "properties": {}}, {"species": [{"element": "Li", "occu": 1}], "abc": [0.08473265, 0.25749563, 0.44118734000000004], "xyz": [0.68690988442615, 4.6581562006774195, 19.93530849368124], "label": "Li", "properties": {}}, {"species": [{"element": "Li", "occu": 1}], "abc": [0.68615688, 0.25750081, 0.43689026000000003], "xyz": [5.562530419372079, 4.65824990808954, 19.74114241579236], "label": "Li", "properties": {}}, {"species": [{"element": "Li", "occu": 1}], "abc": [0.47789403, 0.55236429, 0.46553375], "xyz": [3.87418702135773, 9.992399259343859, 21.0354152965275], "label": "Li", "properties": {}}, {"species": [{"element": "Li", "occu": 1}], "abc": [0.55356428, 0.78237431, 0.45178859000000005], "xyz": [4.48762992302548, 14.15333434348854, 20.414332187263742], "label": "Li", "properties": {}}, {"species": [{"element": "Li", "occu": 1}], "abc": [0.9866085, 0.99053594, 0.43598586], "xyz": [7.998228908323499, 17.91902694000996, 19.700276571813962], "label": "Li", "properties": {}}, {"species": [{"element": "Li", "occu": 1}], "abc": [0.9887554, 0.43089543, 0.46132686], "xyz": [8.015633377921398, 7.7949991582306195, 20.84532450663996], "label": "Li", "properties": {}}, {"species": [{"element": "Li", "occu": 1}], "abc": [0.68779619, 0.42748013, 0.42926208000000005], "xyz": [5.57581996292629, 7.73321558205042, 19.39645863237888], "label": "Li", "properties": {}}, {"species": [{"element": "Li", "occu": 1}], "abc": [0.52658826, 0.98630353, 0.43941688], "xyz": [4.26894096687366, 17.84246165272602, 19.85530922109168], "label": "Li", "properties": {}}, {"species": [{"element": "P", "occu": 1}], "abc": [0.1679642, 0.79617332, 0.045786360000000026], "xyz": [1.3616506648822, 14.402961663356878, 2.0688835074069614], "label": "P", "properties": {}}, {"species": [{"element": "P", "occu": 1}], "abc": [0.24349866, 0.577186, 0.14135669000000003], "xyz": [1.9739927454000599, 10.441429801523999, 6.3872848726703415], "label": "P", "properties": {}}, {"species": [{"element": "P", "occu": 1}], "abc": [0.74471008, 0.83267151, 0.10571133000000003], "xyz": [6.03720897415328, 15.063222461033337, 4.776628392889382], "label": "P", "properties": {}}, {"species": [{"element": "P", "occu": 1}], "abc": [0.73290724, 0.32089712, 0.12069649000000003], "xyz": [5.9415258170668395, 5.805103990726079, 5.453741628793141], "label": "P", "properties": {}}, {"species": [{"element": "P", "occu": 1}], "abc": [0.24564662, 0.11214059, 0.11734367000000002], "xyz": [1.9914058081964199, 2.02864951399806, 5.302242492340621], "label": "P", "properties": {}}, {"species": [{"element": "P", "occu": 1}], "abc": [0.24962312, 0.34092413, 0.23924655], "xyz": [2.0236424626079197, 6.16739728794642, 10.8104955602283], "label": "P", "properties": {}}, {"species": [{"element": "P", "occu": 1}], "abc": [0.75395595, 0.59633407, 0.20722961], "xyz": [6.11216330985645, 10.78782286847238, 9.363791364401461], "label": "P", "properties": {}}, {"species": [{"element": "P", "occu": 1}], "abc": [0.75017665, 0.05098745, 0.22228147000000004], "xyz": [6.08152531463015, 0.9223749015632999, 10.043918478891422], "label": "P", "properties": {}}, {"species": [{"element": "P", "occu": 1}], "abc": [0.24432868, 0.88304285, 0.22019797000000002], "xyz": [1.9807215440658799, 15.974451788526899, 9.949774310460421], "label": "P", "properties": {}}, {"species": [{"element": "P", "occu": 1}], "abc": [0.24701843, 0.10104212, 0.33710152000000004], "xyz": [2.00252678515813, 1.8278755946560798, 15.232129722690722], "label": "P", "properties": {}}, {"species": [{"element": "P", "occu": 1}], "abc": [0.75172262, 0.35661017, 0.30524199], "xyz": [6.09405817031242, 6.45116142207978, 13.792538189956142], "label": "P", "properties": {}}, {"species": [{"element": "P", "occu": 1}], "abc": [0.74785764, 0.81456122, 0.32364155], "xyz": [6.062725585233239, 14.735603077125479, 14.6239330906983], "label": "P", "properties": {}}, {"species": [{"element": "P", "occu": 1}], "abc": [0.25460635, 0.64629238, 0.32174502000000005], "xyz": [2.0640404667228496, 11.69158038661692, 14.538237271281723], "label": "P", "properties": {}}, {"species": [{"element": "P", "occu": 1}], "abc": [0.25608574, 0.86371809, 0.43830858], "xyz": [2.07603357226034, 15.62486235813306, 19.80523003612788], "label": "P", "properties": {}}, {"species": [{"element": "P", "occu": 1}], "abc": [0.76075568, 0.1198415, 0.40299805000000005], "xyz": [6.16728729982288, 2.167960777911, 18.209703046107304], "label": "P", "properties": {}}, {"species": [{"element": "P", "occu": 1}], "abc": [0.75728141, 0.58557579, 0.42661649], "xyz": [6.13912211905531, 10.59320306583486, 19.27691609791314], "label": "P", "properties": {}}, {"species": [{"element": "P", "occu": 1}], "abc": [0.26997262, 0.37751777, 0.42349695000000004], "xyz": [2.1886116060624197, 6.829384798458179, 19.1359578549627], "label": "P", "properties": {}}, {"species": [{"element": "P", "occu": 1}], "abc": [0.83203279, 0.90033769, 0.49879943000000004], "xyz": [6.745115933676889, 16.287319491119458, 22.538544541015984], "label": "P", "properties": {}}, {"species": [{"element": "S", "occu": 1}], "abc": [0.16397898, 0.78438094, 9.999999999998899e-05], "xyz": [1.3293433192531798, 14.189634749739959, 0.004518558599999502], "label": "S", "properties": {}}, {"species": [{"element": "S", "occu": 1}], "abc": [0.93747539, 0.77777291, 0.027506790000000024], "xyz": [7.599917054373489, 14.07009394076094, 1.2429104251289411], "label": "S", "properties": {}}, {"species": [{"element": "S", "occu": 1}], "abc": [0.74860573, 0.73698042, 0.08164264000000003], "xyz": [6.068790194512429, 13.332148251218278, 3.6890705309870415], "label": "S", "properties": {}}, {"species": [{"element": "S", "occu": 1}], "abc": [0.2238661, 0.90146464, 0.05714550000000003], "xyz": [1.8148356846851, 16.30770628032576, 2.582152904763001], "label": "S", "properties": {}}, {"species": [{"element": "S", "occu": 1}], "abc": [0.72621786, 0.24181588, 0.08446102000000003], "xyz": [5.8872964114872595, 4.37450585411592, 3.8164206828577214], "label": "S", "properties": {}}, {"species": [{"element": "S", "occu": 1}], "abc": [0.24439324, 0.71042474, 0.06992842000000003], "xyz": [1.98124491849284, 12.85174978598916, 3.1597566357541216], "label": "S", "properties": {}}, {"species": [{"element": "S", "occu": 1}], "abc": [0.72997303, 0.92501126, 0.07985243000000003], "xyz": [5.91773878984673, 16.73367014603484, 3.6081788430739814], "label": "S", "properties": {}}, {"species": [{"element": "S", "occu": 1}], "abc": [0.24282218, 0.17696528, 0.07965457000000002], "xyz": [1.9685086634243798, 3.20134332507552, 3.599238423028021], "label": "S", "properties": {}}, {"species": [{"element": "S", "occu": 1}], "abc": [0.43559416, 0.56339221, 0.11183637000000003], "xyz": [3.5312708159405597, 10.191896912677139, 5.053391914562821], "label": "S", "properties": {}}, {"species": [{"element": "S", "occu": 1}], "abc": [0.53458431, 0.82857583, 0.13196343000000002], "xyz": [4.333763273049209, 14.989130651444219, 5.962844915119981], "label": "S", "properties": {}}, {"species": [{"element": "S", "occu": 1}], "abc": [0.49662955, 0.35625574, 0.13319613000000002], "xyz": [4.026071966274049, 6.444749700443159, 6.018545186982181], "label": "S", "properties": {}}, {"species": [{"element": "S", "occu": 1}], "abc": [0.45458969, 0.04824597, 0.11502951000000003], "xyz": [3.6852636075847895, 0.87278088685698, 5.197675816642861], "label": "S", "properties": {}}, {"species": [{"element": "S", "occu": 1}], "abc": [0.03015793, 0.05416604, 0.12103606000000003], "xyz": [0.24448403550262998, 0.9798763384533599, 5.469085298231161], "label": "S", "properties": {}}, {"species": [{"element": "S", "occu": 1}], "abc": [0.10620841, 0.35651096, 0.11660600000000003], "xyz": [0.86100938231231, 6.44936668996464, 5.2689104411160015], "label": "S", "properties": {}}, {"species": [{"element": "S", "occu": 1}], "abc": [0.96274746, 0.83461431, 0.12945265000000003], "xyz": [7.804792444000859, 15.09836816764854, 5.849393849502902], "label": "S", "properties": {}}, {"species": [{"element": "S", "occu": 1}], "abc": [0.01609394, 0.56094864, 0.12177608000000002], "xyz": [0.13047020794654, 10.147692159581759, 5.502523535582881], "label": "S", "properties": {}}, {"species": [{"element": "S", "occu": 1}], "abc": [0.75310173, 0.48781673, 0.19043490000000002], "xyz": [6.10523832684843, 8.82471879481482, 8.6049125513514], "label": "S", "properties": {}}, {"species": [{"element": "S", "occu": 1}], "abc": [0.2483719, 0.68515113, 0.15518767], "xyz": [2.0134990835729, 12.39454426706442, 7.01224580892462], "label": "S", "properties": {}}, {"species": [{"element": "S", "occu": 1}], "abc": [0.26716019, 0.17323091, 0.15655021000000002], "xyz": [2.16581182385029, 3.1337876979329398, 7.073812977273061], "label": "S", "properties": {}}, {"species": [{"element": "S", "occu": 1}], "abc": [0.74967946, 0.99782049, 0.1812488], "xyz": [6.077494699212859, 18.05080615409466, 8.1898332397968], "label": "S", "properties": {}}, {"species": [{"element": "S", "occu": 1}], "abc": [0.27307587, 0.501093, 0.17475815], "xyz": [2.21376900523317, 9.064889625762, 7.8965494160259], "label": "S", "properties": {}}, {"species": [{"element": "S", "occu": 1}], "abc": [0.74787798, 0.67578933, 0.17584402], "xyz": [6.06289047736218, 12.22518711440322, 7.945615088295719], "label": "S", "properties": {}}, {"species": [{"element": "S", "occu": 1}], "abc": [0.78687264, 0.24946939, 0.15703731000000004], "xyz": [6.379012036098239, 4.51295964093726, 7.095822876213662], "label": "S", "properties": {}}, {"species": [{"element": "S", "occu": 1}], "abc": [0.25085064, 0.95236426, 0.18360096000000004], "xyz": [2.03359371069624, 17.22849231663684, 8.296116967762561], "label": "S", "properties": {}}, {"species": [{"element": "S", "occu": 1}], "abc": [0.47336679, 0.33589345, 0.21832394], "xyz": [3.8374856328708895, 6.076391109567299, 9.86509516672884], "label": "S", "properties": {}}, {"species": [{"element": "S", "occu": 1}], "abc": [0.54061317, 0.60370938, 0.23215750000000002], "xyz": [4.38263798103747, 10.921243952194919, 10.490172681795], "label": "S", "properties": {}}, {"species": [{"element": "S", "occu": 1}], "abc": [0.53597528, 0.11232848, 0.2231261], "xyz": [4.34503957612648, 2.0320484880643197, 10.0820835803946], "label": "S", "properties": {}}, {"species": [{"element": "S", "occu": 1}], "abc": [0.45488255, 0.82066898, 0.22041404000000003], "xyz": [3.6876377623970495, 14.846093884741318, 9.959537560027442], "label": "S", "properties": {}}, {"species": [{"element": "S", "occu": 1}], "abc": [0.03120227, 0.82178046, 0.21791165], "xyz": [0.25295028161557, 14.86620081802764, 9.8464656014769], "label": "S", "properties": {}}, {"species": [{"element": "S", "occu": 1}], "abc": [0.96198866, 0.11403542, 0.22301915], "xyz": [7.7986410109900595, 2.06292743208828, 10.0772509819719], "label": "S", "properties": {}}, {"species": [{"element": "S", "occu": 1}], "abc": [0.9688535, 0.60211755, 0.23126351], "xyz": [7.8542928341185, 10.8924473750067, 10.44977721976686], "label": "S", "properties": {}}, {"species": [{"element": "S", "occu": 1}], "abc": [0.04774932, 0.33803245, 0.21123555], "xyz": [0.38709375763211995, 6.1150861200932995, 9.5448021107823], "label": "S", "properties": {}}, {"species": [{"element": "S", "occu": 1}], "abc": [0.75811778, 0.25254774, 0.28561455], "xyz": [6.145902395843979, 4.56864771277116, 12.9056608118763], "label": "S", "properties": {}}, {"species": [{"element": "S", "occu": 1}], "abc": [0.24301454, 0.44514076, 0.25878113], "xyz": [1.97006808574114, 8.05270051133784, 11.693177004792181], "label": "S", "properties": {}}, {"species": [{"element": "S", "occu": 1}], "abc": [0.23774946, 0.93592374, 0.26098181000000004], "xyz": [1.9273851825828598, 16.931079462755157, 11.792616020190662], "label": "S", "properties": {}}, {"species": [{"element": "S", "occu": 1}], "abc": [0.74371187, 0.76184006, 0.28280996], "xyz": [6.02911669430917, 13.78186495597404, 12.778933769236561], "label": "S", "properties": {}}, {"species": [{"element": "S", "occu": 1}], "abc": [0.23424176, 0.25229593, 0.26734258000000005], "xyz": [1.8989489917921598, 4.5640924109476195, 12.080031140051883], "label": "S", "properties": {}}, {"species": [{"element": "S", "occu": 1}], "abc": [0.76430468, 0.44537701, 0.27708249], "xyz": [6.196058301081879, 8.05697432912034, 12.520134680989141], "label": "S", "properties": {}}, {"species": [{"element": "S", "occu": 1}], "abc": [0.74981027, 0.98234902, 0.25820989000000005], "xyz": [6.078555148543569, 17.77092364147068, 11.667365190645542], "label": "S", "properties": {}}, {"species": [{"element": "S", "occu": 1}], "abc": [0.26481405, 0.71384793, 0.28557011000000004], "xyz": [2.14679215721355, 12.913676094115619, 12.903652764434462], "label": "S", "properties": {}}, {"species": [{"element": "S", "occu": 1}], "abc": [0.45879793, 0.09406987, 0.311711], "xyz": [3.71937892974263, 1.70174596064958, 14.084844197646001], "label": "S", "properties": {}}, {"species": [{"element": "S", "occu": 1}], "abc": [0.52914828, 0.36057853, 0.32654747], "xyz": [4.28969451396948, 6.522949983076019, 14.75523878876742], "label": "S", "properties": {}}, {"species": [{"element": "S", "occu": 1}], "abc": [0.53598195, 0.87656927, 0.32563361], "xyz": [4.34509364842245, 15.857343211509178, 14.71394548914546], "label": "S", "properties": {}}, {"species": [{"element": "S", "occu": 1}], "abc": [0.4618765, 0.57994499, 0.3227198], "xyz": [3.7443362533115, 10.491340576227659, 14.5822832768028], "label": "S", "properties": {}}, {"species": [{"element": "S", "occu": 1}], "abc": [0.03623335, 0.5887707, 0.31927042000000005], "xyz": [0.29373619567984993, 10.650999735343799, 14.426421020166122], "label": "S", "properties": {}}, {"species": [{"element": "S", "occu": 1}], "abc": [0.95936494, 0.87619211, 0.32382255000000004], "xyz": [7.77737106130754, 15.850520298853738, 14.632111681764302], "label": "S", "properties": {}}, {"species": [{"element": "S", "occu": 1}], "abc": [0.95558625, 0.36081723, 0.33276326], "xyz": [7.74673801122375, 6.52726812193182, 15.036102902370361], "label": "S", "properties": {}}, {"species": [{"element": "S", "occu": 1}], "abc": [0.0303372, 0.09563072, 0.31360401000000004], "xyz": [0.2459373399252, 1.7299821023884798, 14.170380963799863], "label": "S", "properties": {}}, {"species": [{"element": "S", "occu": 1}], "abc": [0.75471394, 0.01194478, 0.38914055000000003], "xyz": [6.11830817636654, 0.21608386527852, 17.5835437881123], "label": "S", "properties": {}}, {"species": [{"element": "S", "occu": 1}], "abc": [0.24992514, 0.20950446, 0.35401170000000004], "xyz": [2.02609087562574, 3.78998470544364, 15.996226115356203], "label": "S", "properties": {}}, {"species": [{"element": "S", "occu": 1}], "abc": [0.25196291, 0.69999977, 0.36265714000000004], "xyz": [2.0426106511218096, 12.66315963924618, 16.38687538798404], "label": "S", "properties": {}}, {"species": [{"element": "S", "occu": 1}], "abc": [0.73759478, 0.52431284, 0.38749737], "xyz": [5.97952672415098, 9.484941964804559, 17.509295736908822], "label": "S", "properties": {}}, {"species": [{"element": "S", "occu": 1}], "abc": [0.25427277, 0.02120617, 0.36832789000000005], "xyz": [2.0613362033810696, 0.38362457754378, 16.64311154979354], "label": "S", "properties": {}}, {"species": [{"element": "S", "occu": 1}], "abc": [0.73089017, 0.19602156, 0.36959040000000004], "xyz": [5.92517385214447, 3.54607588944504, 16.700158803974404], "label": "S", "properties": {}}, {"species": [{"element": "S", "occu": 1}], "abc": [0.75018819, 0.74494969, 0.36016542], "xyz": [6.08161886699829, 13.476314210327459, 16.27428555963612], "label": "S", "properties": {}}, {"species": [{"element": "S", "occu": 1}], "abc": [0.21636301, 0.44987458, 0.38742279], "xyz": [1.7540097022009098, 8.13833642285172, 17.50592579590494], "label": "S", "properties": {}}, {"species": [{"element": "S", "occu": 1}], "abc": [0.47019606, 0.86841759, 0.41323738000000004], "xyz": [3.8117811874434597, 15.709877412816057, 18.672373172404683], "label": "S", "properties": {}}, {"species": [{"element": "S", "occu": 1}], "abc": [0.56886925, 0.13429241, 0.43251516], "xyz": [4.61170411607675, 2.42938112132394, 19.54345095848376], "label": "S", "properties": {}}, {"species": [{"element": "S", "occu": 1}], "abc": [0.54556666, 0.64803702, 0.42894906000000005], "xyz": [4.42279488918806, 11.723141332462678, 19.382314640249163], "label": "S", "properties": {}}, {"species": [{"element": "S", "occu": 1}], "abc": [0.50605266, 0.34245101, 0.41070841], "xyz": [4.10246314961406, 6.195018904436339, 18.55810018097826], "label": "S", "properties": {}}, {"species": [{"element": "S", "occu": 1}], "abc": [0.8964604, 0.34154741, 0.42778099], "xyz": [7.2674171025764, 6.17867256899394, 19.32953471281014], "label": "S", "properties": {}}, {"species": [{"element": "S", "occu": 1}], "abc": [0.9707902, 0.64462638, 0.42292060000000004], "xyz": [7.8699932562482, 11.66144205677292, 19.109915142471603], "label": "S", "properties": {}}, {"species": [{"element": "S", "occu": 1}], "abc": [0.98844166, 0.13595024, 0.42246699000000004], "xyz": [8.01308995331306, 2.45937165395616, 19.08941850880614], "label": "S", "properties": {}}, {"species": [{"element": "S", "occu": 1}], "abc": [0.04142898, 0.86275601, 0.41341205000000003], "xyz": [0.33585608220318, 15.607458105806339, 18.680265738711302], "label": "S", "properties": {}}, {"species": [{"element": "S", "occu": 1}], "abc": [0.77496358, 0.79552791, 0.48699975], "xyz": [6.28246777567178, 14.39128604543094, 22.0053690856035], "label": "S", "properties": {}}, {"species": [{"element": "S", "occu": 1}], "abc": [0.24991598, 0.95871832, 0.46280361000000003], "xyz": [2.02601661742018, 17.34343874888688, 20.91205232076546], "label": "S", "properties": {}}, {"species": [{"element": "S", "occu": 1}], "abc": [0.27722262, 0.45586154, 0.45999582000000006], "xyz": [2.2473858408124197, 8.24664193020036, 20.785180684250523], "label": "S", "properties": {}}, {"species": [{"element": "S", "occu": 1}], "abc": [0.26516864, 0.77070309, 0.46378558000000003], "xyz": [2.14966674423424, 13.94219924262306, 20.95642321064988], "label": "S", "properties": {}}, {"species": [{"element": "S", "occu": 1}], "abc": [0.75863953, 0.98707337, 0.47491093], "xyz": [6.150132114048229, 17.85638823846858, 21.45912866985498], "label": "S", "properties": {}}, {"species": [{"element": "S", "occu": 1}], "abc": [0.76174572, 0.52126027, 0.46445420000000004], "xyz": [6.175313347184519, 9.42972025920318, 20.986635197161203], "label": "S", "properties": {}}, {"species": [{"element": "S", "occu": 1}], "abc": [0.83516404, 0.91112366, 0.54452873], "xyz": [6.770500322995639, 16.48244021233644, 24.60484975888578], "label": "S", "properties": {}}, {"species": [{"element": "S", "occu": 1}], "abc": [0.06241682, 0.91701438, 0.5173150200000001], "xyz": [0.5060001146246199, 16.58900471556492, 23.375182325301722], "label": "S", "properties": {}}]}, "formula": "(Li3PS4)18.0", "bandgap": 1.6517, "slab_thickness": 24.60033120028578}