{"miller": "110_0.46", "final_energy": -699.38578135, "gamma": 0.015781321892733964, "work_function": "Not calculated", "ionization_potentail": "Not calculated", "electron_affinity": "Not calculated", "is_stochiometric": true, "incar_parameters": {"SYSTEM": "unknown system", "LCOMPAT": false, "PREC": "normal", "ENMAX": 520.0, "ENAUG": 628.945, "EDIFF": 1e-05, "IALGO": 38, "IWAVPR": 11, "NBANDS": 462, "NBANDSLOW": -1, "NBANDSHIGH": -1, "NELECT": 760.0, "TURBO": 0, "IRESTART": 0, "NREBOOT": 0, "NMIN": 0, "EREF": 0.0, "ISMEAR": 0, "SIGMA": 0.05, "KSPACING": 0.5, "KGAMMA": true, "KBLOWUP": true, "LREAL": true, "ROPT": [-0.0005, -0.0005, -0.0005], "LMAXPAW": -100, "LMAXMIX": 2, "NLSPLINE": false, "ISTART": 0, "ICHARG": 2, "INIWAV": 1, "ISPIN": 1, "LNONCOLLINEAR": false, "MAGMOM": [0.6, 0.6, 0.6, 0.6, 0.6, 0.6, 0.6, 0.6, 0.6, 0.6, 0.6, 0.6, 0.6, 0.6, 0.6, 0.6, 0.6, 0.6, 0.6, 0.6, 0.6, 0.6, 0.6, 0.6, 0.6, 0.6, 0.6, 0.6, 0.6, 0.6, 0.6, 0.6, 0.6, 0.6, 0.6, 0.6, 0.6, 0.6, 0.6, 0.6, 0.6, 0.6, 0.6, 0.6, 0.6, 0.6, 0.6, 0.6, 0.6, 0.6, 0.6, 0.6, 0.6, 0.6, 0.6, 0.6, 0.6, 0.6, 0.6, 0.6, 0.6, 0.6, 0.6, 0.6, 0.6, 0.6, 0.6, 0.6, 0.6, 0.6, 0.6, 0.6, 0.6, 0.6, 0.6, 0.6, 0.6, 0.6, 0.6, 0.6, 0.6, 0.6, 0.6, 0.6, 0.6, 0.6, 0.6, 0.6, 0.6, 0.6, 0.6, 0.6, 0.6, 0.6, 0.6, 0.6, 0.6, 0.6, 0.6, 0.6, 0.6, 0.6, 0.6, 0.6, 0.6, 0.6, 0.6, 0.6, 0.6, 0.6, 0.6, 0.6, 0.6, 0.6, 0.6, 0.6, 0.6, 0.6, 0.6, 0.6, 0.6, 0.6, 0.6, 0.6, 0.6, 0.6, 0.6, 0.6, 0.6, 0.6, 0.6, 0.6, 0.6, 0.6, 0.6, 0.6, 0.6, 0.6, 0.6, 0.6, 0.6, 0.6, 0.6, 0.6, 0.6, 0.6, 0.6, 0.6, 0.6, 0.6, 0.6, 0.6, 0.6, 0.6, 0.6, 0.6, 0.6, 0.6, 0.6, 0.6], "NUPDOWN": -1.0, "LSORBIT": false, "SAXIS": [0.0, 0.0, 1.0], "LSPIRAL": false, "QSPIRAL": [0.0, 0.0, 0.0], "LZEROZ": false, "LASPH": false, "LMETAGGA": false, "NELM": 100, "NELMDL": -5, "NELMIN": 6, "ENINI": 520.0, "LDIAG": true, "LSUBROT": false, "WEIMIN": 0.001, "EBREAK": 1e-08, "DEPER": 0.3, "NRMM": 4, "TIME": 0.4, "AMIX": 0.4, "BMIX": 1.0, "AMIN": 0.1, "AMIX_MAG": 1.6, "BMIX_MAG": 1.0, "IMIX": 4, "MIXFIRST": false, "MAXMIX": -45, "WC": 100.0, "INIMIX": 1, "MIXPRE": 1, "MREMOVE": 5, "LDIPOL": false, "LMONO": false, "IDIPOL": 0, "EPSILON": 1.0, "DIPOL": [-100.0, -100.0, -100.0], "EFIELD": 0.0, "NGX": 80, "NGY": 60, "NGZ": 280, "NGXF": 160, "NGYF": 120, "NGZF": 560, "ADDGRID": false, "NSW": 150, "IBRION": 2, "MDALGO": 0, "ISIF": 2, "PSTRESS": 0.0, "EDIFFG": -0.01, "NFREE": 1, "POTIM": 0.5, "SMASS": -3.0, "SCALEE": 1.0, "TEBEG": 0.0001, "TEEND": 0.0001, "NBLOCK": 1, "KBLOCK": 150, "NPACO": 256, "APACO": 10.0, "ISYM": 0, "SYMPREC": 1e-05, "LORBIT": 11, "RWIGS": [-1.0, -1.0, -1.0], "NEDOS": 301, "EMIN": 10.0, "EMAX": -10.0, "EFERMI": 0.0, "NWRITE": 2, "LWAVE": false, "LDOWNSAMPLE": false, "LCHARG": false, "LPARD": false, "LVTOT": false, "LVHAR": false, "LELF": false, "LOPTICS": false, "STM": [0.0, 0.0, 0.0, 0.0, 0.0, 0.0, 0.0], "NPAR": 2, "NSIM": 4, "NBLK": -1, "LPLANE": true, "LSCALAPACK": true, "LSCAAWARE": false, "LSCALU": false, "LASYNC": false, "LORBITALREAL": false, "IDIOT": 3, "PHON_NSTRUCT": -1, "LMUSIC": false, "POMASS": [7.01, 30.974, 32.066], "DARWINR": [0.0, 0.0, 0.0], "DARWINV": [1.0, 1.0, 1.0], "LCORR": true, "GGA_COMPAT": true, "LBERRY": false, "ICORELEVEL": 0, "LDAU": false, "I_CONSTRAINED_M": 0, "GGA": "--", "VOSKOWN": 0, "LHFCALC": false, "PRECFOCK": "", "LSYMGRAD": false, "LHFONE": false, "LRHFCALC": false, "LTHOMAS": false, "LMODELHF": false, "LFOCKACE": false, "ENCUT4O": -1.0, "EXXOEP": 0, "FOURORBIT": 0, "AEXX": 0.0, "HFALPHA": 0.0, "MCALPHA": 0.0, "ALDAX": 1.0, "AGGAX": 1.0, "ALDAC": 1.0, "AGGAC": 1.0, "NKREDX": 1, "NKREDY": 1, "NKREDZ": 1, "SHIFTRED": false, "ODDONLY": false, "EVENONLY": false, "LMAXFOCK": 0, "NMAXFOCKAE": 0, "LFOCKAEDFT": false, "HFSCREEN": 0.0, "HFSCREENC": 0.0, "NBANDSGWLOW": 0, "LUSE_VDW": false, "Zab_VDW": -0.8491, "PARAM1": 0.1234, "PARAM2": 1.0, "PARAM3": 0.0, "MODEL_GW": 0, "MODEL_EPS0": 24.84988353, "MODEL_ALPHA": 1.0, "LEPSILON": false, "LRPA": false, "LNABLA": false, "LVEL": false, "CSHIFT": 0.1, "OMEGAMAX": -1.0, "DEG_THRESHOLD": 0.002, "RTIME": -0.1, "WPLASMAI": 0.0, "DFIELD": [0.0, 0.0, 0.0], "WPLASMA": [0.0, 0.0, 0.0, 0.0, 0.0, 0.0, 0.0, 0.0, 0.0], "NUCIND": false, "MAGPOS": [0.0, 0.0, 0.0], "LNICSALL": true, "ORBITALMAG": false, "LMAGBLOCH": false, "LCHIMAG": false, "LGAUGE": true, "MAGATOM": 0, "MAGDIPOL": [0.0, 0.0, 0.0], "AVECCONST": [0.0, 0.0, 0.0], "LFINITE_TEMPERATURE": false, "LADDER": false, "LRPAFORCE": false, "LFXC": false, "LHARTREE": true, "IBSE": 0, "KPOINT": [-1, 0, 0, 0], "LTCTC": false, "LTCTE": false, "LTETE": false, "LTRIPLET": false, "LFXCEPS": false, "LFXHEG": false, "NATURALO": 2, "LHOLEGF": false, "L2ORDER": false, "LDMP1": false, "LMP2LT": false, "LSMP2LT": false, "LGWLF": false, "ENCUTGW": -2.0, "ENCUTGWSOFT": -2.0, "ENCUTLF": -1.0, "LESF_SPLINES": false, "LMAXMP2": -1, "SCISSOR": 0.0, "NOMEGA": 0, "NOMEGAR": 0, "NBANDSGW": -1, "NBANDSO": -1, "NBANDSV": -1, "NELMGW": 1, "NELMHF": 1, "DIM": 3, "IESPILON": 4, "ANTIRES": 0, "OMEGAMIN": -30.0, "OMEGATL": -200.0, "OMEGAGRID": 0, "LSELFENERGY": false, "LSPECTRAL": false, "LSPECTRALGW": false, "LSINGLES": false, "LFERMIGW": false, "ODDONLYGW": false, "EVENONLYGW": false, "NKREDLFX": 1, "NKREDLFY": 1, "NKREDLFZ": 1, "MAXMEM": 2800, "TELESCOPE": 0, "NTAUPAR": -1, "NOMEGAPAR": -1, "DAMP_NEWTON": 0.80000001, "LAMBDA": 1.0, "OFIELD_KAPPA": 0.0, "OFIELD_K": [0.0, 0.0, 0.0], "OFIELD_Q6_NEAR": 0.0, "OFIELD_Q6_FAR": 0.0, "OFIELD_A": 0.0, "KPOINTS_OPT_MODE": 1, "LKPOINTS_OPT": false, "@module": "pymatgen.io.vasp.inputs", "@class": "Incar"}, "relaxed_structures": {"@module": "pymatgen.core.structure", "@class": "Structure", "charge": 0, "lattice": {"matrix": [[13.057895, 0.0, 0.0], [0.0, 10.242414, 0.0], [0.0, 0.0, 49.547026]], "a": 13.057895, "b": 10.242414, "c": 49.547026, "alpha": 90.0, "beta": 90.0, "gamma": 90.0, "volume": 6626.635607229017}, "sites": [{"species": [{"element": "Li", "occu": 1}], "abc": [0.15797768, 0.84301732, 0.03153608], "xyz": [2.0628559577836003, 8.63453240061048, 1.5625189756980802], "label": "Li", "properties": {}}, {"species": [{"element": "Li", "occu": 1}], "abc": [0.8489764, 0.73429927, 0.04862721], "xyz": [11.085844688678, 7.5209971232377795, 2.40933363817746], "label": "Li", "properties": {}}, {"species": [{"element": "Li", "occu": 1}], "abc": [0.32899369, 0.60187445, 0.07862876], "xyz": [4.29596505968255, 6.164647292922299, 3.8958212160677603], "label": "Li", "properties": {}}, {"species": [{"element": "Li", "occu": 1}], "abc": [0.66910439, 0.89107487, 0.026790960000000003], "xyz": [8.73709486865905, 9.12675772353618, 1.3274123916849603], "label": "Li", "properties": {}}, {"species": [{"element": "Li", "occu": 1}], "abc": [0.66477984, 0.23579502, 0.04792638], "xyz": [8.6806253488368, 2.41511021397828, 2.37460959594588], "label": "Li", "properties": {}}, {"species": [{"element": "Li", "occu": 1}], "abc": [0.30650432, 0.34062206, 0.033879189999999997], "xyz": [4.0023012276064, 3.48879215605284, 1.67861310778894], "label": "Li", "properties": {}}, {"species": [{"element": "Li", "occu": 1}], "abc": [0.8434088, 0.37700136, 0.02350551], "xyz": [11.013143552476, 3.8614040076830403, 1.16462811511326], "label": "Li", "properties": {}}, {"species": [{"element": "Li", "occu": 1}], "abc": [0.17110194, 0.10831093, 0.07953498], "xyz": [2.2342311668163, 1.10936538578502, 3.9407217219694806], "label": "Li", "properties": {}}, {"species": [{"element": "Li", "occu": 1}], "abc": [0.48388402, 0.81476909, 0.05817118], "xyz": [6.3185067253379, 8.34520233418326, 2.8822089679106804], "label": "Li", "properties": {}}, {"species": [{"element": "Li", "occu": 1}], "abc": [0.4893668, 0.38111817, 0.0028556099999999997], "xyz": [6.390100290886, 3.90357008006238, 0.14148698291585998], "label": "Li", "properties": {}}, {"species": [{"element": "Li", "occu": 1}], "abc": [0.02267692, 0.29231968, 0.054968420000000004], "xyz": [0.2961128402834, 2.9940591829075203, 2.7235217349189202], "label": "Li", "properties": {}}, {"species": [{"element": "Li", "occu": 1}], "abc": [0.16776885, 0.48312888, 0.13656776999999998], "xyz": [2.19070802757075, 4.94840600431632, 6.766526850952019], "label": "Li", "properties": {}}, {"species": [{"element": "Li", "occu": 1}], "abc": [0.83705725, 0.36512308, 0.15163647000000002], "xyz": [10.93020567948875, 3.73974174631512, 7.5131361216382215], "label": "Li", "properties": {}}, {"species": [{"element": "Li", "occu": 1}], "abc": [0.32443175, 0.25514744, 0.17948894999999998], "xyz": [4.236395726166251, 2.6133257115201602, 8.893143672362699], "label": "Li", "properties": {}}, {"species": [{"element": "Li", "occu": 1}], "abc": [0.6686987, 0.59329889, 0.10559937999999999], "xyz": [8.7317974112365, 6.07681285712046, 5.23213522644388], "label": "Li", "properties": {}}, {"species": [{"element": "Li", "occu": 1}], "abc": [0.67163498, 0.86650801, 0.1488907], "xyz": [8.7701390471671, 8.87513377273614, 7.3770913840581995], "label": "Li", "properties": {}}, {"species": [{"element": "Li", "occu": 1}], "abc": [0.33622672, 0.98423781, 0.13395965999999998], "xyz": [4.3904132059544, 10.08097112447334, 6.63730275697116], "label": "Li", "properties": {}}, {"species": [{"element": "Li", "occu": 1}], "abc": [0.82464002, 0.10819829, 0.1039407], "xyz": [10.7680627939579, 1.10821168027206, 5.1499525653582], "label": "Li", "properties": {}}, {"species": [{"element": "Li", "occu": 1}], "abc": [0.16113334, 0.76312862, 0.17847649999999998], "xyz": [2.1040622347193003, 7.81627926128868, 8.842979785889], "label": "Li", "properties": {}}, {"species": [{"element": "Li", "occu": 1}], "abc": [0.01124644, 0.58018726, 0.09280406], "xyz": [0.1468548326438, 5.94251811444564, 4.59816517372556], "label": "Li", "properties": {}}, {"species": [{"element": "Li", "occu": 1}], "abc": [0.4941165, 0.43319396, 0.15463536], "xyz": [6.452121374767501, 4.43695188061944, 7.6617222024393605], "label": "Li", "properties": {}}, {"species": [{"element": "Li", "occu": 1}], "abc": [0.50420639, 0.1627728, 0.0918852], "xyz": [6.5838740989490505, 1.6671864055392, 4.5526383934152], "label": "Li", "properties": {}}, {"species": [{"element": "Li", "occu": 1}], "abc": [0.98642305, 0.91495713, 0.12996874000000003], "xyz": [12.88060861247975, 9.37136971771182, 6.439564539967241], "label": "Li", "properties": {}}, {"species": [{"element": "Li", "occu": 1}], "abc": [0.16900628, 0.10996449, 0.23750475999999998], "xyz": [2.2068662585806003, 1.12630183187886, 11.76765451884376], "label": "Li", "properties": {}}, {"species": [{"element": "Li", "occu": 1}], "abc": [0.83025619, 0.99168433, 0.24956354000000003], "xyz": [10.84139815212005, 10.15724146517262, 12.365131205032043], "label": "Li", "properties": {}}, {"species": [{"element": "Li", "occu": 1}], "abc": [0.33700831, 0.89599071, 0.27813816], "xyz": [4.40061912610745, 9.17710779197394, 13.780918645112163], "label": "Li", "properties": {}}, {"species": [{"element": "Li", "occu": 1}], "abc": [0.67117237, 0.21840866, 0.20710967000000002], "xyz": [8.76409833436115, 2.23703191690524, 10.261668204341422], "label": "Li", "properties": {}}, {"species": [{"element": "Li", "occu": 1}], "abc": [0.66643706, 0.49027368, 0.25086611000000003], "xyz": [8.7022651535887, 5.02158600386352, 12.429669674688862], "label": "Li", "properties": {}}, {"species": [{"element": "Li", "occu": 1}], "abc": [0.33409491, 0.61162968, 0.23569011], "xyz": [4.36257625481445, 6.264564397247519, 11.67774400811286], "label": "Li", "properties": {}}, {"species": [{"element": "Li", "occu": 1}], "abc": [0.83834479, 0.72174984, 0.20637515], "xyz": [10.94701824161705, 7.3924606657137595, 10.225274922803901], "label": "Li", "properties": {}}, {"species": [{"element": "Li", "occu": 1}], "abc": [0.16934313, 0.37217763, 0.2810668], "xyz": [2.21126481051135, 3.8119973679988197, 13.926024047336801], "label": "Li", "properties": {}}, {"species": [{"element": "Li", "occu": 1}], "abc": [0.00668535, 0.19069739, 0.19392979999999999], "xyz": [0.08729659833825, 1.95320161709946, 9.6086448427748], "label": "Li", "properties": {}}, {"species": [{"element": "Li", "occu": 1}], "abc": [0.5083883, 0.04647943, 0.23433302], "xyz": [6.6384810406285, 0.47606156454402004, 11.61050423459852], "label": "Li", "properties": {}}, {"species": [{"element": "Li", "occu": 1}], "abc": [0.50814047, 0.76964381, 0.19146459999999998], "xyz": [6.6352449025106495, 7.88301053455734, 9.486501514279599], "label": "Li", "properties": {}}, {"species": [{"element": "Li", "occu": 1}], "abc": [0.00661887, 0.55723246, 0.25174052], "xyz": [0.08642850947865, 5.70740554955844, 12.472994089693522], "label": "Li", "properties": {}}, {"species": [{"element": "Li", "occu": 1}], "abc": [0.16470658, 0.74079703, 0.33328383], "xyz": [2.1507212274491, 7.5875498712304195, 16.51322259038958], "label": "Li", "properties": {}}, {"species": [{"element": "Li", "occu": 1}], "abc": [0.82966029, 0.62166631, 0.34922661], "xyz": [10.83361695248955, 6.36736371687234, 17.30313992556186], "label": "Li", "properties": {}}, {"species": [{"element": "Li", "occu": 1}], "abc": [0.33111845, 0.50980539, 0.38046028000000004], "xyz": [4.3237099526627505, 5.22163786381146, 18.850675385127282], "label": "Li", "properties": {}}, {"species": [{"element": "Li", "occu": 1}], "abc": [0.6725706, 0.85305023, 0.30629126], "xyz": [8.782356274887, 8.73729361845522, 15.17582102279276], "label": "Li", "properties": {}}, {"species": [{"element": "Li", "occu": 1}], "abc": [0.66311916, 0.11841771, 0.35291259], "xyz": [8.6589403637682, 1.21288321075194, 17.485769272457343], "label": "Li", "properties": {}}, {"species": [{"element": "Li", "occu": 1}], "abc": [0.32871475, 0.23368722, 0.33927042], "xyz": [4.29232269045125, 2.39352125374908, 16.80984032077092], "label": "Li", "properties": {}}, {"species": [{"element": "Li", "occu": 1}], "abc": [0.83643277, 0.33429137, 0.30903993], "xyz": [10.922051285219151, 3.4239506081671798, 15.312009446748181], "label": "Li", "properties": {}}, {"species": [{"element": "Li", "occu": 1}], "abc": [0.17403533, 0.9925643, 0.38229598000000004], "xyz": [2.27253506543035, 10.1662544822202, 18.941628860755483], "label": "Li", "properties": {}}, {"species": [{"element": "Li", "occu": 1}], "abc": [0.99162972, 0.91849064, 0.29279691], "xyz": [12.9485967626394, 9.407561390004961, 14.507216112489662], "label": "Li", "properties": {}}, {"species": [{"element": "Li", "occu": 1}], "abc": [0.50452905, 0.66885339, 0.33183024], "xyz": [6.588087359349751, 6.85067332568346, 16.44120152886624], "label": "Li", "properties": {}}, {"species": [{"element": "Li", "occu": 1}], "abc": [0.49081133, 0.31594173, 0.29493507], "xyz": [6.40896281195035, 3.23600599853622, 14.613155581601822], "label": "Li", "properties": {}}, {"species": [{"element": "Li", "occu": 1}], "abc": [0.01309074, 0.18762276, 0.35711946], "xyz": [0.1709375083923, 1.9217099837426401, 17.69420716972596], "label": "Li", "properties": {}}, {"species": [{"element": "Li", "occu": 1}], "abc": [0.15111717, 0.36783985, 0.43744339], "xyz": [1.97327213855715, 3.7675680293979004, 21.67401901785814], "label": "Li", "properties": {}}, {"species": [{"element": "Li", "occu": 1}], "abc": [0.84198112, 0.25802494, 0.45446478], "xyz": [10.9945010569424, 2.64279825780516, 22.51737827074428], "label": "Li", "properties": {}}, {"species": [{"element": "Li", "occu": 1}], "abc": [0.32905295, 0.21261717, 0.45938536], "xyz": [4.29673887054025, 2.17771307864838, 22.761178375939362], "label": "Li", "properties": {}}, {"species": [{"element": "Li", "occu": 1}], "abc": [0.67093683, 0.49965895, 0.40743523000000004], "xyz": [8.76102267777285, 5.1177138247053, 20.187203934125982], "label": "Li", "properties": {}}, {"species": [{"element": "Li", "occu": 1}], "abc": [0.6915124, 0.75988577, 0.45273705000000003], "xyz": [9.029696310398, 7.7830646490487805, 22.431774387513304], "label": "Li", "properties": {}}, {"species": [{"element": "Li", "occu": 1}], "abc": [0.3346936, 0.86718041, 0.43894614000000004], "xyz": [4.370393885972, 8.88202077190974, 21.74847581117964], "label": "Li", "properties": {}}, {"species": [{"element": "Li", "occu": 1}], "abc": [0.82793794, 0.99308771, 0.40716424], "xyz": [10.8111266870363, 10.17161546413194, 20.173777185550243], "label": "Li", "properties": {}}, {"species": [{"element": "Li", "occu": 1}], "abc": [0.15633673, 0.72373865, 0.46251922], "xyz": [2.0414286049833503, 7.4128308811011, 22.91645181883972], "label": "Li", "properties": {}}, {"species": [{"element": "Li", "occu": 1}], "abc": [0.98757232, 0.52758511, 0.39311574], "xyz": [12.895615659466399, 5.40374511685554, 19.47771579078924], "label": "Li", "properties": {}}, {"species": [{"element": "Li", "occu": 1}], "abc": [0.51859373, 0.29081031, 0.42965551], "xyz": [6.77174247399835, 2.97859959048834, 21.288152725013262], "label": "Li", "properties": {}}, {"species": [{"element": "Li", "occu": 1}], "abc": [0.49587395, 0.9401593, 0.39519246], "xyz": [6.47506997233525, 9.6295007765502, 19.58061109062396], "label": "Li", "properties": {}}, {"species": [{"element": "Li", "occu": 1}], "abc": [0.97716851, 0.80844011, 0.43094863], "xyz": [12.75976380088645, 8.280378300825541, 21.35222297527438], "label": "Li", "properties": {}}, {"species": [{"element": "Li", "occu": 1}], "abc": [0.5099314, 0.71972386, 0.48380625], "xyz": [6.658630678403001, 7.37170973979804, 23.9711608477125], "label": "Li", "properties": {}}, {"species": [{"element": "P", "occu": 1}], "abc": [0.0856519, 0.56839868, 0.03090992], "xyz": [1.1184335167505, 5.821774597613521, 1.53149460989792], "label": "P", "properties": {}}, {"species": [{"element": "P", "occu": 1}], "abc": [0.91019325, 0.01201286, 0.049649439999999996], "xyz": [11.88520788820875, 0.12304068544404001, 2.45998209456544], "label": "P", "properties": {}}, {"species": [{"element": "P", "occu": 1}], "abc": [0.4053476, 0.0763332, 0.03433258], "xyz": [5.292986399301999, 0.7818362363448, 1.70107723390708], "label": "P", "properties": {}}, {"species": [{"element": "P", "occu": 1}], "abc": [0.58924208, 0.51207538, 0.0487143], "xyz": [7.6942612102216, 5.24488804116732, 2.4136486886718003], "label": "P", "properties": {}}, {"species": [{"element": "P", "occu": 1}], "abc": [0.08697398, 0.2042694, 0.13341441999999998], "xyz": [1.1356970985721, 2.0922117623316, 6.610287736514919], "label": "P", "properties": {}}, {"species": [{"element": "P", "occu": 1}], "abc": [0.91054061, 0.63848916, 0.15161121], "xyz": [11.88974367861595, 6.53967031123224, 7.51188456376146], "label": "P", "properties": {}}, {"species": [{"element": "P", "occu": 1}], "abc": [0.40918606, 0.70260787, 0.13371615999999997], "xyz": [5.343108606943701, 7.1964006841981805, 6.625238056140159], "label": "P", "properties": {}}, {"species": [{"element": "P", "occu": 1}], "abc": [0.5868928, 0.14131345, 0.15271600000000002], "xyz": [7.663584558656, 1.4473908586683002, 7.566623622616001], "label": "P", "properties": {}}, {"species": [{"element": "P", "occu": 1}], "abc": [0.08950959, 0.83944893, 0.23489891000000002], "xyz": [1.1688068277130501, 8.59798347291702, 11.638542401141661], "label": "P", "properties": {}}, {"species": [{"element": "P", "occu": 1}], "abc": [0.91219035, 0.263849, 0.25287199], "xyz": [11.91128581031325, 2.7024506914860003, 12.52905506320174], "label": "P", "properties": {}}, {"species": [{"element": "P", "occu": 1}], "abc": [0.41140801, 0.33228906, 0.23370611000000002], "xyz": [5.37212259673895, 3.4034421201908405, 11.579442708528862], "label": "P", "properties": {}}, {"species": [{"element": "P", "occu": 1}], "abc": [0.59066549, 0.76949365, 0.25207128], "xyz": [7.71284794854355, 7.881472533671101, 12.489382264013281], "label": "P", "properties": {}}, {"species": [{"element": "P", "occu": 1}], "abc": [0.08882778, 0.4632825, 0.33453287000000004], "xyz": [1.1599038243231, 4.745131163955, 16.575108807744623], "label": "P", "properties": {}}, {"species": [{"element": "P", "occu": 1}], "abc": [0.91195204, 0.89911598, 0.35296774000000003], "xyz": [11.9081739833558, 9.20911810117572, 17.488501790941243], "label": "P", "properties": {}}, {"species": [{"element": "P", "occu": 1}], "abc": [0.41231552, 0.9631073, 0.33423210000000003], "xyz": [5.3839727670304, 9.8645436930222, 16.5602065487346], "label": "P", "properties": {}}, {"species": [{"element": "P", "occu": 1}], "abc": [0.58927859, 0.39928473, 0.35290459], "xyz": [7.694737953968051, 4.08963950853822, 17.48537289624934], "label": "P", "properties": {}}, {"species": [{"element": "P", "occu": 1}], "abc": [0.08855624, 0.08937859, 0.43692253000000003], "xyz": [1.1563580835148, 0.91545252151626, 21.648211953895782], "label": "P", "properties": {}}, {"species": [{"element": "P", "occu": 1}], "abc": [0.91358686, 0.53292966, 0.45501694000000004], "xyz": [11.9295212912597, 5.45848621059924, 22.54473615662044], "label": "P", "properties": {}}, {"species": [{"element": "P", "occu": 1}], "abc": [0.40997118, 0.58993929, 0.43756672], "xyz": [5.3533606214661, 6.04240244304606, 21.68012965257472], "label": "P", "properties": {}}, {"species": [{"element": "P", "occu": 1}], "abc": [0.5948463, 0.02619355, 0.45299056], "xyz": [7.7674405265385005, 0.2682851832297, 22.44433505407456], "label": "P", "properties": {}}, {"species": [{"element": "S", "occu": 1}], "abc": [0.13522283, 0.38489177, 0.02127734], "xyz": [1.76572551574285, 3.9422208535327803, 1.05422891819084], "label": "S", "properties": {}}, {"species": [{"element": "S", "occu": 1}], "abc": [0.8455081, 0.1964392, 0.057892620000000006], "xyz": [11.0405559914495, 2.0120116122288003, 2.8684071483481204], "label": "S", "properties": {}}, {"species": [{"element": "S", "occu": 1}], "abc": [0.34251871, 0.17508834, 0.06710065], "xyz": [4.47257335071545, 1.79332726485276, 3.3246376501669], "label": "S", "properties": {}}, {"species": [{"element": "S", "occu": 1}], "abc": [0.6600132, 0.42476934, 0.01571546], "xyz": [8.618383064214, 4.35066343478676, 0.7786543052219601], "label": "S", "properties": {}}, {"species": [{"element": "S", "occu": 1}], "abc": [0.65268387, 0.69263715, 0.058360930000000005], "xyz": [8.52267744265365, 7.0942764420801, 2.8916105160941803], "label": "S", "properties": {}}, {"species": [{"element": "S", "occu": 1}], "abc": [0.34951265, 0.89505558, 0.02819767], "xyz": [4.56389948487175, 9.167529803370119, 1.3971106886294202], "label": "S", "properties": {}}, {"species": [{"element": "S", "occu": 1}], "abc": [0.8456635, 0.92191115, 0.01725507], "xyz": [11.0425851883325, 9.4425956695161, 0.8549374019218201], "label": "S", "properties": {}}, {"species": [{"element": "S", "occu": 1}], "abc": [0.15839721, 0.65359104, 0.06412817], "xyz": [2.0683341364729504, 6.69435001837056, 3.17736010632242], "label": "S", "properties": {}}, {"species": [{"element": "S", "occu": 1}], "abc": [0.0609348, 0.05072077, 0.04165898], "xyz": [0.7956802202459999, 0.51950312473878, 2.06407856519348], "label": "S", "properties": {}}, {"species": [{"element": "S", "occu": 1}], "abc": [0.93815343, 0.53122382, 0.04784254], "xyz": [12.25030898282985, 5.44101429110148, 2.37045557328604], "label": "S", "properties": {}}, {"species": [{"element": "S", "occu": 1}], "abc": [0.43911026, 0.54295065, 0.03758135], "xyz": [5.7338556685027, 5.5611253388690995, 1.8620441255651001], "label": "S", "properties": {}}, {"species": [{"element": "S", "occu": 1}], "abc": [0.5579056, 0.04608629, 0.04744267], "xyz": [7.285072744712, 0.47203486190406, 2.3506432039994203], "label": "S", "properties": {}}, {"species": [{"element": "S", "occu": 1}], "abc": [0.08321341, 0.69195292, 9.99999999999994e-05], "xyz": [1.08659197037195, 7.08726827514888, 0.00495470259999997], "label": "S", "properties": {}}, {"species": [{"element": "S", "occu": 1}], "abc": [0.88331506, 0.90084962, 0.08373403], "xyz": [11.5342353053987, 9.22687475978268, 4.14877216149478], "label": "S", "properties": {}}, {"species": [{"element": "S", "occu": 1}], "abc": [0.39011899, 0.18984235, 0.0008567499999999999], "xyz": [5.09413280892605, 1.9444439434329, 0.042449414525499995], "label": "S", "properties": {}}, {"species": [{"element": "S", "occu": 1}], "abc": [0.6090729, 0.39634959, 0.08191719], "xyz": [7.953209975545501, 4.05957658951026, 4.05875314277694], "label": "S", "properties": {}}, {"species": [{"element": "S", "occu": 1}], "abc": [0.1525171, 0.0261568, 0.12507620000000003], "xyz": [1.9915522775044998, 0.2679087745152, 6.197153733381201], "label": "S", "properties": {}}, {"species": [{"element": "S", "occu": 1}], "abc": [0.84930226, 0.81902952, 0.16028818], "xyz": [11.090099734342699, 8.38883942206128, 7.9418026219526805], "label": "S", "properties": {}}, {"species": [{"element": "S", "occu": 1}], "abc": [0.34553582, 0.79831257, 0.16615136000000003], "xyz": [4.5119704562989, 8.17664784334398, 8.232305753855362], "label": "S", "properties": {}}, {"species": [{"element": "S", "occu": 1}], "abc": [0.64839436, 0.05504544, 0.11902977], "xyz": [8.466665471472199, 0.56379818529216, 5.89757110896402], "label": "S", "properties": {}}, {"species": [{"element": "S", "occu": 1}], "abc": [0.65453943, 0.31602456, 0.16279989], "xyz": [8.54690715029985, 3.2368543776878402, 8.06625038262714], "label": "S", "properties": {}}, {"species": [{"element": "S", "occu": 1}], "abc": [0.35045474, 0.520408, 0.1261193], "xyz": [4.5762011971723, 5.330234184912, 6.2488362362018], "label": "S", "properties": {}}, {"species": [{"element": "S", "occu": 1}], "abc": [0.84600878, 0.54559859, 0.11888357000000001], "xyz": [11.0470938183181, 5.58824663659626, 5.890327333762821], "label": "S", "properties": {}}, {"species": [{"element": "S", "occu": 1}], "abc": [0.14600563, 0.29507104, 0.16697341], "xyz": [1.90652618594885, 3.0222397510905603, 8.27303588657866], "label": "S", "properties": {}}, {"species": [{"element": "S", "occu": 1}], "abc": [0.06063304, 0.68048183, 0.13929854000000003], "xyz": [0.7917398698508, 6.969776622337619, 6.901828383142042], "label": "S", "properties": {}}, {"species": [{"element": "S", "occu": 1}], "abc": [0.93556841, 0.16275731, 0.14309395000000003], "xyz": [12.21655406309695, 1.66702775054634, 7.089879661092701], "label": "S", "properties": {}}, {"species": [{"element": "S", "occu": 1}], "abc": [0.43713694, 0.18586323, 0.14204742999999997], "xyz": [5.7080882631413, 1.90368814903722, 7.038027707443179], "label": "S", "properties": {}}, {"species": [{"element": "S", "occu": 1}], "abc": [0.56172825, 0.66922012, 0.14451160000000002], "xyz": [7.334988507033751, 6.85442952616968, 7.160120002501602], "label": "S", "properties": {}}, {"species": [{"element": "S", "occu": 1}], "abc": [0.10886038, 0.32633451, 0.10098315], "xyz": [1.4214874117001002, 3.3424531539071403, 5.0034147586119], "label": "S", "properties": {}}, {"species": [{"element": "S", "occu": 1}], "abc": [0.90047655, 0.52202654, 0.18463527000000002], "xyz": [11.758328239862252, 5.346811941667561, 9.14812852320702], "label": "S", "properties": {}}, {"species": [{"element": "S", "occu": 1}], "abc": [0.38614694, 0.81658542, 0.10036043], "xyz": [5.0422661970913, 8.36380593800388, 4.972560834581181], "label": "S", "properties": {}}, {"species": [{"element": "S", "occu": 1}], "abc": [0.60341255, 0.01538316, 0.18496012], "xyz": [7.879297719582251, 0.15756069334824, 9.16422387460312], "label": "S", "properties": {}}, {"species": [{"element": "S", "occu": 1}], "abc": [0.15242721, 0.66250574, 0.22483669], "xyz": [1.9903785033229502, 6.785658066456359, 11.13998932518394], "label": "S", "properties": {}}, {"species": [{"element": "S", "occu": 1}], "abc": [0.84630896, 0.43864396, 0.2635755], "xyz": [11.0510135372392, 4.49277303691944, 13.059382151463002], "label": "S", "properties": {}}, {"species": [{"element": "S", "occu": 1}], "abc": [0.34854927, 0.42136899, 0.26692613000000004], "xyz": [4.551319769986651, 4.3158356423418605, 13.225395903189382], "label": "S", "properties": {}}, {"species": [{"element": "S", "occu": 1}], "abc": [0.65547897, 0.67883788, 0.21925605999999997], "xyz": [8.55917556496815, 6.95293860584232, 10.86348570547756], "label": "S", "properties": {}}, {"species": [{"element": "S", "occu": 1}], "abc": [0.65170352, 0.9491754, 0.26119918000000003], "xyz": [8.5098761352904, 9.7218474054156, 12.941642562638682], "label": "S", "properties": {}}, {"species": [{"element": "S", "occu": 1}], "abc": [0.34592807, 0.15545402, 0.22391865], "xyz": [4.51709241561265, 1.59222443080428, 11.0945031734349], "label": "S", "properties": {}}, {"species": [{"element": "S", "occu": 1}], "abc": [0.84791578, 0.17715145, 0.21929999], "xyz": [11.0719952240831, 1.8144584916003, 10.86566230632974], "label": "S", "properties": {}}, {"species": [{"element": "S", "occu": 1}], "abc": [0.15441474, 0.92702076, 0.26827274], "xyz": [2.0163314613723, 9.49493041051464, 13.29211642387124], "label": "S", "properties": {}}, {"species": [{"element": "S", "occu": 1}], "abc": [0.06200296, 0.30703951, 0.24195461000000001], "xyz": [0.8096281413692, 3.1448257757771403, 11.98813135248986], "label": "S", "properties": {}}, {"species": [{"element": "S", "occu": 1}], "abc": [0.93940615, 0.79722521, 0.24624949000000002], "xyz": [12.266666869054252, 8.165510652056941, 12.200929883516741], "label": "S", "properties": {}}, {"species": [{"element": "S", "occu": 1}], "abc": [0.44049483, 0.81046472, 0.24018501000000003], "xyz": [5.75193523818285, 8.30111519463408, 11.900452935280262], "label": "S", "properties": {}}, {"species": [{"element": "S", "occu": 1}], "abc": [0.56140667, 0.28856278, 0.24488767], "xyz": [7.33078934915965, 2.95557945775092, 12.133455752569422], "label": "S", "properties": {}}, {"species": [{"element": "S", "occu": 1}], "abc": [0.10385061, 0.96179329, 0.20242338999999998], "xyz": [1.35607036106595, 9.85108505860206, 10.02947696733814], "label": "S", "properties": {}}, {"species": [{"element": "S", "occu": 1}], "abc": [0.89586745, 0.13940868, 0.28499989000000003], "xyz": [11.69814309601775, 1.42788141575352, 14.120896959827142], "label": "S", "properties": {}}, {"species": [{"element": "S", "occu": 1}], "abc": [0.39602064, 0.45521096, 0.20129152], "xyz": [5.1711959349528, 4.66245910965744, 9.97339617501952], "label": "S", "properties": {}}, {"species": [{"element": "S", "occu": 1}], "abc": [0.6052839, 0.64937295, 0.28484265000000003], "xyz": [7.9037336113905, 6.6511465943012995, 14.113106185458902], "label": "S", "properties": {}}, {"species": [{"element": "S", "occu": 1}], "abc": [0.15069253, 0.28220418, 0.32699371], "xyz": [1.96772723402435, 2.8904520440905204, 16.20156585120646], "label": "S", "properties": {}}, {"species": [{"element": "S", "occu": 1}], "abc": [0.84693828, 0.07710876, 0.36174971], "xyz": [11.059231131720601, 0.7897798429466399, 17.92362228686246], "label": "S", "properties": {}}, {"species": [{"element": "S", "occu": 1}], "abc": [0.35058138, 0.04329325, 0.3686279], "xyz": [4.5778548489951, 0.4434273899055, 18.2644161456254], "label": "S", "properties": {}}, {"species": [{"element": "S", "occu": 1}], "abc": [0.65283187, 0.30269789, 0.32056846], "xyz": [8.52461001111365, 3.1003571063064603, 15.883213822399961], "label": "S", "properties": {}}, {"species": [{"element": "S", "occu": 1}], "abc": [0.64854184, 0.58158282, 0.36026346000000004], "xyz": [8.468591249826801, 5.956812017727479, 17.849983019469963], "label": "S", "properties": {}}, {"species": [{"element": "S", "occu": 1}], "abc": [0.34643138, 0.78929937, 0.32268932], "xyz": [4.5236645847451005, 8.08433091747918, 15.988296127962322], "label": "S", "properties": {}}, {"species": [{"element": "S", "occu": 1}], "abc": [0.85182277, 0.81051538, 0.31930472], "xyz": [11.12301228926915, 8.30163407532732, 15.82059926376272], "label": "S", "properties": {}}, {"species": [{"element": "S", "occu": 1}], "abc": [0.15359746, 0.56105253, 0.36649271], "xyz": [2.0056595049467, 5.74653228800742, 18.15862383118046], "label": "S", "properties": {}}, {"species": [{"element": "S", "occu": 1}], "abc": [0.06329373, 0.94011179, 0.34324281], "xyz": [0.8264828804983501, 9.629014159461061, 17.00666043138306], "label": "S", "properties": {}}, {"species": [{"element": "S", "occu": 1}], "abc": [0.93876121, 0.42466219, 0.34675319], "xyz": [12.258245310252951, 4.34956596012666, 17.18058932051294], "label": "S", "properties": {}}, {"species": [{"element": "S", "occu": 1}], "abc": [0.43708939, 0.4328787, 0.34205017], "xyz": [5.70746736023405, 4.4337228571818, 16.94756866629442], "label": "S", "properties": {}}, {"species": [{"element": "S", "occu": 1}], "abc": [0.562376, 0.91774774, 0.34472819], "xyz": [7.34344675852, 9.39995230064436, 17.08025659286294], "label": "S", "properties": {}}, {"species": [{"element": "S", "occu": 1}], "abc": [0.10312273, 0.57723739, 0.30079756], "xyz": [1.34656578045335, 5.91230432465946, 14.903624526056563], "label": "S", "properties": {}}, {"species": [{"element": "S", "occu": 1}], "abc": [0.88982808, 0.77591034, 0.38523903000000004], "xyz": [11.6192816366916, 7.94719492916076, 19.087448235624784], "label": "S", "properties": {}}, {"species": [{"element": "S", "occu": 1}], "abc": [0.39523625, 0.09158233, 0.30280892000000004], "xyz": [5.16095345269375, 0.93802413894462, 15.003281432271923], "label": "S", "properties": {}}, {"species": [{"element": "S", "occu": 1}], "abc": [0.61207965, 0.28561992, 0.38633363000000004], "xyz": [7.99247180133675, 2.9254374672868804, 19.141682410284382], "label": "S", "properties": {}}, {"species": [{"element": "S", "occu": 1}], "abc": [0.15390635, 0.90538666, 0.42863133000000003], "xyz": [2.00969295813325, 9.27334500179724, 21.23740765192458], "label": "S", "properties": {}}, {"species": [{"element": "S", "occu": 1}], "abc": [0.86394001, 0.7164803, 0.46451293], "xyz": [11.28123793687895, 7.3384878554442, 23.01523422004618], "label": "S", "properties": {}}, {"species": [{"element": "S", "occu": 1}], "abc": [0.33929866, 0.67643294, 0.47067622000000003], "xyz": [4.4305262759207, 6.92830621471716, 23.32060690992172], "label": "S", "properties": {}}, {"species": [{"element": "S", "occu": 1}], "abc": [0.65722163, 0.92850048, 0.42001221], "xyz": [8.58193103626885, 9.51008631535872, 20.81035588918746], "label": "S", "properties": {}}, {"species": [{"element": "S", "occu": 1}], "abc": [0.65149592, 0.20678779, 0.45951403], "xyz": [8.5071653162884, 2.11800615532506, 22.76755359177478], "label": "S", "properties": {}}, {"species": [{"element": "S", "occu": 1}], "abc": [0.34699918, 0.40948775, 0.42769017000000004], "xyz": [4.531078857526101, 4.1941430634285, 21.19077597293442], "label": "S", "properties": {}}, {"species": [{"element": "S", "occu": 1}], "abc": [0.84167429, 0.44733431, 0.42171585], "xyz": [10.990494503019551, 4.58178319942434, 20.8947661845621], "label": "S", "properties": {}}, {"species": [{"element": "S", "occu": 1}], "abc": [0.15316654, 0.18092243, 0.46912292], "xyz": [2.0000325968332997, 1.85308242994602, 23.243645514435922], "label": "S", "properties": {}}, {"species": [{"element": "S", "occu": 1}], "abc": [0.06136202, 0.57038459, 0.43812981], "xyz": [0.8012588141479, 5.84211511000026, 21.708029087445063], "label": "S", "properties": {}}, {"species": [{"element": "S", "occu": 1}], "abc": [0.93821763, 0.04978705, 0.44508626], "xyz": [12.251147299688851, 0.5099395779387, 22.052700496462762], "label": "S", "properties": {}}, {"species": [{"element": "S", "occu": 1}], "abc": [0.4424358, 0.05702752, 0.43992516000000004], "xyz": [5.777280220641, 0.58409946923328, 21.79698334057416], "label": "S", "properties": {}}, {"species": [{"element": "S", "occu": 1}], "abc": [0.56014088, 0.5582294, 0.44877188], "xyz": [7.314260796247599, 5.7176166217716, 22.23531200642888], "label": "S", "properties": {}}, {"species": [{"element": "S", "occu": 1}], "abc": [0.11480514, 0.20010594, 0.40273051], "xyz": [1.4991134635803, 2.04956788133916, 19.95409904996326], "label": "S", "properties": {}}, {"species": [{"element": "S", "occu": 1}], "abc": [0.91571395, 0.40996951, 0.48591019], "xyz": [11.95729660913525, 4.19907744879714, 24.075404817594944], "label": "S", "properties": {}}, {"species": [{"element": "S", "occu": 1}], "abc": [0.39053912, 0.70689337, 0.40457854], "xyz": [5.0996188223524, 7.24029454939518, 20.04566344042204], "label": "S", "properties": {}}, {"species": [{"element": "S", "occu": 1}], "abc": [0.60999447, 0.91055895, 0.48617159], "xyz": [7.965243739840649, 9.3263217373053, 24.08835641019134], "label": "S", "properties": {}}]}, "formula": "(Li3PS4)20.0", "bandgap": 2.1663, "slab_thickness": 24.083401707591342}