{"miller": "110_0.21", "final_energy": -699.43404558, "gamma": 0.015600887264936572, "work_function": "Not calculated", "ionization_potentail": "Not calculated", "electron_affinity": "Not calculated", "is_stochiometric": true, "incar_parameters": {"SYSTEM": "unknown system", "LCOMPAT": false, "PREC": "normal", "ENMAX": 520.0, "ENAUG": 628.945, "EDIFF": 1e-05, "IALGO": 38, "IWAVPR": 11, "NBANDS": 462, "NBANDSLOW": -1, "NBANDSHIGH": -1, "NELECT": 760.0, "TURBO": 0, "IRESTART": 0, "NREBOOT": 0, "NMIN": 0, "EREF": 0.0, "ISMEAR": 0, "SIGMA": 0.05, "KSPACING": 0.5, "KGAMMA": true, "KBLOWUP": true, "LREAL": true, "ROPT": [-0.0005, -0.0005, -0.0005], "LMAXPAW": -100, "LMAXMIX": 2, "NLSPLINE": false, "ISTART": 0, "ICHARG": 2, "INIWAV": 1, "ISPIN": 1, "LNONCOLLINEAR": false, "MAGMOM": [0.6, 0.6, 0.6, 0.6, 0.6, 0.6, 0.6, 0.6, 0.6, 0.6, 0.6, 0.6, 0.6, 0.6, 0.6, 0.6, 0.6, 0.6, 0.6, 0.6, 0.6, 0.6, 0.6, 0.6, 0.6, 0.6, 0.6, 0.6, 0.6, 0.6, 0.6, 0.6, 0.6, 0.6, 0.6, 0.6, 0.6, 0.6, 0.6, 0.6, 0.6, 0.6, 0.6, 0.6, 0.6, 0.6, 0.6, 0.6, 0.6, 0.6, 0.6, 0.6, 0.6, 0.6, 0.6, 0.6, 0.6, 0.6, 0.6, 0.6, 0.6, 0.6, 0.6, 0.6, 0.6, 0.6, 0.6, 0.6, 0.6, 0.6, 0.6, 0.6, 0.6, 0.6, 0.6, 0.6, 0.6, 0.6, 0.6, 0.6, 0.6, 0.6, 0.6, 0.6, 0.6, 0.6, 0.6, 0.6, 0.6, 0.6, 0.6, 0.6, 0.6, 0.6, 0.6, 0.6, 0.6, 0.6, 0.6, 0.6, 0.6, 0.6, 0.6, 0.6, 0.6, 0.6, 0.6, 0.6, 0.6, 0.6, 0.6, 0.6, 0.6, 0.6, 0.6, 0.6, 0.6, 0.6, 0.6, 0.6, 0.6, 0.6, 0.6, 0.6, 0.6, 0.6, 0.6, 0.6, 0.6, 0.6, 0.6, 0.6, 0.6, 0.6, 0.6, 0.6, 0.6, 0.6, 0.6, 0.6, 0.6, 0.6, 0.6, 0.6, 0.6, 0.6, 0.6, 0.6, 0.6, 0.6, 0.6, 0.6, 0.6, 0.6, 0.6, 0.6, 0.6, 0.6, 0.6, 0.6], "NUPDOWN": -1.0, "LSORBIT": false, "SAXIS": [0.0, 0.0, 1.0], "LSPIRAL": false, "QSPIRAL": [0.0, 0.0, 0.0], "LZEROZ": false, "LASPH": false, "LMETAGGA": false, "NELM": 100, "NELMDL": -5, "NELMIN": 6, "ENINI": 520.0, "LDIAG": true, "LSUBROT": false, "WEIMIN": 0.001, "EBREAK": 1e-08, "DEPER": 0.3, "NRMM": 4, "TIME": 0.4, "AMIX": 0.4, "BMIX": 1.0, "AMIN": 0.1, "AMIX_MAG": 1.6, "BMIX_MAG": 1.0, "IMIX": 4, "MIXFIRST": false, "MAXMIX": -45, "WC": 100.0, "INIMIX": 1, "MIXPRE": 1, "MREMOVE": 5, "LDIPOL": false, "LMONO": false, "IDIPOL": 0, "EPSILON": 1.0, "DIPOL": [-100.0, -100.0, -100.0], "EFIELD": 0.0, "NGX": 80, "NGY": 60, "NGZ": 280, "NGXF": 160, "NGYF": 120, "NGZF": 560, "ADDGRID": false, "NSW": 150, "IBRION": 2, "MDALGO": 0, "ISIF": 2, "PSTRESS": 0.0, "EDIFFG": -0.01, "NFREE": 1, "POTIM": 0.5, "SMASS": -3.0, "SCALEE": 1.0, "TEBEG": 0.0001, "TEEND": 0.0001, "NBLOCK": 1, "KBLOCK": 150, "NPACO": 256, "APACO": 10.0, "ISYM": 0, "SYMPREC": 1e-05, "LORBIT": 11, "RWIGS": [-1.0, -1.0, -1.0], "NEDOS": 301, "EMIN": 10.0, "EMAX": -10.0, "EFERMI": 0.0, "NWRITE": 2, "LWAVE": false, "LDOWNSAMPLE": false, "LCHARG": false, "LPARD": false, "LVTOT": false, "LVHAR": false, "LELF": false, "LOPTICS": false, "STM": [0.0, 0.0, 0.0, 0.0, 0.0, 0.0, 0.0], "NPAR": 2, "NSIM": 4, "NBLK": -1, "LPLANE": true, "LSCALAPACK": true, "LSCAAWARE": false, "LSCALU": false, "LASYNC": false, "LORBITALREAL": false, "IDIOT": 3, "PHON_NSTRUCT": -1, "LMUSIC": false, "POMASS": [7.01, 30.974, 32.066], "DARWINR": [0.0, 0.0, 0.0], "DARWINV": [1.0, 1.0, 1.0], "LCORR": true, "GGA_COMPAT": true, "LBERRY": false, "ICORELEVEL": 0, "LDAU": false, "I_CONSTRAINED_M": 0, "GGA": "--", "VOSKOWN": 0, "LHFCALC": false, "PRECFOCK": "", "LSYMGRAD": false, "LHFONE": false, "LRHFCALC": false, "LTHOMAS": false, "LMODELHF": false, "LFOCKACE": false, "ENCUT4O": -1.0, "EXXOEP": 0, "FOURORBIT": 0, "AEXX": 0.0, "HFALPHA": 0.0, "MCALPHA": 0.0, "ALDAX": 1.0, "AGGAX": 1.0, "ALDAC": 1.0, "AGGAC": 1.0, "NKREDX": 1, "NKREDY": 1, "NKREDZ": 1, "SHIFTRED": false, "ODDONLY": false, "EVENONLY": false, "LMAXFOCK": 0, "NMAXFOCKAE": 0, "LFOCKAEDFT": false, "HFSCREEN": 0.0, "HFSCREENC": 0.0, "NBANDSGWLOW": 0, "LUSE_VDW": false, "Zab_VDW": -0.8491, "PARAM1": 0.1234, "PARAM2": 1.0, "PARAM3": 0.0, "MODEL_GW": 0, "MODEL_EPS0": 24.84988353, "MODEL_ALPHA": 1.0, "LEPSILON": false, "LRPA": false, "LNABLA": false, "LVEL": false, "CSHIFT": 0.1, "OMEGAMAX": -1.0, "DEG_THRESHOLD": 0.002, "RTIME": -0.1, "WPLASMAI": 0.0, "DFIELD": [0.0, 0.0, 0.0], "WPLASMA": [0.0, 0.0, 0.0, 0.0, 0.0, 0.0, 0.0, 0.0, 0.0], "NUCIND": false, "MAGPOS": [0.0, 0.0, 0.0], "LNICSALL": true, "ORBITALMAG": false, "LMAGBLOCH": false, "LCHIMAG": false, "LGAUGE": true, "MAGATOM": 0, "MAGDIPOL": [0.0, 0.0, 0.0], "AVECCONST": [0.0, 0.0, 0.0], "LFINITE_TEMPERATURE": false, "LADDER": false, "LRPAFORCE": false, "LFXC": false, "LHARTREE": true, "IBSE": 0, "KPOINT": [-1, 0, 0, 0], "LTCTC": false, "LTCTE": false, "LTETE": false, "LTRIPLET": false, "LFXCEPS": false, "LFXHEG": false, "NATURALO": 2, "LHOLEGF": false, "L2ORDER": false, "LDMP1": false, "LMP2LT": false, "LSMP2LT": false, "LGWLF": false, "ENCUTGW": -2.0, "ENCUTGWSOFT": -2.0, "ENCUTLF": -1.0, "LESF_SPLINES": false, "LMAXMP2": -1, "SCISSOR": 0.0, "NOMEGA": 0, "NOMEGAR": 0, "NBANDSGW": -1, "NBANDSO": -1, "NBANDSV": -1, "NELMGW": 1, "NELMHF": 1, "DIM": 3, "IESPILON": 4, "ANTIRES": 0, "OMEGAMIN": -30.0, "OMEGATL": -200.0, "OMEGAGRID": 0, "LSELFENERGY": false, "LSPECTRAL": false, "LSPECTRALGW": false, "LSINGLES": false, "LFERMIGW": false, "ODDONLYGW": false, "EVENONLYGW": false, "NKREDLFX": 1, "NKREDLFY": 1, "NKREDLFZ": 1, "MAXMEM": 2800, "TELESCOPE": 0, "NTAUPAR": -1, "NOMEGAPAR": -1, "DAMP_NEWTON": 0.80000001, "LAMBDA": 1.0, "OFIELD_KAPPA": 0.0, "OFIELD_K": [0.0, 0.0, 0.0], "OFIELD_Q6_NEAR": 0.0, "OFIELD_Q6_FAR": 0.0, "OFIELD_A": 0.0, "KPOINTS_OPT_MODE": 1, "LKPOINTS_OPT": false, "@module": "pymatgen.io.vasp.inputs", "@class": "Incar"}, "relaxed_structures": {"@module": "pymatgen.core.structure", "@class": "Structure", "charge": 0, "lattice": {"matrix": [[13.057895, 0.0, 0.0], [0.0, 10.242414, 0.0], [0.0, 0.0, 49.547026]], "a": 13.057895, "b": 10.242414, "c": 49.547026, "alpha": 90.0, "beta": 90.0, "gamma": 90.0, "volume": 6626.635607229017}, "sites": [{"species": [{"element": "Li", "occu": 1}], "abc": [0.15904543, 0.75697573, 0.03128243], "xyz": [2.07679852516985, 7.75325881461222, 1.5499513725531802], "label": "Li", "properties": {}}, {"species": [{"element": "Li", "occu": 1}], "abc": [0.84987832, 0.64469849, 0.048040200000000005], "xyz": [11.0976218653364, 6.60326883975486, 2.3802490384452004], "label": "Li", "properties": {}}, {"species": [{"element": "Li", "occu": 1}], "abc": [0.67140222, 0.80295521, 0.026455340000000008], "xyz": [8.767099691526901, 8.22419968427694, 1.3107834188188405], "label": "Li", "properties": {}}, {"species": [{"element": "Li", "occu": 1}], "abc": [0.66514569, 0.1469188, 0.04782649], "xyz": [8.68540257972255, 1.5048031739832, 2.36966034351874], "label": "Li", "properties": {}}, {"species": [{"element": "Li", "occu": 1}], "abc": [0.31007745, 0.25199155, 0.03359332000000001], "xyz": [4.04895878396775, 2.5810017796017, 1.6644490994663206], "label": "Li", "properties": {}}, {"species": [{"element": "Li", "occu": 1}], "abc": [0.84368193, 0.29084787, 0.023417120000000007], "xyz": [11.01671005533735, 2.9789842955581802, 1.1602486534851204], "label": "Li", "properties": {}}, {"species": [{"element": "Li", "occu": 1}], "abc": [0.48468402, 0.72591093, 0.057561680000000004], "xyz": [6.3289530413379, 7.4350802721850195, 2.8520100555636803], "label": "Li", "properties": {}}, {"species": [{"element": "Li", "occu": 1}], "abc": [0.49111548, 0.29170437, 0.0024877200000000058], "xyz": [6.4129343707146, 2.98775692314918, 0.1232591275207203], "label": "Li", "properties": {}}, {"species": [{"element": "Li", "occu": 1}], "abc": [0.02272878, 0.20348544, 0.05511294], "xyz": [0.2967900227181, 2.08418211945216, 2.7306822711164402], "label": "Li", "properties": {}}, {"species": [{"element": "Li", "occu": 1}], "abc": [0.16884058, 0.39188685, 0.13666547], "xyz": [2.2047025653790997, 4.0138673588559, 6.7713675953922206], "label": "Li", "properties": {}}, {"species": [{"element": "Li", "occu": 1}], "abc": [0.83487986, 0.27129489, 0.15168154], "xyz": [10.9017735494947, 2.7787145794644603, 7.515369206100041], "label": "Li", "properties": {}}, {"species": [{"element": "Li", "occu": 1}], "abc": [0.32881562, 0.5165197, 0.07833874], "xyz": [4.2936398403199, 5.2904086065558005, 3.8814515875872404], "label": "Li", "properties": {}}, {"species": [{"element": "Li", "occu": 1}], "abc": [0.66881979, 0.50676171, 0.1051493], "xyz": [8.733378591742051, 5.19046323316794, 5.209835100981801], "label": "Li", "properties": {}}, {"species": [{"element": "Li", "occu": 1}], "abc": [0.66905885, 0.77689069, 0.1480313], "xyz": [8.73650021212075, 7.95723607972566, 7.334510669913801], "label": "Li", "properties": {}}, {"species": [{"element": "Li", "occu": 1}], "abc": [0.3369683, 0.89753289, 0.13342567], "xyz": [4.4000966797285, 9.19290343799646, 6.61084514055742], "label": "Li", "properties": {}}, {"species": [{"element": "Li", "occu": 1}], "abc": [0.82493935, 0.01880419, 0.10356793], "xyz": [10.77197141366825, 0.19260029891466, 5.131482920476181], "label": "Li", "properties": {}}, {"species": [{"element": "Li", "occu": 1}], "abc": [0.171851, 0.02129189, 0.07943542], "xyz": [2.2440123136450003, 0.21808035222246, 3.9357888200609206], "label": "Li", "properties": {}}, {"species": [{"element": "Li", "occu": 1}], "abc": [0.01162052, 0.48740635, 0.09279946], "xyz": [0.1517395300054, 4.9922176229289, 4.5979372574059605], "label": "Li", "properties": {}}, {"species": [{"element": "Li", "occu": 1}], "abc": [0.49357152, 0.34265489, 0.15443839], "xyz": [6.4450050831503995, 3.50961324250446, 7.65196292472814], "label": "Li", "properties": {}}, {"species": [{"element": "Li", "occu": 1}], "abc": [0.50408056, 0.07477298, 0.09176218], "xyz": [6.5822310240212, 0.7658558171737201, 4.54654311827668], "label": "Li", "properties": {}}, {"species": [{"element": "Li", "occu": 1}], "abc": [0.98685458, 0.82488247, 0.12838809], "xyz": [12.8862434859091, 8.448787759082581, 6.361248033320341], "label": "Li", "properties": {}}, {"species": [{"element": "Li", "occu": 1}], "abc": [0.16691107, 0.01807636, 0.23869543999999998], "xyz": [2.17950722639765, 0.18514556273304, 11.82664917176144], "label": "Li", "properties": {}}, {"species": [{"element": "Li", "occu": 1}], "abc": [0.83820631, 0.89652179, 0.25296148], "xyz": [10.94520998431745, 9.18254733320106, 12.533489026558481], "label": "Li", "properties": {}}, {"species": [{"element": "Li", "occu": 1}], "abc": [0.324069, 0.1650357, 0.17972391000000001], "xyz": [4.231658974755, 1.6903639641798, 8.90478524159166], "label": "Li", "properties": {}}, {"species": [{"element": "Li", "occu": 1}], "abc": [0.67082728, 0.12437823, 0.20758400000000002], "xyz": [8.7595921853756, 1.2739333242472202, 10.285169845184], "label": "Li", "properties": {}}, {"species": [{"element": "Li", "occu": 1}], "abc": [0.66362722, 0.40031667, 0.25021973000000003], "xyz": [8.6655745579019, 4.10020906524138, 12.397643468022983], "label": "Li", "properties": {}}, {"species": [{"element": "Li", "occu": 1}], "abc": [0.33413634, 0.52424323, 0.23466178999999998], "xyz": [4.3631172434043, 5.3695161983572195, 11.62679381033654], "label": "Li", "properties": {}}, {"species": [{"element": "Li", "occu": 1}], "abc": [0.83072975, 0.64184995, 0.20494595000000002], "xyz": [10.847581848876251, 6.5740929137793005, 10.154462313244702], "label": "Li", "properties": {}}, {"species": [{"element": "Li", "occu": 1}], "abc": [0.16316665, 0.68158521, 0.17664715], "xyz": [2.13061298320175, 6.981077897096941, 8.752340933875901], "label": "Li", "properties": {}}, {"species": [{"element": "Li", "occu": 1}], "abc": [0.00640032, 0.09216523, 0.19431504], "xyz": [0.0835747065264, 0.94399444206522, 9.62773233907104], "label": "Li", "properties": {}}, {"species": [{"element": "Li", "occu": 1}], "abc": [0.50397248, 0.95895472, 0.23816656000000003], "xyz": [6.580819726729599, 9.82201124949408, 11.800444740650562], "label": "Li", "properties": {}}, {"species": [{"element": "Li", "occu": 1}], "abc": [0.50840528, 0.68710093, 0.19124248], "xyz": [6.6387027636855995, 7.037572184845021, 9.47549612886448], "label": "Li", "properties": {}}, {"species": [{"element": "Li", "occu": 1}], "abc": [0.99257001, 0.45679487, 0.23118767], "xyz": [12.96087497072895, 4.67868217161618, 11.454661496369422], "label": "Li", "properties": {}}, {"species": [{"element": "Li", "occu": 1}], "abc": [0.17107688, 0.64139724, 0.33825797], "xyz": [2.2339039359676, 6.56945607053736, 16.759676434297223], "label": "Li", "properties": {}}, {"species": [{"element": "Li", "occu": 1}], "abc": [0.83564111, 0.52232794, 0.35270117], "xyz": [10.91171387206345, 5.349899005247161, 17.475294040220422], "label": "Li", "properties": {}}, {"species": [{"element": "Li", "occu": 1}], "abc": [0.33375092, 0.80005789, 0.27829701], "xyz": [4.3580844695134004, 8.19452413334646, 13.788789190192261], "label": "Li", "properties": {}}, {"species": [{"element": "Li", "occu": 1}], "abc": [0.67141379, 0.75878145, 0.30620746], "xyz": [8.76725077137205, 7.7717537464203, 15.17166898201396], "label": "Li", "properties": {}}, {"species": [{"element": "Li", "occu": 1}], "abc": [0.66473746, 0.02467286, 0.35210337], "xyz": [8.6800719552467, 0.25270964668404, 17.44567482807762], "label": "Li", "properties": {}}, {"species": [{"element": "Li", "occu": 1}], "abc": [0.32876477, 0.14115944, 0.33818095], "xyz": [4.29297584635915, 1.44581342448816, 16.7558603223547], "label": "Li", "properties": {}}, {"species": [{"element": "Li", "occu": 1}], "abc": [0.82885374, 0.26658583, 0.30548821], "xyz": [10.8230851072773, 2.7304824373936203, 15.136032283563459], "label": "Li", "properties": {}}, {"species": [{"element": "Li", "occu": 1}], "abc": [0.16613605, 0.30345299, 0.27748998], "xyz": [2.16938709661475, 3.1080911531178597, 13.748803253799482], "label": "Li", "properties": {}}, {"species": [{"element": "Li", "occu": 1}], "abc": [0.00977736, 0.71661601, 0.29478488], "xyz": [0.12767174025720002, 7.33987785344814, 14.605714113766883], "label": "Li", "properties": {}}, {"species": [{"element": "Li", "occu": 1}], "abc": [0.50484097, 0.57696511, 0.33265253], "xyz": [6.592160377958151, 5.90951552017554, 16.48194355287578], "label": "Li", "properties": {}}, {"species": [{"element": "Li", "occu": 1}], "abc": [0.49035806, 0.22604321, 0.29498105], "xyz": [6.4030440598837, 2.31522813870894, 14.615433753857301], "label": "Li", "properties": {}}, {"species": [{"element": "Li", "occu": 1}], "abc": [0.99609542, 0.08090056, 0.33181778], "xyz": [13.006909404340899, 0.8286170283518399, 16.440584172922282], "label": "Li", "properties": {}}, {"species": [{"element": "Li", "occu": 1}], "abc": [0.15176061, 0.2734215, 0.44255894], "xyz": [1.9816741105159499, 2.800496199501, 21.927479306712442], "label": "Li", "properties": {}}, {"species": [{"element": "Li", "occu": 1}], "abc": [0.84016586, 0.1606574, 0.45584407], "xyz": [10.970797582464701, 1.6455196029636001, 22.58571798823582], "label": "Li", "properties": {}}, {"species": [{"element": "Li", "occu": 1}], "abc": [0.33137025, 0.40993476, 0.38092709], "xyz": [4.32699793062375, 4.19872152491064, 18.873804432334342], "label": "Li", "properties": {}}, {"species": [{"element": "Li", "occu": 1}], "abc": [0.67154785, 0.40173488, 0.40770232], "xyz": [8.76900131277575, 4.11473495920032, 20.20043744930032], "label": "Li", "properties": {}}, {"species": [{"element": "Li", "occu": 1}], "abc": [0.69191988, 0.67086219, 0.4518778], "xyz": [9.0350171414526, 6.871248286926661, 22.3892011054228], "label": "Li", "properties": {}}, {"species": [{"element": "Li", "occu": 1}], "abc": [0.33184595, 0.77401158, 0.43715759], "xyz": [4.33320957127525, 7.92774704315412, 21.659858477827342], "label": "Li", "properties": {}}, {"species": [{"element": "Li", "occu": 1}], "abc": [0.83239948, 0.91159088, 0.40544123], "xyz": [10.8693850078946, 9.33689119158432, 20.088407164281982], "label": "Li", "properties": {}}, {"species": [{"element": "Li", "occu": 1}], "abc": [0.16288731, 0.91811528, 0.38060998], "xyz": [2.12696539081245, 9.40371679748592, 18.858092574919482], "label": "Li", "properties": {}}, {"species": [{"element": "Li", "occu": 1}], "abc": [0.00343542, 0.34263737, 0.39549133000000003], "xyz": [0.0448593536409, 3.50943379541118, 19.595419210284582], "label": "Li", "properties": {}}, {"species": [{"element": "Li", "occu": 1}], "abc": [0.51393115, 0.19291268, 0.42834833], "xyz": [6.71085899392925, 1.97589153440952, 21.223385843566582], "label": "Li", "properties": {}}, {"species": [{"element": "Li", "occu": 1}], "abc": [0.49733414, 0.8477924, 0.39445963], "xyz": [6.4941369800353, 8.6834407468536, 19.54430154356038], "label": "Li", "properties": {}}, {"species": [{"element": "Li", "occu": 1}], "abc": [0.97629166, 0.71539218, 0.42938355], "xyz": [12.7483139856557, 7.32734287992252, 21.274677915822302], "label": "Li", "properties": {}}, {"species": [{"element": "Li", "occu": 1}], "abc": [0.32954032, 0.11461688, 0.46014842], "xyz": [4.3031028968264, 1.17395353634832, 22.798985729598922], "label": "Li", "properties": {}}, {"species": [{"element": "Li", "occu": 1}], "abc": [0.15425482, 0.63106711, 0.46038458], "xyz": [2.0142432428038997, 6.463650602403541, 22.81068675525908], "label": "Li", "properties": {}}, {"species": [{"element": "Li", "occu": 1}], "abc": [0.50858872, 0.62988415, 0.48295988], "xyz": [6.6410981039444, 6.4515342363381, 23.929225731316883], "label": "Li", "properties": {}}, {"species": [{"element": "P", "occu": 1}], "abc": [0.08739549, 0.48078234, 0.03118159000000001], "xyz": [1.1412011318935502, 4.92437177016876, 1.5449550504513405], "label": "P", "properties": {}}, {"species": [{"element": "P", "occu": 1}], "abc": [0.91110365, 0.9235625, 0.049189090000000005], "xyz": [11.897095795816751, 9.459509479874999, 2.4371731211463405], "label": "P", "properties": {}}, {"species": [{"element": "P", "occu": 1}], "abc": [0.40626851, 0.98649635, 0.03383386000000001], "xyz": [5.30501154538645, 10.1041040261889, 1.6763671411003604], "label": "P", "properties": {}}, {"species": [{"element": "P", "occu": 1}], "abc": [0.58981646, 0.42242648, 0.048538460000000005], "xyz": [7.7017614039517, 4.32666689272272, 2.4049363396199603], "label": "P", "properties": {}}, {"species": [{"element": "P", "occu": 1}], "abc": [0.08644144, 0.11457857, 0.1333138], "xyz": [1.1287432471688, 1.17356114946798, 6.605302314758801], "label": "P", "properties": {}}, {"species": [{"element": "P", "occu": 1}], "abc": [0.91010547, 0.55011879, 0.15116484], "xyz": [11.88406166618565, 5.634544396359059, 7.48976825776584], "label": "P", "properties": {}}, {"species": [{"element": "P", "occu": 1}], "abc": [0.41020581, 0.61483635, 0.13318622], "xyz": [5.35642439536995, 6.2974084389489, 6.59898110518172], "label": "P", "properties": {}}, {"species": [{"element": "P", "occu": 1}], "abc": [0.58718154, 0.05174419, 0.15259103000000002], "xyz": [7.6673548952583, 0.52998541607466, 7.560431730776781], "label": "P", "properties": {}}, {"species": [{"element": "P", "occu": 1}], "abc": [0.08948647, 0.74610394, 0.23345332000000002], "xyz": [1.16850492918065, 7.64190544051116, 11.566917715826321], "label": "P", "properties": {}}, {"species": [{"element": "P", "occu": 1}], "abc": [0.91139881, 0.1780013, 0.25187226], "xyz": [11.90094996410495, 1.8231630071382001, 12.47952141489876], "label": "P", "properties": {}}, {"species": [{"element": "P", "occu": 1}], "abc": [0.41033061, 0.2445082, 0.23349819], "xyz": [5.35805402066595, 2.5043542107948, 11.56914089088294], "label": "P", "properties": {}}, {"species": [{"element": "P", "occu": 1}], "abc": [0.59014588, 0.6803187, 0.25197222], "xyz": [7.7060629357226, 6.9681057773418, 12.484474135617722], "label": "P", "properties": {}}, {"species": [{"element": "P", "occu": 1}], "abc": [0.0901037, 0.37014122, 0.33369868], "xyz": [1.1765646537115, 3.79113961370508, 16.53377717412568], "label": "P", "properties": {}}, {"species": [{"element": "P", "occu": 1}], "abc": [0.90993986, 0.80412723, 0.35177768], "xyz": [11.881899148194702, 8.23620399833322, 17.429537857179678], "label": "P", "properties": {}}, {"species": [{"element": "P", "occu": 1}], "abc": [0.41087162, 0.86969462, 0.33395033], "xyz": [5.3651184724399, 8.90777235161268, 16.546245683218583], "label": "P", "properties": {}}, {"species": [{"element": "P", "occu": 1}], "abc": [0.58932728, 0.305466, 0.35265392], "xyz": [7.6953737428756, 3.128709234924, 17.47295294324192], "label": "P", "properties": {}}, {"species": [{"element": "P", "occu": 1}], "abc": [0.08881856, 0.99799513, 0.43769887], "xyz": [1.1597834305312, 10.22187929144382, 21.686677292060622], "label": "P", "properties": {}}, {"species": [{"element": "P", "occu": 1}], "abc": [0.91658303, 0.43516799, 0.45370591], "xyz": [11.96864496452185, 4.45717071312786, 22.47977851912366], "label": "P", "properties": {}}, {"species": [{"element": "P", "occu": 1}], "abc": [0.41004404, 0.4972402, 0.43732206], "xyz": [5.3543120196958, 5.092939985842801, 21.668007477193562], "label": "P", "properties": {}}, {"species": [{"element": "P", "occu": 1}], "abc": [0.59445242, 0.93508456, 0.45210455], "xyz": [7.7622972828559, 9.57752318852784, 22.4004358935683], "label": "P", "properties": {}}, {"species": [{"element": "S", "occu": 1}], "abc": [0.13757269, 0.29708684, 0.021990250000000003], "xyz": [1.79640974088755, 3.0428864092317602, 1.0895514884965003], "label": "S", "properties": {}}, {"species": [{"element": "S", "occu": 1}], "abc": [0.84583574, 0.10759422, 0.05745968], "xyz": [11.044834280167299, 1.10202454524708, 2.84695625891168], "label": "S", "properties": {}}, {"species": [{"element": "S", "occu": 1}], "abc": [0.66100954, 0.33552566, 0.015558590000000004], "xyz": [8.6313931673183, 3.43659271734324, 0.7708818632533403], "label": "S", "properties": {}}, {"species": [{"element": "S", "occu": 1}], "abc": [0.6532194, 0.60336321, 0.05799129], "xyz": [8.529670337163001, 6.17989578918894, 2.8732959534035403], "label": "S", "properties": {}}, {"species": [{"element": "S", "occu": 1}], "abc": [0.35056091, 0.80527421, 0.027531330000000007], "xyz": [4.57758755388445, 8.24795184234294, 1.3640955233245804], "label": "S", "properties": {}}, {"species": [{"element": "S", "occu": 1}], "abc": [0.84769001, 0.83290511, 0.016724750000000004], "xyz": [11.06904714312895, 8.53095895933554, 0.8286616230935002], "label": "S", "properties": {}}, {"species": [{"element": "S", "occu": 1}], "abc": [0.06186838, 0.96320997, 0.04149055], "xyz": [0.8078708098601001, 9.86559528166758, 2.0557333596043], "label": "S", "properties": {}}, {"species": [{"element": "S", "occu": 1}], "abc": [0.93934964, 0.44281219, 0.0477964], "xyz": [12.2659289674078, 4.53546577422666, 2.3681694735064003], "label": "S", "properties": {}}, {"species": [{"element": "S", "occu": 1}], "abc": [0.43968553, 0.45286118, 0.03735215], "xyz": [5.74136748375935, 4.63839169008852, 1.8506879472059001], "label": "S", "properties": {}}, {"species": [{"element": "S", "occu": 1}], "abc": [0.55880146, 0.95674322, 0.04700335], "xyz": [7.2967707905267, 9.79936015093308, 2.3288762045371], "label": "S", "properties": {}}, {"species": [{"element": "S", "occu": 1}], "abc": [0.08586395, 0.60269099, 0.00010000000000000286], "xyz": [1.1212024433852499, 6.17301063364986, 0.0049547026000001425], "label": "S", "properties": {}}, {"species": [{"element": "S", "occu": 1}], "abc": [0.39088541, 0.10069209, 0.000457710000000007], "xyz": [5.10414064081195, 1.03133007230526, 0.022678169270460347], "label": "S", "properties": {}}, {"species": [{"element": "S", "occu": 1}], "abc": [0.15279753, 0.93687006, 0.12475712], "xyz": [1.9952141029993498, 9.59581101872484, 6.1813442683251205], "label": "S", "properties": {}}, {"species": [{"element": "S", "occu": 1}], "abc": [0.84889914, 0.7312335, 0.1588705], "xyz": [11.084835835710301, 7.489596237669, 7.871560794133], "label": "S", "properties": {}}, {"species": [{"element": "S", "occu": 1}], "abc": [0.34336046, 0.08489686, 0.06666427000000001], "xyz": [4.4835648338317, 0.86954878742004, 3.3030163189610207], "label": "S", "properties": {}}, {"species": [{"element": "S", "occu": 1}], "abc": [0.64861084, 0.96772239, 0.11859207], "xyz": [8.4694922445818, 9.91181335544946, 5.87588437568382], "label": "S", "properties": {}}, {"species": [{"element": "S", "occu": 1}], "abc": [0.6543533, 0.22581779, 0.16329108], "xyz": [8.5444766843035, 2.31291929374506, 8.09058738632808], "label": "S", "properties": {}}, {"species": [{"element": "S", "occu": 1}], "abc": [0.35043732, 0.43314227, 0.1255638], "xyz": [4.5759737286414, 4.43642245023978, 6.221312863258801], "label": "S", "properties": {}}, {"species": [{"element": "S", "occu": 1}], "abc": [0.84550614, 0.45302343, 0.11909232], "xyz": [11.040530397975301, 4.64005352176002, 5.90067027544032], "label": "S", "properties": {}}, {"species": [{"element": "S", "occu": 1}], "abc": [0.15775035, 0.56808816, 0.06447506], "xyz": [2.0598875065132503, 5.818594123218239, 3.1945474741715603], "label": "S", "properties": {}}, {"species": [{"element": "S", "occu": 1}], "abc": [0.06032696, 0.58886761, 0.13910954], "xyz": [0.7877431093492, 6.03142585281054, 6.892463995228041], "label": "S", "properties": {}}, {"species": [{"element": "S", "occu": 1}], "abc": [0.93523548, 0.0714168, 0.14279802], "xyz": [12.212206698114601, 0.7314804321552001, 7.07521720968852], "label": "S", "properties": {}}, {"species": [{"element": "S", "occu": 1}], "abc": [0.43749521, 0.09797154, 0.14188197], "xyz": [5.712766515182951, 1.00346507289756, 7.02982965652122], "label": "S", "properties": {}}, {"species": [{"element": "S", "occu": 1}], "abc": [0.56231936, 0.57974799, 0.14403557], "xyz": [7.342707159347201, 5.93801892924786, 7.1365341317148205], "label": "S", "properties": {}}, {"species": [{"element": "S", "occu": 1}], "abc": [0.10864191, 0.23709857, 0.10091657000000001], "xyz": [1.41863465337945, 2.42846171274798, 5.000115917620821], "label": "S", "properties": {}}, {"species": [{"element": "S", "occu": 1}], "abc": [0.88330792, 0.81207093, 0.08319478000000001], "xyz": [11.5341420720284, 8.317566662425019, 4.122053927724281], "label": "S", "properties": {}}, {"species": [{"element": "S", "occu": 1}], "abc": [0.38780646, 0.72945217, 0.09987369000000001], "xyz": [5.0639360350017, 7.471351118338379, 4.948444315145941], "label": "S", "properties": {}}, {"species": [{"element": "S", "occu": 1}], "abc": [0.60971968, 0.3072939, 0.08179079], "xyz": [7.9616555608736, 3.1474313434746, 4.052490398690541], "label": "S", "properties": {}}, {"species": [{"element": "S", "occu": 1}], "abc": [0.15557376, 0.57278593, 0.22156821999999998], "xyz": [2.0314658228352003, 5.86671062843502, 10.978046357113719], "label": "S", "properties": {}}, {"species": [{"element": "S", "occu": 1}], "abc": [0.84748302, 0.35743638, 0.25931707], "xyz": [11.0663442894429, 3.66101138262132, 12.84838960953382], "label": "S", "properties": {}}, {"species": [{"element": "S", "occu": 1}], "abc": [0.34713103, 0.71124575, 0.1655537], "xyz": [4.53280054098185, 7.2848734272405, 8.2026934782962], "label": "S", "properties": {}}, {"species": [{"element": "S", "occu": 1}], "abc": [0.65323469, 0.58976176, 0.21885184000000002], "xyz": [8.52986999237755, 6.04058410728864, 10.84345780662784], "label": "S", "properties": {}}, {"species": [{"element": "S", "occu": 1}], "abc": [0.65383757, 0.8581429, 0.26128], "xyz": [8.53774233611515, 8.789454852960601, 12.94564695328], "label": "S", "properties": {}}, {"species": [{"element": "S", "occu": 1}], "abc": [0.34373631, 0.06756341, 0.22425241], "xyz": [4.48847264366745, 0.69201241647174, 11.111039988832662], "label": "S", "properties": {}}, {"species": [{"element": "S", "occu": 1}], "abc": [0.84692279, 0.07771225, 0.21999468], "xyz": [11.05902886492705, 0.7959610373714999, 10.90008212982168], "label": "S", "properties": {}}, {"species": [{"element": "S", "occu": 1}], "abc": [0.14486766, 0.20448439, 0.16695315], "xyz": [1.8916666931757002, 2.0944137789174597, 8.272032063831901], "label": "S", "properties": {}}, {"species": [{"element": "S", "occu": 1}], "abc": [0.06101147, 0.21740748, 0.23966394000000002], "xyz": [0.79668136905565, 2.22677741685672, 11.874635466442442], "label": "S", "properties": {}}, {"species": [{"element": "S", "occu": 1}], "abc": [0.9397042, 0.6982779, 0.24390957000000002], "xyz": [12.270558774659, 7.1520513388506, 12.084993806438822], "label": "S", "properties": {}}, {"species": [{"element": "S", "occu": 1}], "abc": [0.4401621, 0.72369456, 0.24012486], "xyz": [5.7475904847795, 7.41237929306784, 11.897472681666361], "label": "S", "properties": {}}, {"species": [{"element": "S", "occu": 1}], "abc": [0.56007676, 0.19889879, 0.24478729], "xyz": [7.3134235240202, 2.0372037512790597, 12.12848222209954], "label": "S", "properties": {}}, {"species": [{"element": "S", "occu": 1}], "abc": [0.10532482, 0.87424522, 0.20196032], "xyz": [1.3753204404539001, 8.95438148076108, 10.00653322600832], "label": "S", "properties": {}}, {"species": [{"element": "S", "occu": 1}], "abc": [0.89467453, 0.43492597, 0.18467163], "xyz": [11.68256607191435, 4.45469184409158, 9.149930053072381], "label": "S", "properties": {}}, {"species": [{"element": "S", "occu": 1}], "abc": [0.39580422, 0.36552629, 0.20075049], "xyz": [5.1683699453169, 3.74387159006406, 9.94658974754274], "label": "S", "properties": {}}, {"species": [{"element": "S", "occu": 1}], "abc": [0.60315938, 0.92453879, 0.18448549], "xyz": [7.8759918523051, 9.469509046239061, 9.140707369652741], "label": "S", "properties": {}}, {"species": [{"element": "S", "occu": 1}], "abc": [0.15648406, 0.19639851, 0.32197846], "xyz": [2.0433524246537003, 2.01159484840314, 15.953075129059961], "label": "S", "properties": {}}, {"species": [{"element": "S", "occu": 1}], "abc": [0.84965567, 0.98649667, 0.35824258000000003], "xyz": [11.09471452501465, 10.10410730376138, 17.749854425567083], "label": "S", "properties": {}}, {"species": [{"element": "S", "occu": 1}], "abc": [0.34944672, 0.33664125, 0.26648328], "xyz": [4.5630385778544, 3.4480190519775, 13.20345400272528], "label": "S", "properties": {}}, {"species": [{"element": "S", "occu": 1}], "abc": [0.6532002, 0.21054899, 0.32004797], "xyz": [8.529419625579001, 2.1565299228618597, 15.857425090837221], "label": "S", "properties": {}}, {"species": [{"element": "S", "occu": 1}], "abc": [0.64954128, 0.48632708, 0.36037790000000003], "xyz": [8.4816418324056, 4.981163292771121, 17.8556531811254], "label": "S", "properties": {}}, {"species": [{"element": "S", "occu": 1}], "abc": [0.34521164, 0.69534237, 0.32254498], "xyz": [4.5077373478978, 7.12198442528118, 15.98114451022948], "label": "S", "properties": {}}, {"species": [{"element": "S", "occu": 1}], "abc": [0.84712682, 0.70547162, 0.31944568], "xyz": [11.0616930672439, 7.22573239729068, 15.827583412547682], "label": "S", "properties": {}}, {"species": [{"element": "S", "occu": 1}], "abc": [0.15024174, 0.8268454, 0.26782649000000003], "xyz": [1.9618408655373003, 8.4688929007956, 13.270006063518743], "label": "S", "properties": {}}, {"species": [{"element": "S", "occu": 1}], "abc": [0.06217815, 0.83917426, 0.34123392], "xyz": [0.8119157539942501, 8.595170189063639, 16.907125906321923], "label": "S", "properties": {}}, {"species": [{"element": "S", "occu": 1}], "abc": [0.94013072, 0.32396459, 0.3442755], "xyz": [12.2761282280344, 3.31817945212026, 17.057827149663], "label": "S", "properties": {}}, {"species": [{"element": "S", "occu": 1}], "abc": [0.43710234, 0.33947049, 0.34177179], "xyz": [5.7076364599742995, 3.47699729936286, 16.933775765196543], "label": "S", "properties": {}}, {"species": [{"element": "S", "occu": 1}], "abc": [0.56076043, 0.8241422, 0.34465815], "xyz": [7.3223508150948495, 8.4412056072708, 17.0767863191619], "label": "S", "properties": {}}, {"species": [{"element": "S", "occu": 1}], "abc": [0.10567948, 0.49734568, 0.3019109], "xyz": [1.3799515534946, 5.09402035567152, 14.9587872119834], "label": "S", "properties": {}}, {"species": [{"element": "S", "occu": 1}], "abc": [0.896874, 0.06237665, 0.28531026], "xyz": [11.711286520229999, 0.6388874732331, 14.13627487028676], "label": "S", "properties": {}}, {"species": [{"element": "S", "occu": 1}], "abc": [0.39591197, 0.99662884, 0.30208241], "xyz": [5.16977693350315, 10.20788518361976, 14.967285022412662], "label": "S", "properties": {}}, {"species": [{"element": "S", "occu": 1}], "abc": [0.60321086, 0.55804116, 0.28438121], "xyz": [7.8766640727397, 5.715688589760241, 14.09024320578146], "label": "S", "properties": {}}, {"species": [{"element": "S", "occu": 1}], "abc": [0.15277421, 0.81637911, 0.42670576], "xyz": [1.99490959288795, 8.36169282557154, 21.14200138506976], "label": "S", "properties": {}}, {"species": [{"element": "S", "occu": 1}], "abc": [0.86442857, 0.61821445, 0.46268753], "xyz": [11.287617502060149, 6.3320083376823, 22.92479107878578], "label": "S", "properties": {}}, {"species": [{"element": "S", "occu": 1}], "abc": [0.34782711, 0.95090002, 0.36796742], "xyz": [4.54188988053345, 9.739511677448279, 18.23169132589292], "label": "S", "properties": {}}, {"species": [{"element": "S", "occu": 1}], "abc": [0.66018658, 0.84117127, 0.4191003], "xyz": [8.6206470420491, 8.615624392245781, 20.7651734607078], "label": "S", "properties": {}}, {"species": [{"element": "S", "occu": 1}], "abc": [0.64713743, 0.11715076, 0.45909002], "xyz": [8.45025261150985, 1.1999065843346401, 22.746545157280522], "label": "S", "properties": {}}, {"species": [{"element": "S", "occu": 1}], "abc": [0.34630276, 0.31554905, 0.4284605], "xyz": [4.5219850782902, 3.2319840074067, 21.228943533473004], "label": "S", "properties": {}}, {"species": [{"element": "S", "occu": 1}], "abc": [0.84168914, 0.34236756, 0.42161768], "xyz": [10.9906884127603, 3.5066702896898403, 20.88990215301968], "label": "S", "properties": {}}, {"species": [{"element": "S", "occu": 1}], "abc": [0.15191078, 0.450928, 0.36778713], "xyz": [1.9836350146080999, 4.618591260192, 18.22275849257538], "label": "S", "properties": {}}, {"species": [{"element": "S", "occu": 1}], "abc": [0.06215266, 0.47303398, 0.43614834], "xyz": [0.8115829082507, 4.84500985922772, 21.609853141836844], "label": "S", "properties": {}}, {"species": [{"element": "S", "occu": 1}], "abc": [0.93819031, 0.9558012, 0.44531302], "xyz": [12.25079055799745, 9.7897115920968, 22.06393578007852], "label": "S", "properties": {}}, {"species": [{"element": "S", "occu": 1}], "abc": [0.44169351, 0.96221373, 0.43885732], "xyz": [5.7675874757614505, 9.85539137914422, 21.74407504433032], "label": "S", "properties": {}}, {"species": [{"element": "S", "occu": 1}], "abc": [0.56044203, 0.46845282, 0.44851613], "xyz": [7.31819318132685, 4.79808772190748, 22.222640354529382], "label": "S", "properties": {}}, {"species": [{"element": "S", "occu": 1}], "abc": [0.11348691, 0.11810038, 0.40492137], "xyz": [1.48190015465445, 1.20963298551732, 20.062649647345623], "label": "S", "properties": {}}, {"species": [{"element": "S", "occu": 1}], "abc": [0.88765823, 0.6905191, 0.38507019], "xyz": [11.590947963225851, 7.0725824971074, 19.07908271575494], "label": "S", "properties": {}}, {"species": [{"element": "S", "occu": 1}], "abc": [0.39040432, 0.61064353, 0.40376873], "xyz": [5.0978586181064, 6.254463840681421, 20.005539763296984], "label": "S", "properties": {}}, {"species": [{"element": "S", "occu": 1}], "abc": [0.6113056, 0.18943944, 0.38574351], "xyz": [7.982364337712, 1.9403171724081598, 19.11244371930126], "label": "S", "properties": {}}, {"species": [{"element": "S", "occu": 1}], "abc": [0.33784833, 0.58661803, 0.46985885000000005], "xyz": [4.411588019065349, 6.00838472312442, 23.280108657280103], "label": "S", "properties": {}}, {"species": [{"element": "S", "occu": 1}], "abc": [0.15554637, 0.07617057, 0.47122061000000004], "xyz": [2.03110816709115, 0.7801705125559801, 23.34757981540586], "label": "S", "properties": {}}, {"species": [{"element": "S", "occu": 1}], "abc": [0.92343712, 0.31533335, 0.48519139], "xyz": [12.058144952062401, 3.2297747187069, 24.03979041530614], "label": "S", "properties": {}}, {"species": [{"element": "S", "occu": 1}], "abc": [0.6107648, 0.81885901, 0.48519774000000004], "xyz": [7.975302628096, 8.38709298805014, 24.040105038921244], "label": "S", "properties": {}}]}, "formula": "(Li3PS4)20.0", "bandgap": 1.9500000000000002, "slab_thickness": 24.035150336321244}