{"miller": "110_0.01", "final_energy": -699.43106799, "gamma": 0.015612018911362581, "work_function": "Not calculated", "ionization_potentail": "Not calculated", "electron_affinity": "Not calculated", "is_stochiometric": true, "incar_parameters": {"SYSTEM": "unknown system", "LCOMPAT": false, "PREC": "normal", "ENMAX": 520.0, "ENAUG": 628.945, "EDIFF": 1e-05, "IALGO": 38, "IWAVPR": 11, "NBANDS": 462, "NBANDSLOW": -1, "NBANDSHIGH": -1, "NELECT": 760.0, "TURBO": 0, "IRESTART": 0, "NREBOOT": 0, "NMIN": 0, "EREF": 0.0, "ISMEAR": 0, "SIGMA": 0.05, "KSPACING": 0.5, "KGAMMA": true, "KBLOWUP": true, "LREAL": true, "ROPT": [-0.0005, -0.0005, -0.0005], "LMAXPAW": -100, "LMAXMIX": 2, "NLSPLINE": false, "ISTART": 0, "ICHARG": 2, "INIWAV": 1, "ISPIN": 1, "LNONCOLLINEAR": false, "MAGMOM": [0.6, 0.6, 0.6, 0.6, 0.6, 0.6, 0.6, 0.6, 0.6, 0.6, 0.6, 0.6, 0.6, 0.6, 0.6, 0.6, 0.6, 0.6, 0.6, 0.6, 0.6, 0.6, 0.6, 0.6, 0.6, 0.6, 0.6, 0.6, 0.6, 0.6, 0.6, 0.6, 0.6, 0.6, 0.6, 0.6, 0.6, 0.6, 0.6, 0.6, 0.6, 0.6, 0.6, 0.6, 0.6, 0.6, 0.6, 0.6, 0.6, 0.6, 0.6, 0.6, 0.6, 0.6, 0.6, 0.6, 0.6, 0.6, 0.6, 0.6, 0.6, 0.6, 0.6, 0.6, 0.6, 0.6, 0.6, 0.6, 0.6, 0.6, 0.6, 0.6, 0.6, 0.6, 0.6, 0.6, 0.6, 0.6, 0.6, 0.6, 0.6, 0.6, 0.6, 0.6, 0.6, 0.6, 0.6, 0.6, 0.6, 0.6, 0.6, 0.6, 0.6, 0.6, 0.6, 0.6, 0.6, 0.6, 0.6, 0.6, 0.6, 0.6, 0.6, 0.6, 0.6, 0.6, 0.6, 0.6, 0.6, 0.6, 0.6, 0.6, 0.6, 0.6, 0.6, 0.6, 0.6, 0.6, 0.6, 0.6, 0.6, 0.6, 0.6, 0.6, 0.6, 0.6, 0.6, 0.6, 0.6, 0.6, 0.6, 0.6, 0.6, 0.6, 0.6, 0.6, 0.6, 0.6, 0.6, 0.6, 0.6, 0.6, 0.6, 0.6, 0.6, 0.6, 0.6, 0.6, 0.6, 0.6, 0.6, 0.6, 0.6, 0.6, 0.6, 0.6, 0.6, 0.6, 0.6, 0.6], "NUPDOWN": -1.0, "LSORBIT": false, "SAXIS": [0.0, 0.0, 1.0], "LSPIRAL": false, "QSPIRAL": [0.0, 0.0, 0.0], "LZEROZ": false, "LASPH": false, "LMETAGGA": false, "NELM": 100, "NELMDL": -5, "NELMIN": 6, "ENINI": 520.0, "LDIAG": true, "LSUBROT": false, "WEIMIN": 0.001, "EBREAK": 1e-08, "DEPER": 0.3, "NRMM": 4, "TIME": 0.4, "AMIX": 0.4, "BMIX": 1.0, "AMIN": 0.1, "AMIX_MAG": 1.6, "BMIX_MAG": 1.0, "IMIX": 4, "MIXFIRST": false, "MAXMIX": -45, "WC": 100.0, "INIMIX": 1, "MIXPRE": 1, "MREMOVE": 5, "LDIPOL": false, "LMONO": false, "IDIPOL": 0, "EPSILON": 1.0, "DIPOL": [-100.0, -100.0, -100.0], "EFIELD": 0.0, "NGX": 80, "NGY": 60, "NGZ": 280, "NGXF": 160, "NGYF": 120, "NGZF": 560, "ADDGRID": false, "NSW": 150, "IBRION": 2, "MDALGO": 0, "ISIF": 2, "PSTRESS": 0.0, "EDIFFG": -0.01, "NFREE": 1, "POTIM": 0.5, "SMASS": -3.0, "SCALEE": 1.0, "TEBEG": 0.0001, "TEEND": 0.0001, "NBLOCK": 1, "KBLOCK": 150, "NPACO": 256, "APACO": 10.0, "ISYM": 0, "SYMPREC": 1e-05, "LORBIT": 11, "RWIGS": [-1.0, -1.0, -1.0], "NEDOS": 301, "EMIN": 10.0, "EMAX": -10.0, "EFERMI": 0.0, "NWRITE": 2, "LWAVE": false, "LDOWNSAMPLE": false, "LCHARG": false, "LPARD": false, "LVTOT": false, "LVHAR": false, "LELF": false, "LOPTICS": false, "STM": [0.0, 0.0, 0.0, 0.0, 0.0, 0.0, 0.0], "NPAR": 2, "NSIM": 4, "NBLK": -1, "LPLANE": true, "LSCALAPACK": true, "LSCAAWARE": false, "LSCALU": false, "LASYNC": false, "LORBITALREAL": false, "IDIOT": 3, "PHON_NSTRUCT": -1, "LMUSIC": false, "POMASS": [7.01, 30.974, 32.066], "DARWINR": [0.0, 0.0, 0.0], "DARWINV": [1.0, 1.0, 1.0], "LCORR": true, "GGA_COMPAT": true, "LBERRY": false, "ICORELEVEL": 0, "LDAU": false, "I_CONSTRAINED_M": 0, "GGA": "--", "VOSKOWN": 0, "LHFCALC": false, "PRECFOCK": "", "LSYMGRAD": false, "LHFONE": false, "LRHFCALC": false, "LTHOMAS": false, "LMODELHF": false, "LFOCKACE": false, "ENCUT4O": -1.0, "EXXOEP": 0, "FOURORBIT": 0, "AEXX": 0.0, "HFALPHA": 0.0, "MCALPHA": 0.0, "ALDAX": 1.0, "AGGAX": 1.0, "ALDAC": 1.0, "AGGAC": 1.0, "NKREDX": 1, "NKREDY": 1, "NKREDZ": 1, "SHIFTRED": false, "ODDONLY": false, "EVENONLY": false, "LMAXFOCK": 0, "NMAXFOCKAE": 0, "LFOCKAEDFT": false, "HFSCREEN": 0.0, "HFSCREENC": 0.0, "NBANDSGWLOW": 0, "LUSE_VDW": false, "Zab_VDW": -0.8491, "PARAM1": 0.1234, "PARAM2": 1.0, "PARAM3": 0.0, "MODEL_GW": 0, "MODEL_EPS0": 24.84988353, "MODEL_ALPHA": 1.0, "LEPSILON": false, "LRPA": false, "LNABLA": false, "LVEL": false, "CSHIFT": 0.1, "OMEGAMAX": -1.0, "DEG_THRESHOLD": 0.002, "RTIME": -0.1, "WPLASMAI": 0.0, "DFIELD": [0.0, 0.0, 0.0], "WPLASMA": [0.0, 0.0, 0.0, 0.0, 0.0, 0.0, 0.0, 0.0, 0.0], "NUCIND": false, "MAGPOS": [0.0, 0.0, 0.0], "LNICSALL": true, "ORBITALMAG": false, "LMAGBLOCH": false, "LCHIMAG": false, "LGAUGE": true, "MAGATOM": 0, "MAGDIPOL": [0.0, 0.0, 0.0], "AVECCONST": [0.0, 0.0, 0.0], "LFINITE_TEMPERATURE": false, "LADDER": false, "LRPAFORCE": false, "LFXC": false, "LHARTREE": true, "IBSE": 0, "KPOINT": [-1, 0, 0, 0], "LTCTC": false, "LTCTE": false, "LTETE": false, "LTRIPLET": false, "LFXCEPS": false, "LFXHEG": false, "NATURALO": 2, "LHOLEGF": false, "L2ORDER": false, "LDMP1": false, "LMP2LT": false, "LSMP2LT": false, "LGWLF": false, "ENCUTGW": -2.0, "ENCUTGWSOFT": -2.0, "ENCUTLF": -1.0, "LESF_SPLINES": false, "LMAXMP2": -1, "SCISSOR": 0.0, "NOMEGA": 0, "NOMEGAR": 0, "NBANDSGW": -1, "NBANDSO": -1, "NBANDSV": -1, "NELMGW": 1, "NELMHF": 1, "DIM": 3, "IESPILON": 4, "ANTIRES": 0, "OMEGAMIN": -30.0, "OMEGATL": -200.0, "OMEGAGRID": 0, "LSELFENERGY": false, "LSPECTRAL": false, "LSPECTRALGW": false, "LSINGLES": false, "LFERMIGW": false, "ODDONLYGW": false, "EVENONLYGW": false, "NKREDLFX": 1, "NKREDLFY": 1, "NKREDLFZ": 1, "MAXMEM": 2800, "TELESCOPE": 0, "NTAUPAR": -1, "NOMEGAPAR": -1, "DAMP_NEWTON": 0.80000001, "LAMBDA": 1.0, "OFIELD_KAPPA": 0.0, "OFIELD_K": [0.0, 0.0, 0.0], "OFIELD_Q6_NEAR": 0.0, "OFIELD_Q6_FAR": 0.0, "OFIELD_A": 0.0, "KPOINTS_OPT_MODE": 1, "LKPOINTS_OPT": false, "@module": "pymatgen.io.vasp.inputs", "@class": "Incar"}, "relaxed_structures": {"@module": "pymatgen.core.structure", "@class": "Structure", "charge": 0, "lattice": {"matrix": [[13.057895, 0.0, 0.0], [0.0, 10.242414, 0.0], [0.0, 0.0, 49.547026]], "a": 13.057895, "b": 10.242414, "c": 49.547026, "alpha": 90.0, "beta": 90.0, "gamma": 90.0, "volume": 6626.635607229017}, "sites": [{"species": [{"element": "Li", "occu": 1}], "abc": [0.1594703, 0.67957925, 0.031468539999999996], "xyz": [2.0823464330185, 6.9605320243095, 1.55917256956204], "label": "Li", "properties": {}}, {"species": [{"element": "Li", "occu": 1}], "abc": [0.67204985, 0.72604132, 0.026590400000000007], "xyz": [8.77555637606575, 7.43641578054648, 1.3174752401504004], "label": "Li", "properties": {}}, {"species": [{"element": "Li", "occu": 1}], "abc": [0.30854211, 0.17506682, 0.03310374], "xyz": [4.02891047545845, 1.7931068481034802, 1.6401918664772401], "label": "Li", "properties": {}}, {"species": [{"element": "Li", "occu": 1}], "abc": [0.84560472, 0.21326171, 0.023191090000000004], "xyz": [11.0418176452644, 2.18431472416794, 1.1490495391983402], "label": "Li", "properties": {}}, {"species": [{"element": "Li", "occu": 1}], "abc": [0.4844286, 0.64658843, 0.056576110000000006], "xyz": [6.325617793797, 6.62262638767002, 2.8031779931488603], "label": "Li", "properties": {}}, {"species": [{"element": "Li", "occu": 1}], "abc": [0.49087089, 0.21666563, 0.0023716599999999977], "xyz": [6.40974054017655, 2.21917908203082, 0.11750869968315988], "label": "Li", "properties": {}}, {"species": [{"element": "Li", "occu": 1}], "abc": [0.02389454, 0.12786379, 0.055248139999999994], "xyz": [0.3120123943933, 1.30963387278906, 2.73738102903164], "label": "Li", "properties": {}}, {"species": [{"element": "Li", "occu": 1}], "abc": [0.17080031, 0.31662007, 0.13652577], "xyz": [2.2302925139474503, 3.24295383764898, 6.764445875860019], "label": "Li", "properties": {}}, {"species": [{"element": "Li", "occu": 1}], "abc": [0.8500535, 0.57056411, 0.047853059999999996], "xyz": [11.0999093473825, 5.843953828161539, 2.37097680799956], "label": "Li", "properties": {}}, {"species": [{"element": "Li", "occu": 1}], "abc": [0.33093921, 0.43893646, 0.07829839], "xyz": [4.32136945556295, 4.49576894301444, 3.87945236508814], "label": "Li", "properties": {}}, {"species": [{"element": "Li", "occu": 1}], "abc": [0.6698889, 0.4267946, 0.10542453999999998], "xyz": [8.7473389178655, 4.3714069861644, 5.2234724244180395], "label": "Li", "properties": {}}, {"species": [{"element": "Li", "occu": 1}], "abc": [0.66564567, 0.07029611, 0.047366490000000004], "xyz": [8.69193126606465, 0.7200018612095399, 2.34686871155874], "label": "Li", "properties": {}}, {"species": [{"element": "Li", "occu": 1}], "abc": [0.33840488, 0.81933589, 0.133036], "xyz": [4.4188553905276, 8.39197739043846, 6.591538150936], "label": "Li", "properties": {}}, {"species": [{"element": "Li", "occu": 1}], "abc": [0.82510521, 0.94338573, 0.10361351999999999], "xyz": [10.774137196132951, 9.66254720835222, 5.13374176939152], "label": "Li", "properties": {}}, {"species": [{"element": "Li", "occu": 1}], "abc": [0.17276812, 0.94484557, 0.07939979], "xyz": [2.2559879703074, 9.67749949400598, 3.93402345952454], "label": "Li", "properties": {}}, {"species": [{"element": "Li", "occu": 1}], "abc": [0.01235021, 0.41513911, 0.09253775], "xyz": [0.16126774540795, 4.25202663221154, 4.584970305231501], "label": "Li", "properties": {}}, {"species": [{"element": "Li", "occu": 1}], "abc": [0.49511981, 0.26710395, 0.15458022999999999], "xyz": [6.46522249139995, 2.7357892369353, 7.658990674895979], "label": "Li", "properties": {}}, {"species": [{"element": "Li", "occu": 1}], "abc": [0.50467423, 0.99913813, 0.09142117999999999], "xyz": [6.58998310454585, 10.23358637064582, 4.529647582410679], "label": "Li", "properties": {}}, {"species": [{"element": "Li", "occu": 1}], "abc": [0.98742746, 0.74989667, 0.12886815], "xyz": [12.8937240927967, 7.68075215136138, 6.3850335786219], "label": "Li", "properties": {}}, {"species": [{"element": "Li", "occu": 1}], "abc": [0.1686797, 0.94162628, 0.23849121999999998], "xyz": [2.2026018112315, 9.64452619303992, 11.81653067811172], "label": "Li", "properties": {}}, {"species": [{"element": "Li", "occu": 1}], "abc": [0.83717698, 0.19659722, 0.15165257999999998], "xyz": [10.9317691012571, 2.01363011848908, 7.51393432422708], "label": "Li", "properties": {}}, {"species": [{"element": "Li", "occu": 1}], "abc": [0.32420303, 0.08883783, 0.17934769], "xyz": [4.23340912442185, 0.90991383372162, 8.88614465946994], "label": "Li", "properties": {}}, {"species": [{"element": "Li", "occu": 1}], "abc": [0.67313891, 0.04834608, 0.20710778999999999], "xyz": [8.78977720719445, 0.49518056663712, 10.26157505593254], "label": "Li", "properties": {}}, {"species": [{"element": "Li", "occu": 1}], "abc": [0.6700158, 0.70117706, 0.14800816], "xyz": [8.748995964741, 7.18174573582284, 7.333364151732161], "label": "Li", "properties": {}}, {"species": [{"element": "Li", "occu": 1}], "abc": [0.33589939, 0.44810116, 0.23469101], "xyz": [4.386138965184051, 4.58963759460024, 11.628241574436261], "label": "Li", "properties": {}}, {"species": [{"element": "Li", "occu": 1}], "abc": [0.82961671, 0.56443452, 0.20511445999999997], "xyz": [10.833047889425451, 5.78117202973128, 10.16281148259596], "label": "Li", "properties": {}}, {"species": [{"element": "Li", "occu": 1}], "abc": [0.16484073, 0.60434511, 0.17685967], "xyz": [2.15247294406335, 6.18995281549554, 8.76287066784142], "label": "Li", "properties": {}}, {"species": [{"element": "Li", "occu": 1}], "abc": [0.0083781, 0.01588227, 0.19411563], "xyz": [0.1094003500995, 0.16267278459978002, 9.61785216661638], "label": "Li", "properties": {}}, {"species": [{"element": "Li", "occu": 1}], "abc": [0.50624017, 0.88273539, 0.23559356], "xyz": [6.61043098464215, 9.04134131683146, 11.672960242752561], "label": "Li", "properties": {}}, {"species": [{"element": "Li", "occu": 1}], "abc": [0.50852103, 0.60802222, 0.19112402], "xyz": [6.64021421503185, 6.22761529843908, 9.46962678816452], "label": "Li", "properties": {}}, {"species": [{"element": "Li", "occu": 1}], "abc": [0.99380256, 0.37765547, 0.23145955999999998], "xyz": [12.976969479211201, 3.86810367310458, 11.46813283726856], "label": "Li", "properties": {}}, {"species": [{"element": "Li", "occu": 1}], "abc": [0.17063568, 0.56796126, 0.33843139], "xyz": [2.2281427926936, 5.8172943608816405, 16.76826887954614], "label": "Li", "properties": {}}, {"species": [{"element": "Li", "occu": 1}], "abc": [0.83769458, 0.81855216, 0.25279666], "xyz": [10.9385278677091, 8.38395010331424, 12.52532268573316], "label": "Li", "properties": {}}, {"species": [{"element": "Li", "occu": 1}], "abc": [0.33356086, 0.72573928, 0.27826417000000003], "xyz": [4.3556026859897, 7.43332216182192, 13.787162065858423], "label": "Li", "properties": {}}, {"species": [{"element": "Li", "occu": 1}], "abc": [0.67116845, 0.68663046, 0.30624507], "xyz": [8.76404714741275, 7.032753436330441, 15.173532445661822], "label": "Li", "properties": {}}, {"species": [{"element": "Li", "occu": 1}], "abc": [0.66320271, 0.32406677, 0.25067475], "xyz": [8.66003135089545, 3.31922602198278, 12.420188355793501], "label": "Li", "properties": {}}, {"species": [{"element": "Li", "occu": 1}], "abc": [0.32620681, 0.06674139, 0.33846133], "xyz": [4.25957427326495, 0.6835929473154599, 16.76975231750458], "label": "Li", "properties": {}}, {"species": [{"element": "Li", "occu": 1}], "abc": [0.82884664, 0.19131592, 0.30526511], "xyz": [10.8229923962228, 1.95953685743088, 15.12497834206286], "label": "Li", "properties": {}}, {"species": [{"element": "Li", "occu": 1}], "abc": [0.16593397, 0.22940529, 0.27758676000000004], "xyz": [2.16674835719315, 2.3496639539700603, 13.753598414975762], "label": "Li", "properties": {}}, {"species": [{"element": "Li", "occu": 1}], "abc": [0.00861337, 0.6416307, 0.29466783], "xyz": [0.11247248105615, 6.5718472645098, 14.599914634373581], "label": "Li", "properties": {}}, {"species": [{"element": "Li", "occu": 1}], "abc": [0.50416383, 0.50426503, 0.33203204000000003], "xyz": [6.58331835493785, 5.16489120298242, 16.451200118713043], "label": "Li", "properties": {}}, {"species": [{"element": "Li", "occu": 1}], "abc": [0.4883115, 0.14892582, 0.29501114], "xyz": [6.3763202942925, 1.5253599037294798, 14.616924623869641], "label": "Li", "properties": {}}, {"species": [{"element": "Li", "occu": 1}], "abc": [0.99390856, 0.00693518, 0.33124402000000003], "xyz": [12.9783536160812, 0.07103298472452, 16.41215607128452], "label": "Li", "properties": {}}, {"species": [{"element": "Li", "occu": 1}], "abc": [0.15111653, 0.19870748, 0.44244524], "xyz": [1.9732637815043501, 2.03524427505672, 21.921845809856244], "label": "Li", "properties": {}}, {"species": [{"element": "Li", "occu": 1}], "abc": [0.83439017, 0.44939598, 0.35263089000000003], "xyz": [10.895379228892152, 4.60289967709572, 17.471811875233143], "label": "Li", "properties": {}}, {"species": [{"element": "Li", "occu": 1}], "abc": [0.32941902, 0.33623721, 0.38102535000000004], "xyz": [4.3015189741629, 3.44388070702494, 18.878672923109104], "label": "Li", "properties": {}}, {"species": [{"element": "Li", "occu": 1}], "abc": [0.67063401, 0.32606135, 0.40724736], "xyz": [8.75706848600895, 3.3396553360989003, 20.17789553435136], "label": "Li", "properties": {}}, {"species": [{"element": "Li", "occu": 1}], "abc": [0.66307383, 0.95143046, 0.35197262], "xyz": [8.65834844938785, 9.74494466353044, 17.439196554428122], "label": "Li", "properties": {}}, {"species": [{"element": "Li", "occu": 1}], "abc": [0.33319166, 0.699217, 0.43692304000000004], "xyz": [4.3507817111557, 7.161669989838, 21.648237222879043], "label": "Li", "properties": {}}, {"species": [{"element": "Li", "occu": 1}], "abc": [0.83162505, 0.84024547, 0.40536785000000003], "xyz": [10.85927258226975, 8.60614196536458, 20.084771403514104], "label": "Li", "properties": {}}, {"species": [{"element": "Li", "occu": 1}], "abc": [0.16042045, 0.84309617, 0.3806215], "xyz": [2.09475339195275, 8.63534001495438, 18.858663356659], "label": "Li", "properties": {}}, {"species": [{"element": "Li", "occu": 1}], "abc": [0.00178441, 0.2681538, 0.39566709], "xyz": [0.02330063841695, 2.7465422352732, 19.60412759557434], "label": "Li", "properties": {}}, {"species": [{"element": "Li", "occu": 1}], "abc": [0.51260287, 0.11820671, 0.42819094], "xyz": [6.693514453158651, 1.2107220613979401, 21.21558763714444], "label": "Li", "properties": {}}, {"species": [{"element": "Li", "occu": 1}], "abc": [0.49743057, 0.77332547, 0.39431835000000004], "xyz": [6.495396152850151, 7.920719620484579, 19.537301539727103], "label": "Li", "properties": {}}, {"species": [{"element": "Li", "occu": 1}], "abc": [0.97591383, 0.64146368, 0.42933225], "xyz": [12.74338032118785, 6.57013657652352, 21.2721361533885], "label": "Li", "properties": {}}, {"species": [{"element": "Li", "occu": 1}], "abc": [0.83897903, 0.08630893, 0.45576861], "xyz": [10.95530008094185, 0.88401179295702, 22.581979169653863], "label": "Li", "properties": {}}, {"species": [{"element": "Li", "occu": 1}], "abc": [0.3286035, 0.03719196, 0.45983429], "xyz": [4.2908699996325, 0.38093545179144006, 22.78342152232154], "label": "Li", "properties": {}}, {"species": [{"element": "Li", "occu": 1}], "abc": [0.69211872, 0.59588511, 0.45168169], "xyz": [9.037613573294399, 6.10330199305554, 22.37948443815394], "label": "Li", "properties": {}}, {"species": [{"element": "Li", "occu": 1}], "abc": [0.15588763, 0.55570582, 0.46034018], "xyz": [2.03556430433885, 5.69176907064948, 22.80848686730468], "label": "Li", "properties": {}}, {"species": [{"element": "Li", "occu": 1}], "abc": [0.50944561, 0.55552456, 0.4827750900000001], "xyz": [6.65228728359095, 5.689912530687839, 23.920069936382344], "label": "Li", "properties": {}}, {"species": [{"element": "P", "occu": 1}], "abc": [0.08697644, 0.40420857, 0.03100091], "xyz": [1.1357292209938001, 4.14007151628798, 1.53600289379366], "label": "P", "properties": {}}, {"species": [{"element": "P", "occu": 1}], "abc": [0.40694222, 0.91034617, 0.033478539999999994], "xyz": [5.313808779826901, 9.324142356454379, 1.6587620918220398], "label": "P", "properties": {}}, {"species": [{"element": "P", "occu": 1}], "abc": [0.08745296, 0.0390306, 0.13317563], "xyz": [1.1419515691192, 0.3997675638684, 6.59845640217638], "label": "P", "properties": {}}, {"species": [{"element": "P", "occu": 1}], "abc": [0.91204205, 0.84824452, 0.04912346], "xyz": [11.90934932448475, 8.68807154707128, 2.4339213498299603], "label": "P", "properties": {}}, {"species": [{"element": "P", "occu": 1}], "abc": [0.41176265, 0.53764006, 0.13292816], "xyz": [5.37675344862175, 5.506732077504839, 6.58619499965216], "label": "P", "properties": {}}, {"species": [{"element": "P", "occu": 1}], "abc": [0.59103491, 0.34669423, 0.04840563], "xyz": [7.71767179611445, 3.55098583507122, 2.39835500815638], "label": "P", "properties": {}}, {"species": [{"element": "P", "occu": 1}], "abc": [0.08984281, 0.66895846, 0.23341605], "xyz": [1.17315797948495, 6.851749496122441, 11.565071098167301], "label": "P", "properties": {}}, {"species": [{"element": "P", "occu": 1}], "abc": [0.91124781, 0.47438484, 0.15125154999999998], "xyz": [11.89897822195995, 4.85884592660376, 7.4940644803903], "label": "P", "properties": {}}, {"species": [{"element": "P", "occu": 1}], "abc": [0.41100625, 0.16768004, 0.23303580999999998], "xyz": [5.36687645684375, 1.71744838921656, 11.54623133700106], "label": "P", "properties": {}}, {"species": [{"element": "P", "occu": 1}], "abc": [0.58744943, 0.97561756, 0.15241345], "xyz": [7.670852974749851, 9.99267895518984, 7.5516331698997], "label": "P", "properties": {}}, {"species": [{"element": "P", "occu": 1}], "abc": [0.08876742, 0.29663538, 0.33370357], "xyz": [1.1591156497809, 3.0382623690073203, 16.53401945908282], "label": "P", "properties": {}}, {"species": [{"element": "P", "occu": 1}], "abc": [0.91150214, 0.10021814, 0.25180486], "xyz": [11.902299236395299, 1.02647568018996, 12.476181945346362], "label": "P", "properties": {}}, {"species": [{"element": "P", "occu": 1}], "abc": [0.40906654, 0.79657444, 0.33403284], "xyz": [5.3415479273333, 8.15884519629816, 16.55033380833384], "label": "P", "properties": {}}, {"species": [{"element": "P", "occu": 1}], "abc": [0.58965463, 0.60463233, 0.25200546], "xyz": [7.69964824480385, 6.192894641644621, 12.486121078761961], "label": "P", "properties": {}}, {"species": [{"element": "P", "occu": 1}], "abc": [0.08786201, 0.92343399, 0.43784302], "xyz": [1.14729290106895, 9.45819322725186, 21.693819495858524], "label": "P", "properties": {}}, {"species": [{"element": "P", "occu": 1}], "abc": [0.9088863, 0.73155612, 0.3516579], "xyz": [11.868141872338501, 7.49290064527368, 17.423603114405402], "label": "P", "properties": {}}, {"species": [{"element": "P", "occu": 1}], "abc": [0.40941753, 0.42263182, 0.43723765000000003], "xyz": [5.34613111789935, 4.32877007001348, 21.663825212728902], "label": "P", "properties": {}}, {"species": [{"element": "P", "occu": 1}], "abc": [0.58743282, 0.23277807, 0.35240047], "xyz": [7.6706360831139, 2.38420936306098, 17.460395249502223], "label": "P", "properties": {}}, {"species": [{"element": "P", "occu": 1}], "abc": [0.9156282, 0.36122522, 0.45382038], "xyz": [11.956176894639, 3.6998182504810804, 22.48545016718988], "label": "P", "properties": {}}, {"species": [{"element": "P", "occu": 1}], "abc": [0.594711, 0.86092929, 0.45198935000000007], "xyz": [7.765673793345, 8.81799421290606, 22.394728076173106], "label": "P", "properties": {}}, {"species": [{"element": "S", "occu": 1}], "abc": [0.13604052, 0.22022447, 0.021573890000000005], "xyz": [1.7764028259054, 2.25563019467058, 1.0689220887511404], "label": "S", "properties": {}}, {"species": [{"element": "S", "occu": 1}], "abc": [0.66184132, 0.25988336, 0.015375229999999997], "xyz": [8.6422544632214, 2.66183296483104, 0.7617969205659799], "label": "S", "properties": {}}, {"species": [{"element": "S", "occu": 1}], "abc": [0.35075497, 0.72958293, 0.026895049999999997], "xyz": [4.58012156898815, 7.47269041639302, 1.3325697416212998], "label": "S", "properties": {}}, {"species": [{"element": "S", "occu": 1}], "abc": [0.84764824, 0.75848391, 0.016639900000000006], "xyz": [11.0685017148548, 7.768706218558741, 0.8244575579374004], "label": "S", "properties": {}}, {"species": [{"element": "S", "occu": 1}], "abc": [0.06286984, 0.88696953, 0.04133514], "xyz": [0.8209477693867999, 9.08470913164542, 2.04803325629364], "label": "S", "properties": {}}, {"species": [{"element": "S", "occu": 1}], "abc": [0.44082325, 0.37788733, 0.03721851], "xyz": [5.75622371205875, 3.8704784792146203, 1.8440664826512603], "label": "S", "properties": {}}, {"species": [{"element": "S", "occu": 1}], "abc": [0.08539962, 0.52721081, 0.00010000000000000286], "xyz": [1.1151392709999, 5.3999113812953405, 0.0049547026000001425], "label": "S", "properties": {}}, {"species": [{"element": "S", "occu": 1}], "abc": [0.39234187, 0.02497528, 0.00012739999999999974], "xyz": [5.1231589425636495, 0.25580715752592, 0.006312291112399987], "label": "S", "properties": {}}, {"species": [{"element": "S", "occu": 1}], "abc": [0.15379018, 0.86116893, 0.12478334999999999], "xyz": [2.0081760224711, 8.820448704997021, 6.182643886817099], "label": "S", "properties": {}}, {"species": [{"element": "S", "occu": 1}], "abc": [0.84702694, 0.03221743, 0.057492560000000005], "xyz": [11.0603888446913, 0.32998425607602, 2.8485853651265605], "label": "S", "properties": {}}, {"species": [{"element": "S", "occu": 1}], "abc": [0.34368037, 0.00862823, 0.06626409999999999], "xyz": [4.48774218502115, 0.08837390374722001, 3.2831890855665997], "label": "S", "properties": {}}, {"species": [{"element": "S", "occu": 1}], "abc": [0.64912619, 0.8909386, 0.11853395], "xyz": [8.47622163077005, 9.1253619897804, 5.8730047025327], "label": "S", "properties": {}}, {"species": [{"element": "S", "occu": 1}], "abc": [0.65433515, 0.52707496, 0.05822011999999999], "xyz": [8.54423968350925, 5.39851994935344, 2.8846337993631197], "label": "S", "properties": {}}, {"species": [{"element": "S", "occu": 1}], "abc": [0.35229856, 0.35570461, 0.12543437], "xyz": [4.6002776051311995, 3.64327387732854, 6.21489999168362], "label": "S", "properties": {}}, {"species": [{"element": "S", "occu": 1}], "abc": [0.84722487, 0.37784643, 0.11903482999999998], "xyz": [11.062973393848651, 3.87005956448202, 5.897821816915579], "label": "S", "properties": {}}, {"species": [{"element": "S", "occu": 1}], "abc": [0.15925187, 0.48975078, 0.06424518000000001], "xyz": [2.07949419701365, 5.01623024558292, 3.183157603834681], "label": "S", "properties": {}}, {"species": [{"element": "S", "occu": 1}], "abc": [0.06143158, 0.51368394, 0.13922990999999998], "xyz": [0.8021671213241001, 5.261363578631159, 6.89842797074766], "label": "S", "properties": {}}, {"species": [{"element": "S", "occu": 1}], "abc": [0.93903278, 0.36752836, 0.047746989999999996], "xyz": [12.261791442798101, 3.76437761986104, 2.3657213549517397], "label": "S", "properties": {}}, {"species": [{"element": "S", "occu": 1}], "abc": [0.4379095, 0.02087809, 0.14156943], "xyz": [5.7181762705025, 0.21384204130926, 7.0143442290151805], "label": "S", "properties": {}}, {"species": [{"element": "S", "occu": 1}], "abc": [0.55904959, 0.87989757, 0.046864499999999996], "xyz": [7.30001084601305, 9.01227518953398, 2.321996599977], "label": "S", "properties": {}}, {"species": [{"element": "S", "occu": 1}], "abc": [0.10992556, 0.16144287, 0.10081252999999998], "xyz": [1.4353964202962002, 1.65356471188818, 4.9949610450357795], "label": "S", "properties": {}}, {"species": [{"element": "S", "occu": 1}], "abc": [0.88456753, 0.73647049, 0.08311800999999999], "xyz": [11.55058992714935, 7.54323565736286, 4.11825020253826], "label": "S", "properties": {}}, {"species": [{"element": "S", "occu": 1}], "abc": [0.38964384, 0.65173226, 0.09954631], "xyz": [5.0879283501168, 6.67531162407564, 4.93222360977406], "label": "S", "properties": {}}, {"species": [{"element": "S", "occu": 1}], "abc": [0.61011682, 0.23040983, 0.08154422], "xyz": [7.9668413732939, 2.35995286852962, 4.04027358848972], "label": "S", "properties": {}}, {"species": [{"element": "S", "occu": 1}], "abc": [0.15637781, 0.49564713, 0.22165269], "xyz": [2.0419650233099502, 5.07662310337182, 10.982231594399941], "label": "S", "properties": {}}, {"species": [{"element": "S", "occu": 1}], "abc": [0.84949795, 0.65505551, 0.1590848], "xyz": [11.09265503381525, 6.70934972640114, 7.8821787218048005], "label": "S", "properties": {}}, {"species": [{"element": "S", "occu": 1}], "abc": [0.34850259, 0.63444167, 0.16523353999999998], "xyz": [4.55071022744805, 6.49821424299138, 8.18683050245204], "label": "S", "properties": {}}, {"species": [{"element": "S", "occu": 1}], "abc": [0.65260781, 0.51276395, 0.21899122000000001], "xyz": [8.52168425915995, 5.2519406601753, 10.85036367111172], "label": "S", "properties": {}}, {"species": [{"element": "S", "occu": 1}], "abc": [0.65520227, 0.14960211, 0.16294793999999999], "xyz": [8.55556244542165, 1.53228674589354, 8.07358581982644], "label": "S", "properties": {}}, {"species": [{"element": "S", "occu": 1}], "abc": [0.34428635, 0.99092026, 0.22362990000000002], "xyz": [4.495655008233251, 10.14941554390764, 11.080196469677402], "label": "S", "properties": {}}, {"species": [{"element": "S", "occu": 1}], "abc": [0.84848939, 0.99984502, 0.21975119], "xyz": [11.07948536323405, 10.24082663067828, 10.888017924460941], "label": "S", "properties": {}}, {"species": [{"element": "S", "occu": 1}], "abc": [0.14542452, 0.12954801, 0.16682521], "xyz": [1.8989381125854001, 1.32688435129614, 8.26569301732546], "label": "S", "properties": {}}, {"species": [{"element": "S", "occu": 1}], "abc": [0.06151976, 0.13996122, 0.23995715999999997], "xyz": [0.8033185665052001, 1.43354075918508, 11.889163645406159], "label": "S", "properties": {}}, {"species": [{"element": "S", "occu": 1}], "abc": [0.93622268, 0.99598995, 0.14269842], "xyz": [12.2250974520586, 10.2013414077393, 7.07028232589892], "label": "S", "properties": {}}, {"species": [{"element": "S", "occu": 1}], "abc": [0.43965197, 0.64763716, 0.24009683], "xyz": [5.74092926080315, 6.63336791450424, 11.89608387852758], "label": "S", "properties": {}}, {"species": [{"element": "S", "occu": 1}], "abc": [0.56377948, 0.50301533, 0.1439636], "xyz": [7.3617732529946, 5.15209125820662, 7.1329682322536], "label": "S", "properties": {}}, {"species": [{"element": "S", "occu": 1}], "abc": [0.10592182, 0.79689248, 0.20185505], "xyz": [1.3831160037689, 8.16210269364672, 10.0013174105813], "label": "S", "properties": {}}, {"species": [{"element": "S", "occu": 1}], "abc": [0.89577612, 0.35871909, 0.18470351], "xyz": [11.6969505184674, 3.6741494294832604, 9.15150961226126], "label": "S", "properties": {}}, {"species": [{"element": "S", "occu": 1}], "abc": [0.39583778, 0.28932762, 0.20036650999999997], "xyz": [5.1688081682731, 2.96341326567468, 9.927564680499259], "label": "S", "properties": {}}, {"species": [{"element": "S", "occu": 1}], "abc": [0.60345186, 0.84854032, 0.18441185999999998], "xyz": [7.8798110254347, 8.69110125313248, 9.137059222128359], "label": "S", "properties": {}}, {"species": [{"element": "S", "occu": 1}], "abc": [0.15492459, 0.12275399, 0.32197172], "xyz": [2.02298902913805, 1.25729718573186, 15.952741182104722], "label": "S", "properties": {}}, {"species": [{"element": "S", "occu": 1}], "abc": [0.8475782, 0.27996748, 0.25902287], "xyz": [11.067587139889, 2.8675428366967197, 12.833812874484622], "label": "S", "properties": {}}, {"species": [{"element": "S", "occu": 1}], "abc": [0.34993754, 0.25933787, 0.26607573], "xyz": [4.5694476538783, 2.65624583041818, 13.18326111227898], "label": "S", "properties": {}}, {"species": [{"element": "S", "occu": 1}], "abc": [0.65195962, 0.1379435, 0.31983350000000005], "xyz": [8.5132202621999, 1.412874435609, 15.846798740171003], "label": "S", "properties": {}}, {"species": [{"element": "S", "occu": 1}], "abc": [0.65279999, 0.78305015, 0.26097295000000004], "xyz": [8.52419372542105, 8.0203238190621, 12.930433538946703], "label": "S", "properties": {}}, {"species": [{"element": "S", "occu": 1}], "abc": [0.34415459, 0.62169534, 0.32263059], "xyz": [4.4939344999880495, 6.36766105415076, 15.985386231125341], "label": "S", "properties": {}}, {"species": [{"element": "S", "occu": 1}], "abc": [0.8461602, 0.63212493, 0.31939867], "xyz": [11.049071044779, 6.474485232781021, 15.825254206855421], "label": "S", "properties": {}}, {"species": [{"element": "S", "occu": 1}], "abc": [0.1501414, 0.75046496, 0.26776539000000005], "xyz": [1.9605306363530002, 7.68657281281344, 13.266978740230144], "label": "S", "properties": {}}, {"species": [{"element": "S", "occu": 1}], "abc": [0.06100744, 0.76637909, 0.34095193], "xyz": [0.7966287457388, 7.84957192072326, 16.893154140460183], "label": "S", "properties": {}}, {"species": [{"element": "S", "occu": 1}], "abc": [0.94006179, 0.62078142, 0.24389331], "xyz": [12.27522814733205, 6.35830030714788, 12.084188171796061], "label": "S", "properties": {}}, {"species": [{"element": "S", "occu": 1}], "abc": [0.4351925, 0.2659868, 0.34151857], "xyz": [5.6826979697875, 2.7243469241352, 16.921229467272823], "label": "S", "properties": {}}, {"species": [{"element": "S", "occu": 1}], "abc": [0.56072359, 0.12224279, 0.24423192000000002], "xyz": [7.32186976224305, 1.25206126369506, 12.100965290269922], "label": "S", "properties": {}}, {"species": [{"element": "S", "occu": 1}], "abc": [0.105257, 0.42363388, 0.30191497], "xyz": [1.374434854015, 4.33903358338632, 14.95898886837922], "label": "S", "properties": {}}, {"species": [{"element": "S", "occu": 1}], "abc": [0.89537031, 0.98491257, 0.28522756000000005], "xyz": [11.69165149409745, 10.08788229574398, 14.132177331236562], "label": "S", "properties": {}}, {"species": [{"element": "S", "occu": 1}], "abc": [0.39325363, 0.92325273, 0.30217336], "xyz": [5.13506460890885, 9.45633668729022, 14.971791324427361], "label": "S", "properties": {}}, {"species": [{"element": "S", "occu": 1}], "abc": [0.60355667, 0.48349892, 0.28456341], "xyz": [7.8811796234096505, 4.95219610719288, 14.099270673918662], "label": "S", "properties": {}}, {"species": [{"element": "S", "occu": 1}], "abc": [0.15248356, 0.74209767, 0.42686015], "xyz": [1.9911143157062, 7.600871564575381, 21.1496509504139], "label": "S", "properties": {}}, {"species": [{"element": "S", "occu": 1}], "abc": [0.8482827, 0.91387353, 0.35803491000000004], "xyz": [11.076786426916499, 9.36027103790142, 17.739564994677664], "label": "S", "properties": {}}, {"species": [{"element": "S", "occu": 1}], "abc": [0.34578603, 0.87636772, 0.36814022], "xyz": [4.51523767220685, 8.976121004476079, 18.24025305198572], "label": "S", "properties": {}}, {"species": [{"element": "S", "occu": 1}], "abc": [0.66083016, 0.76689447, 0.41905265], "xyz": [8.629050842113202, 7.85485065605058, 20.7628125449189], "label": "S", "properties": {}}, {"species": [{"element": "S", "occu": 1}], "abc": [0.64747809, 0.41367937, 0.36023446000000003], "xyz": [8.45470091402055, 4.23707537079918, 17.84854615571596], "label": "S", "properties": {}}, {"species": [{"element": "S", "occu": 1}], "abc": [0.34500135, 0.24130338, 0.42849328000000003], "xyz": [4.50499140315825, 2.4715291175593204, 21.23056768498528], "label": "S", "properties": {}}, {"species": [{"element": "S", "occu": 1}], "abc": [0.84057279, 0.26906061, 0.42162835000000004], "xyz": [10.97611123167705, 2.75583015871254, 20.890430819787102], "label": "S", "properties": {}}, {"species": [{"element": "S", "occu": 1}], "abc": [0.1501467, 0.37724372, 0.36787195], "xyz": [1.9605998431965, 3.8638863591400803, 18.2269610713207], "label": "S", "properties": {}}, {"species": [{"element": "S", "occu": 1}], "abc": [0.06143868, 0.39843257, 0.43634427000000003], "xyz": [0.8022598323786001, 4.08091133302398, 21.619560890641022], "label": "S", "properties": {}}, {"species": [{"element": "S", "occu": 1}], "abc": [0.93850401, 0.25072918, 0.34405731], "xyz": [12.254886819658951, 2.56807206344052, 17.047016484060062], "label": "S", "properties": {}}, {"species": [{"element": "S", "occu": 1}], "abc": [0.44201554, 0.88739426, 0.43860347], "xyz": [5.7717925096883, 9.089059392143641, 21.73149753178022], "label": "S", "properties": {}}, {"species": [{"element": "S", "occu": 1}], "abc": [0.55947373, 0.75182374, 0.34453246000000004], "xyz": [7.30554922159835, 7.70049000010836, 17.070558753463963], "label": "S", "properties": {}}, {"species": [{"element": "S", "occu": 1}], "abc": [0.11211219, 0.04341849, 0.40499842], "xyz": [1.46394920524005, 0.44471014983485996, 20.066467245698924], "label": "S", "properties": {}}, {"species": [{"element": "S", "occu": 1}], "abc": [0.88669567, 0.61836766, 0.38499321000000003], "xyz": [11.578378955814651, 6.33357757793124, 19.07526858569346], "label": "S", "properties": {}}, {"species": [{"element": "S", "occu": 1}], "abc": [0.38944808, 0.53588787, 0.40367924], "xyz": [5.0853721365916, 5.48878542211818, 20.00110579994024], "label": "S", "properties": {}}, {"species": [{"element": "S", "occu": 1}], "abc": [0.6092267, 0.11614047, 0.38544100000000003], "xyz": [7.9552182797965, 1.18955877589458, 19.097455248466], "label": "S", "properties": {}}, {"species": [{"element": "S", "occu": 1}], "abc": [0.86429532, 0.54461953, 0.46276583000000004], "xyz": [11.2858775375514, 5.578218698745419, 22.928670610921582], "label": "S", "properties": {}}, {"species": [{"element": "S", "occu": 1}], "abc": [0.33836058, 0.51274664, 0.46984985], "xyz": [4.4182769257791, 5.25176336398896, 23.279662734046102], "label": "S", "properties": {}}, {"species": [{"element": "S", "occu": 1}], "abc": [0.64665178, 0.04337402, 0.45888346], "xyz": [8.4439110448031, 0.44425466968428, 22.736310723589963], "label": "S", "properties": {}}, {"species": [{"element": "S", "occu": 1}], "abc": [0.15455359, 0.00219034, 0.4712933100000001], "xyz": [2.0181445500930497, 0.02243436908076, 23.351181884196066], "label": "S", "properties": {}}, {"species": [{"element": "S", "occu": 1}], "abc": [0.9371834, 0.8814955, 0.44537360000000004], "xyz": [12.237642432943, 9.028641850137, 22.066937338913604], "label": "S", "properties": {}}, {"species": [{"element": "S", "occu": 1}], "abc": [0.5599886, 0.39366389, 0.44819381], "xyz": [7.3122723399969995, 4.03206853823046, 22.20667035710906], "label": "S", "properties": {}}, {"species": [{"element": "S", "occu": 1}], "abc": [0.92132429, 0.24112923, 0.48527078], "xyz": [12.030555839769551, 2.46974540116122, 24.043723953700283], "label": "S", "properties": {}}, {"species": [{"element": "S", "occu": 1}], "abc": [0.61064461, 0.74494362, 0.48509465000000007], "xyz": [7.973733199695951, 7.630020962698681, 24.034997236010906], "label": "S", "properties": {}}]}, "formula": "(Li3PS4)20.0", "bandgap": 1.9304000000000001, "slab_thickness": 24.038769251100284}