{"miller": "110_0.05", "final_energy": -699.42596706, "gamma": 0.01563108861175925, "work_function": "Not calculated", "ionization_potentail": "Not calculated", "electron_affinity": "Not calculated", "is_stochiometric": true, "incar_parameters": {"SYSTEM": "unknown system", "LCOMPAT": false, "PREC": "normal", "ENMAX": 520.0, "ENAUG": 628.945, "EDIFF": 1e-05, "IALGO": 38, "IWAVPR": 11, "NBANDS": 462, "NBANDSLOW": -1, "NBANDSHIGH": -1, "NELECT": 760.0, "TURBO": 0, "IRESTART": 0, "NREBOOT": 0, "NMIN": 0, "EREF": 0.0, "ISMEAR": 0, "SIGMA": 0.05, "KSPACING": 0.5, "KGAMMA": true, "KBLOWUP": true, "LREAL": true, "ROPT": [-0.0005, -0.0005, -0.0005], "LMAXPAW": -100, "LMAXMIX": 2, "NLSPLINE": false, "ISTART": 0, "ICHARG": 2, "INIWAV": 1, "ISPIN": 1, "LNONCOLLINEAR": false, "MAGMOM": [0.6, 0.6, 0.6, 0.6, 0.6, 0.6, 0.6, 0.6, 0.6, 0.6, 0.6, 0.6, 0.6, 0.6, 0.6, 0.6, 0.6, 0.6, 0.6, 0.6, 0.6, 0.6, 0.6, 0.6, 0.6, 0.6, 0.6, 0.6, 0.6, 0.6, 0.6, 0.6, 0.6, 0.6, 0.6, 0.6, 0.6, 0.6, 0.6, 0.6, 0.6, 0.6, 0.6, 0.6, 0.6, 0.6, 0.6, 0.6, 0.6, 0.6, 0.6, 0.6, 0.6, 0.6, 0.6, 0.6, 0.6, 0.6, 0.6, 0.6, 0.6, 0.6, 0.6, 0.6, 0.6, 0.6, 0.6, 0.6, 0.6, 0.6, 0.6, 0.6, 0.6, 0.6, 0.6, 0.6, 0.6, 0.6, 0.6, 0.6, 0.6, 0.6, 0.6, 0.6, 0.6, 0.6, 0.6, 0.6, 0.6, 0.6, 0.6, 0.6, 0.6, 0.6, 0.6, 0.6, 0.6, 0.6, 0.6, 0.6, 0.6, 0.6, 0.6, 0.6, 0.6, 0.6, 0.6, 0.6, 0.6, 0.6, 0.6, 0.6, 0.6, 0.6, 0.6, 0.6, 0.6, 0.6, 0.6, 0.6, 0.6, 0.6, 0.6, 0.6, 0.6, 0.6, 0.6, 0.6, 0.6, 0.6, 0.6, 0.6, 0.6, 0.6, 0.6, 0.6, 0.6, 0.6, 0.6, 0.6, 0.6, 0.6, 0.6, 0.6, 0.6, 0.6, 0.6, 0.6, 0.6, 0.6, 0.6, 0.6, 0.6, 0.6, 0.6, 0.6, 0.6, 0.6, 0.6, 0.6], "NUPDOWN": -1.0, "LSORBIT": false, "SAXIS": [0.0, 0.0, 1.0], "LSPIRAL": false, "QSPIRAL": [0.0, 0.0, 0.0], "LZEROZ": false, "LASPH": false, "LMETAGGA": false, "NELM": 100, "NELMDL": -5, "NELMIN": 6, "ENINI": 520.0, "LDIAG": true, "LSUBROT": false, "WEIMIN": 0.001, "EBREAK": 1e-08, "DEPER": 0.3, "NRMM": 4, "TIME": 0.4, "AMIX": 0.4, "BMIX": 1.0, "AMIN": 0.1, "AMIX_MAG": 1.6, "BMIX_MAG": 1.0, "IMIX": 4, "MIXFIRST": false, "MAXMIX": -45, "WC": 100.0, "INIMIX": 1, "MIXPRE": 1, "MREMOVE": 5, "LDIPOL": false, "LMONO": false, "IDIPOL": 0, "EPSILON": 1.0, "DIPOL": [-100.0, -100.0, -100.0], "EFIELD": 0.0, "NGX": 80, "NGY": 60, "NGZ": 280, "NGXF": 160, "NGYF": 120, "NGZF": 560, "ADDGRID": false, "NSW": 150, "IBRION": 2, "MDALGO": 0, "ISIF": 2, "PSTRESS": 0.0, "EDIFFG": -0.01, "NFREE": 1, "POTIM": 0.5, "SMASS": -3.0, "SCALEE": 1.0, "TEBEG": 0.0001, "TEEND": 0.0001, "NBLOCK": 1, "KBLOCK": 150, "NPACO": 256, "APACO": 10.0, "ISYM": 0, "SYMPREC": 1e-05, "LORBIT": 11, "RWIGS": [-1.0, -1.0, -1.0], "NEDOS": 301, "EMIN": 10.0, "EMAX": -10.0, "EFERMI": 0.0, "NWRITE": 2, "LWAVE": false, "LDOWNSAMPLE": false, "LCHARG": false, "LPARD": false, "LVTOT": false, "LVHAR": false, "LELF": false, "LOPTICS": false, "STM": [0.0, 0.0, 0.0, 0.0, 0.0, 0.0, 0.0], "NPAR": 2, "NSIM": 4, "NBLK": -1, "LPLANE": true, "LSCALAPACK": true, "LSCAAWARE": false, "LSCALU": false, "LASYNC": false, "LORBITALREAL": false, "IDIOT": 3, "PHON_NSTRUCT": -1, "LMUSIC": false, "POMASS": [7.01, 30.974, 32.066], "DARWINR": [0.0, 0.0, 0.0], "DARWINV": [1.0, 1.0, 1.0], "LCORR": true, "GGA_COMPAT": true, "LBERRY": false, "ICORELEVEL": 0, "LDAU": false, "I_CONSTRAINED_M": 0, "GGA": "--", "VOSKOWN": 0, "LHFCALC": false, "PRECFOCK": "", "LSYMGRAD": false, "LHFONE": false, "LRHFCALC": false, "LTHOMAS": false, "LMODELHF": false, "LFOCKACE": false, "ENCUT4O": -1.0, "EXXOEP": 0, "FOURORBIT": 0, "AEXX": 0.0, "HFALPHA": 0.0, "MCALPHA": 0.0, "ALDAX": 1.0, "AGGAX": 1.0, "ALDAC": 1.0, "AGGAC": 1.0, "NKREDX": 1, "NKREDY": 1, "NKREDZ": 1, "SHIFTRED": false, "ODDONLY": false, "EVENONLY": false, "LMAXFOCK": 0, "NMAXFOCKAE": 0, "LFOCKAEDFT": false, "HFSCREEN": 0.0, "HFSCREENC": 0.0, "NBANDSGWLOW": 0, "LUSE_VDW": false, "Zab_VDW": -0.8491, "PARAM1": 0.1234, "PARAM2": 1.0, "PARAM3": 0.0, "MODEL_GW": 0, "MODEL_EPS0": 24.84988353, "MODEL_ALPHA": 1.0, "LEPSILON": false, "LRPA": false, "LNABLA": false, "LVEL": false, "CSHIFT": 0.1, "OMEGAMAX": -1.0, "DEG_THRESHOLD": 0.002, "RTIME": -0.1, "WPLASMAI": 0.0, "DFIELD": [0.0, 0.0, 0.0], "WPLASMA": [0.0, 0.0, 0.0, 0.0, 0.0, 0.0, 0.0, 0.0, 0.0], "NUCIND": false, "MAGPOS": [0.0, 0.0, 0.0], "LNICSALL": true, "ORBITALMAG": false, "LMAGBLOCH": false, "LCHIMAG": false, "LGAUGE": true, "MAGATOM": 0, "MAGDIPOL": [0.0, 0.0, 0.0], "AVECCONST": [0.0, 0.0, 0.0], "LFINITE_TEMPERATURE": false, "LADDER": false, "LRPAFORCE": false, "LFXC": false, "LHARTREE": true, "IBSE": 0, "KPOINT": [-1, 0, 0, 0], "LTCTC": false, "LTCTE": false, "LTETE": false, "LTRIPLET": false, "LFXCEPS": false, "LFXHEG": false, "NATURALO": 2, "LHOLEGF": false, "L2ORDER": false, "LDMP1": false, "LMP2LT": false, "LSMP2LT": false, "LGWLF": false, "ENCUTGW": -2.0, "ENCUTGWSOFT": -2.0, "ENCUTLF": -1.0, "LESF_SPLINES": false, "LMAXMP2": -1, "SCISSOR": 0.0, "NOMEGA": 0, "NOMEGAR": 0, "NBANDSGW": -1, "NBANDSO": -1, "NBANDSV": -1, "NELMGW": 1, "NELMHF": 1, "DIM": 3, "IESPILON": 4, "ANTIRES": 0, "OMEGAMIN": -30.0, "OMEGATL": -200.0, "OMEGAGRID": 0, "LSELFENERGY": false, "LSPECTRAL": false, "LSPECTRALGW": false, "LSINGLES": false, "LFERMIGW": false, "ODDONLYGW": false, "EVENONLYGW": false, "NKREDLFX": 1, "NKREDLFY": 1, "NKREDLFZ": 1, "MAXMEM": 2800, "TELESCOPE": 0, "NTAUPAR": -1, "NOMEGAPAR": -1, "DAMP_NEWTON": 0.80000001, "LAMBDA": 1.0, "OFIELD_KAPPA": 0.0, "OFIELD_K": [0.0, 0.0, 0.0], "OFIELD_Q6_NEAR": 0.0, "OFIELD_Q6_FAR": 0.0, "OFIELD_A": 0.0, "KPOINTS_OPT_MODE": 1, "LKPOINTS_OPT": false, "@module": "pymatgen.io.vasp.inputs", "@class": "Incar"}, "relaxed_structures": {"@module": "pymatgen.core.structure", "@class": "Structure", "charge": 0, "lattice": {"matrix": [[13.057895, 0.0, 0.0], [0.0, 10.242414, 0.0], [0.0, 0.0, 49.547026]], "a": 13.057895, "b": 10.242414, "c": 49.547026, "alpha": 90.0, "beta": 90.0, "gamma": 90.0, "volume": 6626.635607229017}, "sites": [{"species": [{"element": "Li", "occu": 1}], "abc": [0.16034377, 0.69509186, 0.02979284], "xyz": [2.09375211256415, 7.11941859815004, 1.47614661809384], "label": "Li", "properties": {}}, {"species": [{"element": "Li", "occu": 1}], "abc": [0.66910367, 0.74302159, 0.025092249999999997], "xyz": [8.737085466974651, 7.6103347357182605, 1.2432463631484998], "label": "Li", "properties": {}}, {"species": [{"element": "Li", "occu": 1}], "abc": [0.30877411, 0.18499046, 0.03368805], "xyz": [4.03193990709845, 1.89474887737044, 1.6691426892393], "label": "Li", "properties": {}}, {"species": [{"element": "Li", "occu": 1}], "abc": [0.84372399, 0.22593819, 0.024477819999999997], "xyz": [11.01725927040105, 2.31415248039066, 1.21280318396332], "label": "Li", "properties": {}}, {"species": [{"element": "Li", "occu": 1}], "abc": [0.48463814, 0.66238402, 0.056738090000000005], "xyz": [6.3283539451153, 6.78441135982428, 2.8112036204203403], "label": "Li", "properties": {}}, {"species": [{"element": "Li", "occu": 1}], "abc": [0.48930207, 0.229931, 0.002138000000000001], "xyz": [6.38925505334265, 2.355048493434, 0.10593154158800006], "label": "Li", "properties": {}}, {"species": [{"element": "Li", "occu": 1}], "abc": [0.02267283, 0.14148415, 0.05592885], "xyz": [0.29605943349285, 1.4491392387381001, 2.7711081851001], "label": "Li", "properties": {}}, {"species": [{"element": "Li", "occu": 1}], "abc": [0.16450896, 0.33289453, 0.13296143], "xyz": [2.1481407262392, 3.4096435945954204, 6.5878434292071795], "label": "Li", "properties": {}}, {"species": [{"element": "Li", "occu": 1}], "abc": [0.84846742, 0.58349963, 0.04213868], "xyz": [11.0791984812809, 5.976444779306821, 2.08784627356568], "label": "Li", "properties": {}}, {"species": [{"element": "Li", "occu": 1}], "abc": [0.32783006, 0.45328271, 0.07803070000000001], "xyz": [4.280770501323699, 4.64270917486194, 3.8661891216982007], "label": "Li", "properties": {}}, {"species": [{"element": "Li", "occu": 1}], "abc": [0.66740462, 0.44587021, 0.10393614000000001], "xyz": [8.714899450474901, 4.56678728108694, 5.14972663091964], "label": "Li", "properties": {}}, {"species": [{"element": "Li", "occu": 1}], "abc": [0.66613288, 0.08314778, 0.0476481], "xyz": [8.698293203087601, 0.8516339859409201, 2.3608216495506], "label": "Li", "properties": {}}, {"species": [{"element": "Li", "occu": 1}], "abc": [0.33615938, 0.83024287, 0.13331287], "xyz": [4.3895338873051, 8.50369119508818, 6.60525623602462], "label": "Li", "properties": {}}, {"species": [{"element": "Li", "occu": 1}], "abc": [0.83748487, 0.93744598, 0.10438175999999999], "xyz": [10.93578949654865, 9.60170982979572, 5.17180577664576], "label": "Li", "properties": {}}, {"species": [{"element": "Li", "occu": 1}], "abc": [0.16622923, 0.94333926, 0.08006029], "xyz": [2.17060383127085, 9.66207124337364, 3.9667492701975404], "label": "Li", "properties": {}}, {"species": [{"element": "Li", "occu": 1}], "abc": [0.99596961, 0.50905703, 0.08959792999999999], "xyz": [13.00526659057095, 5.21397285087042, 4.43931096725618], "label": "Li", "properties": {}}, {"species": [{"element": "Li", "occu": 1}], "abc": [0.49412541, 0.27578464, 0.15292601], "xyz": [6.45223772061195, 2.8247004577209602, 7.577028993546261], "label": "Li", "properties": {}}, {"species": [{"element": "Li", "occu": 1}], "abc": [0.50210428, 0.00946728, 0.09069373], "xyz": [6.556424967290599, 0.09696780121392, 4.49360459834698], "label": "Li", "properties": {}}, {"species": [{"element": "Li", "occu": 1}], "abc": [0.00484953, 0.77579123, 0.1537551], "xyz": [0.06332465353935, 7.945974955229221, 7.618107937332601], "label": "Li", "properties": {}}, {"species": [{"element": "Li", "occu": 1}], "abc": [0.16103203, 0.96168952, 0.23255546], "xyz": [2.10273933937685, 9.850022203301279, 11.52243142306196], "label": "Li", "properties": {}}, {"species": [{"element": "Li", "occu": 1}], "abc": [0.82852114, 0.21479684, 0.14661656], "xyz": [10.8187420514003, 2.20003816117176, 7.26441451035056], "label": "Li", "properties": {}}, {"species": [{"element": "Li", "occu": 1}], "abc": [0.32786789, 0.09714978, 0.17908933], "xyz": [4.28126448149155, 0.9950482667689201, 8.87334368983258], "label": "Li", "properties": {}}, {"species": [{"element": "Li", "occu": 1}], "abc": [0.66601509, 0.05515274, 0.20694991000000001], "xyz": [8.69675511363555, 0.56489719631436, 10.253752571467661], "label": "Li", "properties": {}}, {"species": [{"element": "Li", "occu": 1}], "abc": [0.67210235, 0.71478218, 0.14679798], "xyz": [8.77624191555325, 7.321095007382521, 7.27340333180748], "label": "Li", "properties": {}}, {"species": [{"element": "Li", "occu": 1}], "abc": [0.33564324, 0.45831181, 0.23450421999999999], "xyz": [4.3827941853798, 4.69421929910934, 11.61898668544972], "label": "Li", "properties": {}}, {"species": [{"element": "Li", "occu": 1}], "abc": [0.83361906, 0.55342721, 0.20752284], "xyz": [10.8853101554787, 5.668430603684939, 10.28213954907384], "label": "Li", "properties": {}}, {"species": [{"element": "Li", "occu": 1}], "abc": [0.17058971, 0.59147934, 0.17969994], "xyz": [2.22754252126045, 6.05817627272676, 8.90359759937844], "label": "Li", "properties": {}}, {"species": [{"element": "Li", "occu": 1}], "abc": [0.98916443, 0.14045786, 0.19046513], "xyz": [12.91640526467485, 1.4386275516740399, 9.43698074820338], "label": "Li", "properties": {}}, {"species": [{"element": "Li", "occu": 1}], "abc": [0.49296489, 0.89945084, 0.24952351], "xyz": [6.43708377230655, 9.21254787592776, 12.363147837581261], "label": "Li", "properties": {}}, {"species": [{"element": "Li", "occu": 1}], "abc": [0.51022699, 0.63240067, 0.19046172], "xyz": [6.662490461586051, 6.47730947601738, 9.43681179284472], "label": "Li", "properties": {}}, {"species": [{"element": "Li", "occu": 1}], "abc": [0.00543791, 0.40157016, 0.25372206], "xyz": [0.07100765779945, 4.11304782876624, 12.571173503593561], "label": "Li", "properties": {}}, {"species": [{"element": "Li", "occu": 1}], "abc": [0.16409673, 0.5848331, 0.33340481], "xyz": [2.14275787018335, 5.9901027311034, 16.51921678959506], "label": "Li", "properties": {}}, {"species": [{"element": "Li", "occu": 1}], "abc": [0.83120401, 0.83963925, 0.24653398999999998], "xyz": [10.85377468615895, 8.5999328091495, 12.21502601241374], "label": "Li", "properties": {}}, {"species": [{"element": "Li", "occu": 1}], "abc": [0.32667306, 0.73320137, 0.27813593], "xyz": [4.265662516808701, 7.50975197690718, 13.780808155244179], "label": "Li", "properties": {}}, {"species": [{"element": "Li", "occu": 1}], "abc": [0.6768558, 0.69220584, 0.30591815], "xyz": [8.838311966541001, 7.08985878649776, 15.1573345319219], "label": "Li", "properties": {}}, {"species": [{"element": "Li", "occu": 1}], "abc": [0.66430817, 0.33478254, 0.2505476], "xyz": [8.674466331502149, 3.4289813746515603, 12.4138884514376], "label": "Li", "properties": {}}, {"species": [{"element": "Li", "occu": 1}], "abc": [0.32917747, 0.07748904, 0.33709795], "xyz": [4.29836483962565, 0.79367482814256, 16.7022008931967], "label": "Li", "properties": {}}, {"species": [{"element": "Li", "occu": 1}], "abc": [0.83602851, 0.17636185, 0.30840001], "xyz": [10.91677250058645, 1.8063710815059, 15.280303313870261], "label": "Li", "properties": {}}, {"species": [{"element": "Li", "occu": 1}], "abc": [0.17076712, 0.21726698, 0.28010606], "xyz": [2.2298591224124, 2.22533835768972, 13.87842223757756], "label": "Li", "properties": {}}, {"species": [{"element": "Li", "occu": 1}], "abc": [0.99158631, 0.76588561, 0.29104301], "xyz": [12.94802991941745, 7.84451749426254, 14.42031558358826], "label": "Li", "properties": {}}, {"species": [{"element": "Li", "occu": 1}], "abc": [0.50634772, 0.51168909, 0.33081409], "xyz": [6.611835361249399, 5.24093149906326, 16.39085431839634], "label": "Li", "properties": {}}, {"species": [{"element": "Li", "occu": 1}], "abc": [0.49164787, 0.17461511, 0.29399445], "xyz": [6.41988626343365, 1.78848024727554, 14.566550658005701], "label": "Li", "properties": {}}, {"species": [{"element": "Li", "occu": 1}], "abc": [0.01341156, 0.03165749, 0.35661375], "xyz": [0.1751267422662, 0.32424911878086005, 17.669150743207503], "label": "Li", "properties": {}}, {"species": [{"element": "Li", "occu": 1}], "abc": [0.15111133, 0.21108107, 0.43716045], "xyz": [1.97319588045035, 2.16197970650298, 21.6600001823217], "label": "Li", "properties": {}}, {"species": [{"element": "Li", "occu": 1}], "abc": [0.83063684, 0.46237357, 0.34881231], "xyz": [10.8463686398518, 4.73582152659798, 17.28261259269006], "label": "Li", "properties": {}}, {"species": [{"element": "Li", "occu": 1}], "abc": [0.32970455, 0.35099437, 0.38003921], "xyz": [4.30524739492225, 3.59502964920918, 18.829812618889463], "label": "Li", "properties": {}}, {"species": [{"element": "Li", "occu": 1}], "abc": [0.67042593, 0.34172628, 0.40695933], "xyz": [8.754351399217349, 3.50010203443992, 20.16362450445258], "label": "Li", "properties": {}}, {"species": [{"element": "Li", "occu": 1}], "abc": [0.66342119, 0.96106298, 0.35194217], "xyz": [8.66288423979505, 9.84360492123372, 17.43768784748642], "label": "Li", "properties": {}}, {"species": [{"element": "Li", "occu": 1}], "abc": [0.33568881, 0.7093237, 0.43793454], "xyz": [4.38338923365495, 7.2651869954118, 21.69835403967804], "label": "Li", "properties": {}}, {"species": [{"element": "Li", "occu": 1}], "abc": [0.82898007, 0.83690899, 0.40612237], "xyz": [10.824734711152649, 8.57196835590186, 20.122155625571622], "label": "Li", "properties": {}}, {"species": [{"element": "Li", "occu": 1}], "abc": [0.17571765, 0.83574445, 0.38168801], "xyz": [2.2945026233467503, 8.5600406551023, 18.911505755358263], "label": "Li", "properties": {}}, {"species": [{"element": "Li", "occu": 1}], "abc": [0.9881382, 0.36862535, 0.39242817], "xyz": [12.903004861089, 3.7756134455949004, 19.443648742122424], "label": "Li", "properties": {}}, {"species": [{"element": "Li", "occu": 1}], "abc": [0.51743376, 0.13258651, 0.42864379], "xyz": [6.7565957075352, 1.3580059262351398, 21.238025007868544], "label": "Li", "properties": {}}, {"species": [{"element": "Li", "occu": 1}], "abc": [0.4964597, 0.78363942, 0.39394707], "xyz": [6.4827186343315, 8.02635936635988, 19.51890571991382], "label": "Li", "properties": {}}, {"species": [{"element": "Li", "occu": 1}], "abc": [0.97769158, 0.65234649, 0.43027086], "xyz": [12.7665939940241, 6.68160282202686, 21.31864148746236], "label": "Li", "properties": {}}, {"species": [{"element": "Li", "occu": 1}], "abc": [0.84267311, 0.10055736, 0.45369046], "xyz": [11.00353698970345, 1.02995011186704, 22.479013017571962], "label": "Li", "properties": {}}, {"species": [{"element": "Li", "occu": 1}], "abc": [0.33017232, 0.05561285, 0.45915403], "xyz": [4.3113554864664, 0.5696098334199, 22.74971666241478], "label": "Li", "properties": {}}, {"species": [{"element": "Li", "occu": 1}], "abc": [0.6940093, 0.6069034, 0.45218136], "xyz": [9.0623005684235, 6.2161558808076, 22.40424160063536], "label": "Li", "properties": {}}, {"species": [{"element": "Li", "occu": 1}], "abc": [0.15830359, 0.56631466, 0.4617747], "xyz": [2.06711165634305, 5.80042920198924, 22.8795630670422], "label": "Li", "properties": {}}, {"species": [{"element": "Li", "occu": 1}], "abc": [0.51090548, 0.56379755, 0.48282327999999997], "xyz": [6.671350112764601, 5.7746479192857, 23.922457607565278], "label": "Li", "properties": {}}, {"species": [{"element": "P", "occu": 1}], "abc": [0.08472823, 0.42012277, 0.03158984000000001], "xyz": [1.10637233087585, 4.30307134116678, 1.5651826238158404], "label": "P", "properties": {}}, {"species": [{"element": "P", "occu": 1}], "abc": [0.40498288, 0.92126765, 0.03317801000000001], "xyz": [5.2882239238376, 9.4360046761071, 1.6438717240982605], "label": "P", "properties": {}}, {"species": [{"element": "P", "occu": 1}], "abc": [0.08992483, 0.05134354, 0.13367114], "xyz": [1.17422898803285, 0.52588179290556, 6.6230074490296404], "label": "P", "properties": {}}, {"species": [{"element": "P", "occu": 1}], "abc": [0.91025414, 0.85867286, 0.047330540000000004], "xyz": [11.8860029834353, 8.79488292268404, 2.3450874959740404], "label": "P", "properties": {}}, {"species": [{"element": "P", "occu": 1}], "abc": [0.41112857, 0.54904649, 0.13289531], "xyz": [5.368473698560151, 5.62356145582686, 6.5845673798480595], "label": "P", "properties": {}}, {"species": [{"element": "P", "occu": 1}], "abc": [0.58972608, 0.35978829, 0.04773791000000001], "xyz": [7.700581231401601, 3.68510061853206, 2.3652714679556603], "label": "P", "properties": {}}, {"species": [{"element": "P", "occu": 1}], "abc": [0.08776569, 0.68032052, 0.23338176], "xyz": [1.14603516462255, 6.96812441853528, 11.56337213064576], "label": "P", "properties": {}}, {"species": [{"element": "P", "occu": 1}], "abc": [0.90980405, 0.48612703, 0.15144668], "xyz": [11.880125755474749, 4.97911429785042, 7.50373259157368], "label": "P", "properties": {}}, {"species": [{"element": "P", "occu": 1}], "abc": [0.40985846, 0.17743732, 0.23331289], "xyz": [5.3518887355417, 1.8173864904904802, 11.559959826965141], "label": "P", "properties": {}}, {"species": [{"element": "P", "occu": 1}], "abc": [0.58980583, 0.98573548, 0.15120936000000001], "xyz": [7.70162259852785, 10.096310880648721, 7.491974091363361], "label": "P", "properties": {}}, {"species": [{"element": "P", "occu": 1}], "abc": [0.08931583, 0.30641958, 0.33389866], "xyz": [1.16627672997785, 3.1384761960661205, 16.543685588385163], "label": "P", "properties": {}}, {"species": [{"element": "P", "occu": 1}], "abc": [0.90973231, 0.1118346, 0.2518811], "xyz": [11.87918898208745, 1.1454562727244, 12.479959410608602], "label": "P", "properties": {}}, {"species": [{"element": "P", "occu": 1}], "abc": [0.4138546, 0.80450882, 0.33289191], "xyz": [5.404069912067, 8.24011240109148, 16.493804119959663], "label": "P", "properties": {}}, {"species": [{"element": "P", "occu": 1}], "abc": [0.58886489, 0.61454285, 0.25223149], "xyz": [7.68933590280655, 6.2944022904398995, 12.49732019304874], "label": "P", "properties": {}}, {"species": [{"element": "P", "occu": 1}], "abc": [0.09029355, 0.93290374, 0.43604397], "xyz": [1.17904369507725, 9.55518632722836, 21.60468191873322], "label": "P", "properties": {}}, {"species": [{"element": "P", "occu": 1}], "abc": [0.91339289, 0.74138082, 0.35223406], "xyz": [11.926988451366551, 7.593529290099481, 17.45215012890556], "label": "P", "properties": {}}, {"species": [{"element": "P", "occu": 1}], "abc": [0.410618, 0.4332364, 0.43684866], "xyz": [5.36180672911, 4.4373865686696, 21.64455191508516], "label": "P", "properties": {}}, {"species": [{"element": "P", "occu": 1}], "abc": [0.58906479, 0.24173188, 0.35231565], "xyz": [7.69194617601705, 2.4759179919583203, 17.4561926707569], "label": "P", "properties": {}}, {"species": [{"element": "P", "occu": 1}], "abc": [0.9151944, 0.37616336, 0.45428789999999997], "xyz": [11.950512379788, 3.85282086475104, 22.5086143927854], "label": "P", "properties": {}}, {"species": [{"element": "P", "occu": 1}], "abc": [0.59501063, 0.86987088, 0.45191448], "xyz": [7.76958633042385, 8.90957767950432, 22.39101849033648], "label": "P", "properties": {}}, {"species": [{"element": "S", "occu": 1}], "abc": [0.13646588, 0.23677892, 0.022886230000000007], "xyz": [1.7819571321226002, 2.42518772511288, 1.1339446328519804], "label": "S", "properties": {}}, {"species": [{"element": "S", "occu": 1}], "abc": [0.6607596, 0.27044242, 0.015026650000000003], "xyz": [8.628129477042, 2.7699832288018804, 0.7445258182429002], "label": "S", "properties": {}}, {"species": [{"element": "S", "occu": 1}], "abc": [0.35240013, 0.73926496, 0.02600190000000001], "xyz": [4.60160389552635, 7.57185777601344, 1.2883168153494005], "label": "S", "properties": {}}, {"species": [{"element": "S", "occu": 1}], "abc": [0.84366849, 0.78121705, 0.013696630000000001], "xyz": [11.01653455722855, 8.0015484499587, 0.67862728272238], "label": "S", "properties": {}}, {"species": [{"element": "S", "occu": 1}], "abc": [0.06124214, 0.90007836, 0.04002733], "xyz": [0.7996934336953, 9.21897519556104, 1.98323516022058], "label": "S", "properties": {}}, {"species": [{"element": "S", "occu": 1}], "abc": [0.93773948, 0.38330767, 0.048495250000000004], "xyz": [12.244903667194599, 3.92599584551538, 2.4027954126265003], "label": "S", "properties": {}}, {"species": [{"element": "S", "occu": 1}], "abc": [0.43887303, 0.3888617, 0.03692531], "xyz": [5.73075794407185, 3.9828825201437996, 1.8295392946280602], "label": "S", "properties": {}}, {"species": [{"element": "S", "occu": 1}], "abc": [0.55739846, 0.89408017, 0.04662212], "xyz": [7.278450563841701, 9.15753925033038, 2.3099873918151204], "label": "S", "properties": {}}, {"species": [{"element": "S", "occu": 1}], "abc": [0.08037093, 0.54011391, 0.00010000000000000286], "xyz": [1.04947516499235, 5.53207027337874, 0.0049547026000001425], "label": "S", "properties": {}}, {"species": [{"element": "S", "occu": 1}], "abc": [0.38977539, 0.03793785, 0.00014464000000000143], "xyz": [5.08964611620405, 0.38857516596990005, 0.007166481840640071], "label": "S", "properties": {}}, {"species": [{"element": "S", "occu": 1}], "abc": [0.15093223, 0.86926158, 0.12723231000000002], "xyz": [1.97085721145585, 8.90333697665412, 6.303982571610061], "label": "S", "properties": {}}, {"species": [{"element": "S", "occu": 1}], "abc": [0.84625044, 0.0403559, 0.05829907000000001], "xyz": [11.0502493892238, 0.41334183514260003, 2.8885455370658204], "label": "S", "properties": {}}, {"species": [{"element": "S", "occu": 1}], "abc": [0.33855102, 0.01432285, 0.0661732], "xyz": [4.4207636713028995, 0.1467005593599, 3.2786852609032002], "label": "S", "properties": {}}, {"species": [{"element": "S", "occu": 1}], "abc": [0.65270429, 0.90562166, 0.11707801000000001], "xyz": [8.52294408486955, 9.27575196908724, 5.80086720549826], "label": "S", "properties": {}}, {"species": [{"element": "S", "occu": 1}], "abc": [0.65391967, 0.54099213, 0.05655227], "xyz": [8.53881438929465, 5.5410653662018206, 2.80199679204902], "label": "S", "properties": {}}, {"species": [{"element": "S", "occu": 1}], "abc": [0.35061798, 0.36807644, 0.12527242], "xyz": [4.5783327679521, 3.7699912821261603, 6.20687585082292], "label": "S", "properties": {}}, {"species": [{"element": "S", "occu": 1}], "abc": [0.84726669, 0.4058879, 0.11735704], "xyz": [11.06351947501755, 4.1572719093906, 5.81469231216304], "label": "S", "properties": {}}, {"species": [{"element": "S", "occu": 1}], "abc": [0.15797516, 0.51243412, 0.064026], "xyz": [2.0628230518882003, 5.24856240476568, 3.172297886676], "label": "S", "properties": {}}, {"species": [{"element": "S", "occu": 1}], "abc": [0.06000554, 0.53141543, 0.14092151], "xyz": [0.7835460407383, 5.44297684004802, 6.98224171992926], "label": "S", "properties": {}}, {"species": [{"element": "S", "occu": 1}], "abc": [0.93762647, 0.01607257, 0.14412516], "xyz": [12.24342799448065, 0.16462191598398002, 7.140973049774161], "label": "S", "properties": {}}, {"species": [{"element": "S", "occu": 1}], "abc": [0.43936249, 0.03069932, 0.14070297], "xyz": [5.73714926135855, 0.31443514495848, 6.9714137128672204], "label": "S", "properties": {}}, {"species": [{"element": "S", "occu": 1}], "abc": [0.56333931, 0.5155263, 0.14363922], "xyz": [7.35602555935245, 5.2802337924882, 7.116896167959721], "label": "S", "properties": {}}, {"species": [{"element": "S", "occu": 1}], "abc": [0.112139, 0.16514, 0.10040352], "xyz": [1.464299287405, 1.6914322479600001, 4.97469581593152], "label": "S", "properties": {}}, {"species": [{"element": "S", "occu": 1}], "abc": [0.88516603, 0.73788656, 0.07995604], "xyz": [11.558405077306851, 7.5577396325558395, 3.9615839927370406], "label": "S", "properties": {}}, {"species": [{"element": "S", "occu": 1}], "abc": [0.38887214, 0.66488387, 0.09976923000000001], "xyz": [5.0778515725453, 6.81001585846218, 4.943268632809981], "label": "S", "properties": {}}, {"species": [{"element": "S", "occu": 1}], "abc": [0.60958971, 0.24571873, 0.08118193000000001], "xyz": [7.9599584262604495, 2.51675296021422, 4.022323196440181], "label": "S", "properties": {}}, {"species": [{"element": "S", "occu": 1}], "abc": [0.15140135, 0.50075463, 0.22596491000000002], "xyz": [1.9769829311582499, 5.1289362328768195, 11.195889270857661], "label": "S", "properties": {}}, {"species": [{"element": "S", "occu": 1}], "abc": [0.8440535, 0.6601915, 0.16312843], "xyz": [11.0215619773825, 6.761954662281001, 8.08252856254918], "label": "S", "properties": {}}, {"species": [{"element": "S", "occu": 1}], "abc": [0.3472067, 0.64453674, 0.16546278], "xyz": [4.5337886318965, 6.601612129290361, 8.19818866269228], "label": "S", "properties": {}}, {"species": [{"element": "S", "occu": 1}], "abc": [0.64986834, 0.52319394, 0.21912472], "xyz": [8.4859125475443, 5.35876893577116, 10.85697819908272], "label": "S", "properties": {}}, {"species": [{"element": "S", "occu": 1}], "abc": [0.65496187, 0.16034185, 0.16264361], "xyz": [8.55242332746365, 1.6422876092259, 8.05850717340386], "label": "S", "properties": {}}, {"species": [{"element": "S", "occu": 1}], "abc": [0.34581728, 0.99954615, 0.22432154999999998], "xyz": [4.5156457314256, 10.2377654804061, 11.114465670210299], "label": "S", "properties": {}}, {"species": [{"element": "S", "occu": 1}], "abc": [0.84920887, 0.03074289, 0.21751356], "xyz": [11.08888025752865, 0.31488140693646, 10.77715001267256], "label": "S", "properties": {}}, {"species": [{"element": "S", "occu": 1}], "abc": [0.15217597, 0.15016151, 0.16605337], "xyz": [1.9870978377831499, 1.53801635228514, 8.22745064077762], "label": "S", "properties": {}}, {"species": [{"element": "S", "occu": 1}], "abc": [0.05943895, 0.15996981, 0.24138684], "xyz": [0.77614756801025, 1.63847702152134, 11.96000003753784], "label": "S", "properties": {}}, {"species": [{"element": "S", "occu": 1}], "abc": [0.93783627, 0.64075527, 0.24530736000000003], "xyz": [12.246167540851651, 6.56288074802178, 12.154250143911362], "label": "S", "properties": {}}, {"species": [{"element": "S", "occu": 1}], "abc": [0.43906121, 0.65975625, 0.24103098], "xyz": [5.73321517875295, 6.7574966515875, 11.942368232865482], "label": "S", "properties": {}}, {"species": [{"element": "S", "occu": 1}], "abc": [0.5597551, 0.13426735, 0.24520217], "xyz": [7.3092233215145, 1.3752217853829, 12.14903829224642], "label": "S", "properties": {}}, {"species": [{"element": "S", "occu": 1}], "abc": [0.10358385, 0.79606543, 0.20000168000000002], "xyz": [1.35258703699575, 8.153631705148019, 9.909488439003681], "label": "S", "properties": {}}, {"species": [{"element": "S", "occu": 1}], "abc": [0.8935283, 0.35895696, 0.18321017], "xyz": [11.6675987209285, 3.67658579250144, 9.07751905645442], "label": "S", "properties": {}}, {"species": [{"element": "S", "occu": 1}], "abc": [0.39721622, 0.29874191, 0.20074417], "xyz": [5.1868076930569, 3.05983832137074, 9.94627661033842], "label": "S", "properties": {}}, {"species": [{"element": "S", "occu": 1}], "abc": [0.6054911, 0.8587462, 0.18301379], "xyz": [7.9064392072344996, 8.795634101326801, 9.067789011488541], "label": "S", "properties": {}}, {"species": [{"element": "S", "occu": 1}], "abc": [0.15076206, 0.12566982, 0.32597601], "xyz": [1.9686351494637, 1.28716232374548, 16.15114184284626], "label": "S", "properties": {}}, {"species": [{"element": "S", "occu": 1}], "abc": [0.84313466, 0.28493245, 0.26368649], "xyz": [11.0095638611407, 2.9183961149343003, 13.064881375878741], "label": "S", "properties": {}}, {"species": [{"element": "S", "occu": 1}], "abc": [0.34707823, 0.26977494, 0.26629724], "xyz": [4.53211108412585, 2.76314662230516, 13.19423627400824], "label": "S", "properties": {}}, {"species": [{"element": "S", "occu": 1}], "abc": [0.65228832, 0.14586688, 0.31988661], "xyz": [8.5175123922864, 1.4940289738483201, 15.849430182721862], "label": "S", "properties": {}}, {"species": [{"element": "S", "occu": 1}], "abc": [0.65552903, 0.79119021, 0.26163265], "xyz": [8.55982924319185, 8.10369768356694, 12.963119711998901], "label": "S", "properties": {}}, {"species": [{"element": "S", "occu": 1}], "abc": [0.34637867, 0.63051301, 0.32225783], "xyz": [4.52297630309965, 6.45797528080614, 15.966917081713582], "label": "S", "properties": {}}, {"species": [{"element": "S", "occu": 1}], "abc": [0.855248, 0.65126632, 0.31857335], "xyz": [11.16773858296, 6.6705392736964795, 15.7843620553571], "label": "S", "properties": {}}, {"species": [{"element": "S", "occu": 1}], "abc": [0.15128244, 0.78055747, 0.2654243], "xyz": [1.9754302168637998, 7.99479275853258, 13.1509846931318], "label": "S", "properties": {}}, {"species": [{"element": "S", "occu": 1}], "abc": [0.06456871, 0.78463737, 0.3426819], "xyz": [0.84313143546545, 8.03658078341118, 16.9788690090294], "label": "S", "properties": {}}, {"species": [{"element": "S", "occu": 1}], "abc": [0.9394617, 0.26641244, 0.34614332], "xyz": [12.2673922351215, 2.72870650523016, 17.15037207576632], "label": "S", "properties": {}}, {"species": [{"element": "S", "occu": 1}], "abc": [0.43687353, 0.27603061, 0.34137106], "xyz": [5.70464868301935, 2.82721978429254, 16.91392078546756], "label": "S", "properties": {}}, {"species": [{"element": "S", "occu": 1}], "abc": [0.56334454, 0.75943932, 0.34378016], "xyz": [7.3560938521433, 7.77849192331848, 17.03328452580416], "label": "S", "properties": {}}, {"species": [{"element": "S", "occu": 1}], "abc": [0.1040401, 0.42234352, 0.3004752], "xyz": [1.3585447015895, 4.32581718205728, 14.8876525467552], "label": "S", "properties": {}}, {"species": [{"element": "S", "occu": 1}], "abc": [0.89379654, 0.98359872, 0.28337239000000003], "xyz": [11.6711013706833, 10.07442530011008, 14.040259175012142], "label": "S", "properties": {}}, {"species": [{"element": "S", "occu": 1}], "abc": [0.39782639, 0.93179087, 0.30090981], "xyz": [5.19477522884905, 9.54378785196018, 14.909186179725062], "label": "S", "properties": {}}, {"species": [{"element": "S", "occu": 1}], "abc": [0.60419107, 0.49243121, 0.28482375], "xyz": [7.889463551997651, 5.04368431934094, 14.112169746667501], "label": "S", "properties": {}}, {"species": [{"element": "S", "occu": 1}], "abc": [0.1552043, 0.74869708, 0.42778944], "xyz": [2.0266414529484997, 7.668465453951121, 21.19569450620544], "label": "S", "properties": {}}, {"species": [{"element": "S", "occu": 1}], "abc": [0.84730201, 0.9193095, 0.36071452], "xyz": [11.063980679868951, 9.415948493133, 17.87233170101752], "label": "S", "properties": {}}, {"species": [{"element": "S", "occu": 1}], "abc": [0.35174171, 0.88891022, 0.36676192], "xyz": [4.59300631630045, 9.10458648207108, 18.171962386049923], "label": "S", "properties": {}}, {"species": [{"element": "S", "occu": 1}], "abc": [0.6577385, 0.77181659, 0.41902265], "xyz": [8.5886802704575, 7.90526504684826, 20.7613261341389], "label": "S", "properties": {}}, {"species": [{"element": "S", "occu": 1}], "abc": [0.64854289, 0.42370896, 0.35976982], "xyz": [8.46860496061655, 4.3398025838294405, 17.82552462555532], "label": "S", "properties": {}}, {"species": [{"element": "S", "occu": 1}], "abc": [0.34722384, 0.2525258, 0.42731292], "xyz": [4.5340124442168, 2.5864737892812, 21.17208435737592], "label": "S", "properties": {}}, {"species": [{"element": "S", "occu": 1}], "abc": [0.84206978, 0.29149944, 0.42107183], "xyz": [10.9956587699131, 2.98565794524816, 20.86285690887758], "label": "S", "properties": {}}, {"species": [{"element": "S", "occu": 1}], "abc": [0.15371626, 0.40331146, 0.36600849], "xyz": [2.0072107828727, 4.130882944264441, 18.134632170250743], "label": "S", "properties": {}}, {"species": [{"element": "S", "occu": 1}], "abc": [0.06242728, 0.41409578, 0.43719444], "xyz": [0.8151688673756, 4.24134041441292, 21.661684285735443], "label": "S", "properties": {}}, {"species": [{"element": "S", "occu": 1}], "abc": [0.93949524, 0.8938007, 0.44389281], "xyz": [12.2678301969198, 9.1546768028898, 21.993568598283062], "label": "S", "properties": {}}, {"species": [{"element": "S", "occu": 1}], "abc": [0.44254303, 0.90005506, 0.43881896], "xyz": [5.778680418721851, 9.21873654731484, 21.74217442041296], "label": "S", "properties": {}}, {"species": [{"element": "S", "occu": 1}], "abc": [0.56093098, 0.402532, 0.44793064000000005], "xyz": [7.3245778390871, 4.122899392248, 22.193631066276645], "label": "S", "properties": {}}, {"species": [{"element": "S", "occu": 1}], "abc": [0.11755772, 0.04405517, 0.40198280000000003], "xyz": [1.5350563641994002, 0.45123128998038, 19.917052243152803], "label": "S", "properties": {}}, {"species": [{"element": "S", "occu": 1}], "abc": [0.89111532, 0.61860313, 0.38455267], "xyz": [11.6360902814514, 6.33598935915582, 19.05344113885942], "label": "S", "properties": {}}, {"species": [{"element": "S", "occu": 1}], "abc": [0.39044648, 0.54901915, 0.40371042], "xyz": [5.0984091389596, 5.6232814282281005, 20.002650676210923], "label": "S", "properties": {}}, {"species": [{"element": "S", "occu": 1}], "abc": [0.61209536, 0.1278525, 0.38568816], "xyz": [7.9926769408672, 1.3095182359350002, 19.10970129141216], "label": "S", "properties": {}}, {"species": [{"element": "S", "occu": 1}], "abc": [0.86593967, 0.55947469, 0.46418197000000005], "xyz": [11.30734928719465, 5.730371397501661, 22.998836136321223], "label": "S", "properties": {}}, {"species": [{"element": "S", "occu": 1}], "abc": [0.34027161, 0.52015044, 0.46996908000000004], "xyz": [4.44323095486095, 5.32759614876216, 23.285570225956082], "label": "S", "properties": {}}, {"species": [{"element": "S", "occu": 1}], "abc": [0.65129921, 0.05071827, 0.45833292999999997], "xyz": [8.50459669776295, 0.51947751870378, 22.70903359936618], "label": "S", "properties": {}}, {"species": [{"element": "S", "occu": 1}], "abc": [0.1541066, 0.02315798, 0.46851204], "xyz": [2.012307801607, 0.23719361856372, 23.213378227193044], "label": "S", "properties": {}}, {"species": [{"element": "S", "occu": 1}], "abc": [0.91818678, 0.25184175, 0.48495588], "xyz": [11.9895865636281, 2.5794674659844996, 24.02812159521288], "label": "S", "properties": {}}, {"species": [{"element": "S", "occu": 1}], "abc": [0.61009695, 0.7553849, 0.48528214000000003], "xyz": [7.96658191292025, 7.7369648751486, 24.044286807915643], "label": "S", "properties": {}}]}, "formula": "(Li3PS4)20.0", "bandgap": 1.9598, "slab_thickness": 24.039332105315644}