{"miller": "110_0.30", "final_energy": -699.37225431, "gamma": 0.01583189239655427, "work_function": "Not calculated", "ionization_potentail": "Not calculated", "electron_affinity": "Not calculated", "is_stochiometric": true, "incar_parameters": {"SYSTEM": "unknown system", "LCOMPAT": false, "PREC": "normal", "ENMAX": 520.0, "ENAUG": 628.945, "EDIFF": 1e-05, "IALGO": 38, "IWAVPR": 11, "NBANDS": 462, "NBANDSLOW": -1, "NBANDSHIGH": -1, "NELECT": 760.0, "TURBO": 0, "IRESTART": 0, "NREBOOT": 0, "NMIN": 0, "EREF": 0.0, "ISMEAR": 0, "SIGMA": 0.05, "KSPACING": 0.5, "KGAMMA": true, "KBLOWUP": true, "LREAL": true, "ROPT": [-0.0005, -0.0005, -0.0005], "LMAXPAW": -100, "LMAXMIX": 2, "NLSPLINE": false, "ISTART": 0, "ICHARG": 2, "INIWAV": 1, "ISPIN": 1, "LNONCOLLINEAR": false, "MAGMOM": [0.6, 0.6, 0.6, 0.6, 0.6, 0.6, 0.6, 0.6, 0.6, 0.6, 0.6, 0.6, 0.6, 0.6, 0.6, 0.6, 0.6, 0.6, 0.6, 0.6, 0.6, 0.6, 0.6, 0.6, 0.6, 0.6, 0.6, 0.6, 0.6, 0.6, 0.6, 0.6, 0.6, 0.6, 0.6, 0.6, 0.6, 0.6, 0.6, 0.6, 0.6, 0.6, 0.6, 0.6, 0.6, 0.6, 0.6, 0.6, 0.6, 0.6, 0.6, 0.6, 0.6, 0.6, 0.6, 0.6, 0.6, 0.6, 0.6, 0.6, 0.6, 0.6, 0.6, 0.6, 0.6, 0.6, 0.6, 0.6, 0.6, 0.6, 0.6, 0.6, 0.6, 0.6, 0.6, 0.6, 0.6, 0.6, 0.6, 0.6, 0.6, 0.6, 0.6, 0.6, 0.6, 0.6, 0.6, 0.6, 0.6, 0.6, 0.6, 0.6, 0.6, 0.6, 0.6, 0.6, 0.6, 0.6, 0.6, 0.6, 0.6, 0.6, 0.6, 0.6, 0.6, 0.6, 0.6, 0.6, 0.6, 0.6, 0.6, 0.6, 0.6, 0.6, 0.6, 0.6, 0.6, 0.6, 0.6, 0.6, 0.6, 0.6, 0.6, 0.6, 0.6, 0.6, 0.6, 0.6, 0.6, 0.6, 0.6, 0.6, 0.6, 0.6, 0.6, 0.6, 0.6, 0.6, 0.6, 0.6, 0.6, 0.6, 0.6, 0.6, 0.6, 0.6, 0.6, 0.6, 0.6, 0.6, 0.6, 0.6, 0.6, 0.6, 0.6, 0.6, 0.6, 0.6, 0.6, 0.6], "NUPDOWN": -1.0, "LSORBIT": false, "SAXIS": [0.0, 0.0, 1.0], "LSPIRAL": false, "QSPIRAL": [0.0, 0.0, 0.0], "LZEROZ": false, "LASPH": false, "LMETAGGA": false, "NELM": 100, "NELMDL": -5, "NELMIN": 6, "ENINI": 520.0, "LDIAG": true, "LSUBROT": false, "WEIMIN": 0.001, "EBREAK": 1e-08, "DEPER": 0.3, "NRMM": 4, "TIME": 0.4, "AMIX": 0.4, "BMIX": 1.0, "AMIN": 0.1, "AMIX_MAG": 1.6, "BMIX_MAG": 1.0, "IMIX": 4, "MIXFIRST": false, "MAXMIX": -45, "WC": 100.0, "INIMIX": 1, "MIXPRE": 1, "MREMOVE": 5, "LDIPOL": false, "LMONO": false, "IDIPOL": 0, "EPSILON": 1.0, "DIPOL": [-100.0, -100.0, -100.0], "EFIELD": 0.0, "NGX": 80, "NGY": 60, "NGZ": 280, "NGXF": 160, "NGYF": 120, "NGZF": 560, "ADDGRID": false, "NSW": 150, "IBRION": 2, "MDALGO": 0, "ISIF": 2, "PSTRESS": 0.0, "EDIFFG": -0.01, "NFREE": 1, "POTIM": 0.5, "SMASS": -3.0, "SCALEE": 1.0, "TEBEG": 0.0001, "TEEND": 0.0001, "NBLOCK": 1, "KBLOCK": 150, "NPACO": 256, "APACO": 10.0, "ISYM": 0, "SYMPREC": 1e-05, "LORBIT": 11, "RWIGS": [-1.0, -1.0, -1.0], "NEDOS": 301, "EMIN": 10.0, "EMAX": -10.0, "EFERMI": 0.0, "NWRITE": 2, "LWAVE": false, "LDOWNSAMPLE": false, "LCHARG": false, "LPARD": false, "LVTOT": false, "LVHAR": false, "LELF": false, "LOPTICS": false, "STM": [0.0, 0.0, 0.0, 0.0, 0.0, 0.0, 0.0], "NPAR": 2, "NSIM": 4, "NBLK": -1, "LPLANE": true, "LSCALAPACK": true, "LSCAAWARE": false, "LSCALU": false, "LASYNC": false, "LORBITALREAL": false, "IDIOT": 3, "PHON_NSTRUCT": -1, "LMUSIC": false, "POMASS": [7.01, 30.974, 32.066], "DARWINR": [0.0, 0.0, 0.0], "DARWINV": [1.0, 1.0, 1.0], "LCORR": true, "GGA_COMPAT": true, "LBERRY": false, "ICORELEVEL": 0, "LDAU": false, "I_CONSTRAINED_M": 0, "GGA": "--", "VOSKOWN": 0, "LHFCALC": false, "PRECFOCK": "", "LSYMGRAD": false, "LHFONE": false, "LRHFCALC": false, "LTHOMAS": false, "LMODELHF": false, "LFOCKACE": false, "ENCUT4O": -1.0, "EXXOEP": 0, "FOURORBIT": 0, "AEXX": 0.0, "HFALPHA": 0.0, "MCALPHA": 0.0, "ALDAX": 1.0, "AGGAX": 1.0, "ALDAC": 1.0, "AGGAC": 1.0, "NKREDX": 1, "NKREDY": 1, "NKREDZ": 1, "SHIFTRED": false, "ODDONLY": false, "EVENONLY": false, "LMAXFOCK": 0, "NMAXFOCKAE": 0, "LFOCKAEDFT": false, "HFSCREEN": 0.0, "HFSCREENC": 0.0, "NBANDSGWLOW": 0, "LUSE_VDW": false, "Zab_VDW": -0.8491, "PARAM1": 0.1234, "PARAM2": 1.0, "PARAM3": 0.0, "MODEL_GW": 0, "MODEL_EPS0": 24.84988353, "MODEL_ALPHA": 1.0, "LEPSILON": false, "LRPA": false, "LNABLA": false, "LVEL": false, "CSHIFT": 0.1, "OMEGAMAX": -1.0, "DEG_THRESHOLD": 0.002, "RTIME": -0.1, "WPLASMAI": 0.0, "DFIELD": [0.0, 0.0, 0.0], "WPLASMA": [0.0, 0.0, 0.0, 0.0, 0.0, 0.0, 0.0, 0.0, 0.0], "NUCIND": false, "MAGPOS": [0.0, 0.0, 0.0], "LNICSALL": true, "ORBITALMAG": false, "LMAGBLOCH": false, "LCHIMAG": false, "LGAUGE": true, "MAGATOM": 0, "MAGDIPOL": [0.0, 0.0, 0.0], "AVECCONST": [0.0, 0.0, 0.0], "LFINITE_TEMPERATURE": false, "LADDER": false, "LRPAFORCE": false, "LFXC": false, "LHARTREE": true, "IBSE": 0, "KPOINT": [-1, 0, 0, 0], "LTCTC": false, "LTCTE": false, "LTETE": false, "LTRIPLET": false, "LFXCEPS": false, "LFXHEG": false, "NATURALO": 2, "LHOLEGF": false, "L2ORDER": false, "LDMP1": false, "LMP2LT": false, "LSMP2LT": false, "LGWLF": false, "ENCUTGW": -2.0, "ENCUTGWSOFT": -2.0, "ENCUTLF": -1.0, "LESF_SPLINES": false, "LMAXMP2": -1, "SCISSOR": 0.0, "NOMEGA": 0, "NOMEGAR": 0, "NBANDSGW": -1, "NBANDSO": -1, "NBANDSV": -1, "NELMGW": 1, "NELMHF": 1, "DIM": 3, "IESPILON": 4, "ANTIRES": 0, "OMEGAMIN": -30.0, "OMEGATL": -200.0, "OMEGAGRID": 0, "LSELFENERGY": false, "LSPECTRAL": false, "LSPECTRALGW": false, "LSINGLES": false, "LFERMIGW": false, "ODDONLYGW": false, "EVENONLYGW": false, "NKREDLFX": 1, "NKREDLFY": 1, "NKREDLFZ": 1, "MAXMEM": 2800, "TELESCOPE": 0, "NTAUPAR": -1, "NOMEGAPAR": -1, "DAMP_NEWTON": 0.80000001, "LAMBDA": 1.0, "OFIELD_KAPPA": 0.0, "OFIELD_K": [0.0, 0.0, 0.0], "OFIELD_Q6_NEAR": 0.0, "OFIELD_Q6_FAR": 0.0, "OFIELD_A": 0.0, "KPOINTS_OPT_MODE": 1, "LKPOINTS_OPT": false, "@module": "pymatgen.io.vasp.inputs", "@class": "Incar"}, "relaxed_structures": {"@module": "pymatgen.core.structure", "@class": "Structure", "charge": 0, "lattice": {"matrix": [[13.057895, 0.0, 0.0], [0.0, 10.242414, 0.0], [0.0, 0.0, 49.547026]], "a": 13.057895, "b": 10.242414, "c": 49.547026, "alpha": 90.0, "beta": 90.0, "gamma": 90.0, "volume": 6626.635607229017}, "sites": [{"species": [{"element": "Li", "occu": 1}], "abc": [0.15946056, 0.7865925, 0.03192769], "xyz": [2.0822192491212, 8.056606034295001, 1.5819220865499402], "label": "Li", "properties": {}}, {"species": [{"element": "Li", "occu": 1}], "abc": [0.84929365, 0.67563891, 0.04796092], "xyz": [11.08998730586675, 6.92017343072874, 2.3763209502239198], "label": "Li", "properties": {}}, {"species": [{"element": "Li", "occu": 1}], "abc": [0.67126981, 0.83308165, 0.02643102], "xyz": [8.765370695649949, 8.5327671551031, 1.30957843514652], "label": "Li", "properties": {}}, {"species": [{"element": "Li", "occu": 1}], "abc": [0.66614046, 0.17621357, 0.04707711999999999], "xyz": [8.6983921819317, 1.8048523363579803, 2.3325312886451197], "label": "Li", "properties": {}}, {"species": [{"element": "Li", "occu": 1}], "abc": [0.30734526, 0.28201289, 0.03278334], "xyz": [4.0132821338277, 2.88849277271646, 1.62431699934684], "label": "Li", "properties": {}}, {"species": [{"element": "Li", "occu": 1}], "abc": [0.84523063, 0.31852611, 0.023226249999999997], "xyz": [11.03693281732385, 3.2624762884295397, 1.1507916126325], "label": "Li", "properties": {}}, {"species": [{"element": "Li", "occu": 1}], "abc": [0.48373875, 0.75510641, 0.0571815], "xyz": [6.31660980493125, 7.73411246527374, 2.833173267219], "label": "Li", "properties": {}}, {"species": [{"element": "Li", "occu": 1}], "abc": [0.49119233, 0.32419061, 0.0022795999999999997], "xyz": [6.41393786994535, 3.32049444253254, 0.11294740046959999], "label": "Li", "properties": {}}, {"species": [{"element": "Li", "occu": 1}], "abc": [0.02319454, 0.23486573, 0.055151490000000004], "xyz": [0.3028718678933, 2.40559204107222, 2.7325923089687403], "label": "Li", "properties": {}}, {"species": [{"element": "Li", "occu": 1}], "abc": [0.16962531, 0.42380042, 0.13634274], "xyz": [2.2149494873224502, 4.34073935501388, 6.75537728369124], "label": "Li", "properties": {}}, {"species": [{"element": "Li", "occu": 1}], "abc": [0.83746181, 0.30210292, 0.15257013], "xyz": [10.93548838148995, 3.0942631772488802, 7.55939619793338], "label": "Li", "properties": {}}, {"species": [{"element": "Li", "occu": 1}], "abc": [0.33091175, 0.54295542, 0.07831539000000001], "xyz": [4.32101088576625, 5.56117419518388, 3.880294664530141], "label": "Li", "properties": {}}, {"species": [{"element": "Li", "occu": 1}], "abc": [0.67093935, 0.53402521, 0.10536779999999998], "xyz": [8.76105558366825, 5.4697072872569406, 5.220661126162799], "label": "Li", "properties": {}}, {"species": [{"element": "Li", "occu": 1}], "abc": [0.67058947, 0.80857818, 0.14852615], "xyz": [8.75648688736565, 8.28179247092652, 7.3590290157299005], "label": "Li", "properties": {}}, {"species": [{"element": "Li", "occu": 1}], "abc": [0.33763744, 0.92537379, 0.13350441], "xyz": [4.4088342395888, 9.47806146192906, 6.61474647338466], "label": "Li", "properties": {}}, {"species": [{"element": "Li", "occu": 1}], "abc": [0.82499875, 0.04905502, 0.10359565999999998], "xyz": [10.77274705263125, 0.5024418236182799, 5.132856859507159], "label": "Li", "properties": {}}, {"species": [{"element": "Li", "occu": 1}], "abc": [0.17301176, 0.05086525, 0.07936746], "xyz": [2.2591693958451997, 0.5209829487135, 3.9324216041739604], "label": "Li", "properties": {}}, {"species": [{"element": "Li", "occu": 1}], "abc": [0.01189004, 0.51770608, 0.09292107], "xyz": [0.1552588938658, 5.3025600016771195, 4.60396267123782], "label": "Li", "properties": {}}, {"species": [{"element": "Li", "occu": 1}], "abc": [0.4936826, 0.37480644, 0.15445515999999998], "xyz": [6.4464555541270006, 3.8389227283461604, 7.6527938283541594], "label": "Li", "properties": {}}, {"species": [{"element": "Li", "occu": 1}], "abc": [0.50432392, 0.10737334, 0.09144293], "xyz": [6.5854087933484005, 1.0997622008427599, 4.530725230226181], "label": "Li", "properties": {}}, {"species": [{"element": "Li", "occu": 1}], "abc": [0.98732014, 0.85576954, 0.12915836], "xyz": [12.8923227195053, 8.76514591726956, 6.39941262103736], "label": "Li", "properties": {}}, {"species": [{"element": "Li", "occu": 1}], "abc": [0.17069331, 0.05091177, 0.237041], "xyz": [2.22889531918245, 0.52145942581278, 11.744676590066002], "label": "Li", "properties": {}}, {"species": [{"element": "Li", "occu": 1}], "abc": [0.83119057, 0.92881473, 0.24911416999999997], "xyz": [10.85359918805015, 9.51330499395822, 12.34286625795842], "label": "Li", "properties": {}}, {"species": [{"element": "Li", "occu": 1}], "abc": [0.32476407, 0.19659952, 0.17914634999999998], "xyz": [4.24073512583265, 2.01365367604128, 8.876168861255099], "label": "Li", "properties": {}}, {"species": [{"element": "Li", "occu": 1}], "abc": [0.6691115, 0.15833671, 0.20683242], "xyz": [8.737187710292499, 1.62175013521794, 10.24793129138292], "label": "Li", "properties": {}}, {"species": [{"element": "Li", "occu": 1}], "abc": [0.66600958, 0.42789179, 0.25102317], "xyz": [8.6966831646341, 4.38264486038106, 12.437451530592421], "label": "Li", "properties": {}}, {"species": [{"element": "Li", "occu": 1}], "abc": [0.33349418, 0.55272147, 0.23544266999999997], "xyz": [4.3547319855510995, 5.6612021224285805, 11.665484091999419], "label": "Li", "properties": {}}, {"species": [{"element": "Li", "occu": 1}], "abc": [0.83365387, 0.66952208, 0.20520707], "xyz": [10.88576470080365, 6.857522325501121, 10.16740003267382], "label": "Li", "properties": {}}, {"species": [{"element": "Li", "occu": 1}], "abc": [0.16422261, 0.70849418, 0.17732], "xyz": [2.14440159800595, 7.256690708150519, 8.785678650320001], "label": "Li", "properties": {}}, {"species": [{"element": "Li", "occu": 1}], "abc": [0.00816085, 0.12442913, 0.19357014], "xyz": [0.10656352241075001, 1.27445466311982, 9.59082475940364], "label": "Li", "properties": {}}, {"species": [{"element": "Li", "occu": 1}], "abc": [0.50641916, 0.98877731, 0.23590205999999997], "xyz": [6.6127682172682, 10.12746656282634, 11.68824550027356], "label": "Li", "properties": {}}, {"species": [{"element": "Li", "occu": 1}], "abc": [0.50844771, 0.70841124, 0.19145957], "xyz": [6.63925681017045, 7.25584120233336, 9.48625229273882], "label": "Li", "properties": {}}, {"species": [{"element": "Li", "occu": 1}], "abc": [0.99500182, 0.48748699, 0.23617982999999998], "xyz": [12.992629290368901, 4.99304357119386, 11.70200817768558], "label": "Li", "properties": {}}, {"species": [{"element": "Li", "occu": 1}], "abc": [0.16470712, 0.67512276, 0.33467334], "xyz": [2.1507282787124002, 6.914886808742641, 16.58206867848684], "label": "Li", "properties": {}}, {"species": [{"element": "Li", "occu": 1}], "abc": [0.83118438, 0.55886532, 0.34951096], "xyz": [10.8535183596801, 5.72412997768248, 17.31722862240496], "label": "Li", "properties": {}}, {"species": [{"element": "Li", "occu": 1}], "abc": [0.33587309, 0.83322588, 0.27830297], "xyz": [4.38579554254555, 8.53424441847432, 13.78908449046722], "label": "Li", "properties": {}}, {"species": [{"element": "Li", "occu": 1}], "abc": [0.67283616, 0.792007, 0.30614417], "xyz": [8.7858239294832, 8.112063584898, 15.168533150738421], "label": "Li", "properties": {}}, {"species": [{"element": "Li", "occu": 1}], "abc": [0.66322943, 0.05614098, 0.35220386], "xyz": [8.66038025784985, 0.57501915952572, 17.45065380872036], "label": "Li", "properties": {}}, {"species": [{"element": "Li", "occu": 1}], "abc": [0.32856435, 0.17298823, 0.33862502], "xyz": [4.29035878304325, 1.77181706878722, 16.777862670190522], "label": "Li", "properties": {}}, {"species": [{"element": "Li", "occu": 1}], "abc": [0.83884496, 0.27640029, 0.30839534], "xyz": [10.9535494089592, 2.83100619990006, 15.280071929258842], "label": "Li", "properties": {}}, {"species": [{"element": "Li", "occu": 1}], "abc": [0.16325568, 0.31875962, 0.28044266], "xyz": [2.1317755275935997, 3.2648679945226804, 13.895099766529162], "label": "Li", "properties": {}}, {"species": [{"element": "Li", "occu": 1}], "abc": [0.99456483, 0.85070304, 0.2930276], "xyz": [12.98692312083285, 8.71325272673856, 14.518646115917601], "label": "Li", "properties": {}}, {"species": [{"element": "Li", "occu": 1}], "abc": [0.50602563, 0.60901511, 0.33169195], "xyz": [6.607629543848851, 6.23778488887554, 16.434349670640703], "label": "Li", "properties": {}}, {"species": [{"element": "Li", "occu": 1}], "abc": [0.49031931, 0.25709001, 0.29494760999999997], "xyz": [6.4025380664524505, 2.63322231768414, 14.61377690130786], "label": "Li", "properties": {}}, {"species": [{"element": "Li", "occu": 1}], "abc": [0.01285654, 0.12667133, 0.35672221], "xyz": [0.1678793493833, 1.29742020379062, 17.67452461364746], "label": "Li", "properties": {}}, {"species": [{"element": "Li", "occu": 1}], "abc": [0.15039756, 0.3054825, 0.4375011], "xyz": [1.9638755467362001, 3.128878234755, 21.6768783767286], "label": "Li", "properties": {}}, {"species": [{"element": "Li", "occu": 1}], "abc": [0.83983523, 0.195858, 0.45476289999999997], "xyz": [10.966480250640851, 2.0060587212120002, 22.5321492301354], "label": "Li", "properties": {}}, {"species": [{"element": "Li", "occu": 1}], "abc": [0.3313407, 0.44531388, 0.38076277], "xyz": [4.3266120698265, 4.56108911890632, 18.86566286502202], "label": "Li", "properties": {}}, {"species": [{"element": "Li", "occu": 1}], "abc": [0.66964646, 0.43825011, 0.40740407], "xyz": [8.744173161801701, 4.48873906216554, 20.18566004879582], "label": "Li", "properties": {}}, {"species": [{"element": "Li", "occu": 1}], "abc": [0.69077241, 0.69952268, 0.45309074], "xyz": [9.02003359867695, 7.16480089094952, 22.44929867513924], "label": "Li", "properties": {}}, {"species": [{"element": "Li", "occu": 1}], "abc": [0.33350833, 0.80431251, 0.43840903999999997], "xyz": [4.35491675476535, 8.238101712799141, 21.72186410351504], "label": "Li", "properties": {}}, {"species": [{"element": "Li", "occu": 1}], "abc": [0.82644101, 0.93234664, 0.40671757], "xyz": [10.791579932273951, 9.54948027838896, 20.15164601544682], "label": "Li", "properties": {}}, {"species": [{"element": "Li", "occu": 1}], "abc": [0.17396491, 0.93207767, 0.38230675], "xyz": [2.27161552846445, 9.54672537629538, 18.9421624822255], "label": "Li", "properties": {}}, {"species": [{"element": "Li", "occu": 1}], "abc": [0.98750263, 0.46092719, 0.39356037], "xyz": [12.89470565476385, 4.72100710383666, 19.49974588495962], "label": "Li", "properties": {}}, {"species": [{"element": "Li", "occu": 1}], "abc": [0.5162228, 0.2249768, 0.4289622], "xyz": [6.740783119006, 2.3043055259952, 21.253801276417203], "label": "Li", "properties": {}}, {"species": [{"element": "Li", "occu": 1}], "abc": [0.49573408, 0.87566747, 0.39494495], "xyz": [6.4732435645616, 8.96894875407258, 19.568347706218702], "label": "Li", "properties": {}}, {"species": [{"element": "Li", "occu": 1}], "abc": [0.97556342, 0.7480169, 0.43115774], "xyz": [12.7388047042009, 7.6614987687966, 21.362583753881243], "label": "Li", "properties": {}}, {"species": [{"element": "Li", "occu": 1}], "abc": [0.327791, 0.14980865, 0.4598848], "xyz": [4.2802604599450005, 1.5344022140811, 22.7859241426048], "label": "Li", "properties": {}}, {"species": [{"element": "Li", "occu": 1}], "abc": [0.15602795, 0.65979593, 0.46284451], "xyz": [2.03739658816525, 6.75790307057502, 22.93256897092726], "label": "Li", "properties": {}}, {"species": [{"element": "Li", "occu": 1}], "abc": [0.50953972, 0.65835426, 0.48375216000000004], "xyz": [6.6535161620894, 6.743136889583639, 23.968480849076162], "label": "Li", "properties": {}}, {"species": [{"element": "P", "occu": 1}], "abc": [0.08620399, 0.51121796, 0.03126086], "xyz": [1.12564265000105, 5.23610599055544, 1.5488826432023601], "label": "P", "properties": {}}, {"species": [{"element": "P", "occu": 1}], "abc": [0.91148739, 0.95395317, 0.04928397], "xyz": [11.90210663244405, 9.77078330375238, 2.4418741429732203], "label": "P", "properties": {}}, {"species": [{"element": "P", "occu": 1}], "abc": [0.40640795, 0.01807979, 0.03356181], "xyz": [5.3068323382652505, 0.18518069421306, 1.66288787267706], "label": "P", "properties": {}}, {"species": [{"element": "P", "occu": 1}], "abc": [0.59055501, 0.45328498, 0.04841852], "xyz": [7.71140531230395, 4.64273242514172, 2.39899366932152], "label": "P", "properties": {}}, {"species": [{"element": "P", "occu": 1}], "abc": [0.08777869, 0.14520911, 0.13315688], "xyz": [1.1462049172575501, 1.48729182119154, 6.59752739543888], "label": "P", "properties": {}}, {"species": [{"element": "P", "occu": 1}], "abc": [0.91166836, 0.57984985, 0.15165305999999998], "xyz": [11.904469719702199, 5.9390622215379, 7.513958106799559], "label": "P", "properties": {}}, {"species": [{"element": "P", "occu": 1}], "abc": [0.41077344, 0.64457824, 0.13316049], "xyz": [5.3638364483088, 6.60203718947136, 6.59770626020274], "label": "P", "properties": {}}, {"species": [{"element": "P", "occu": 1}], "abc": [0.58696778, 0.08300502, 0.15239994999999998], "xyz": [7.6645636396231005, 0.85017177891828, 7.550964285048699], "label": "P", "properties": {}}, {"species": [{"element": "P", "occu": 1}], "abc": [0.08884665, 0.77890097, 0.23355722], "xyz": [1.16015022680175, 7.97782619974158, 11.572065651827721], "label": "P", "properties": {}}, {"species": [{"element": "P", "occu": 1}], "abc": [0.9114238, 0.20254953, 0.25175715], "xyz": [11.901276280901, 2.07459614176542, 12.4738180567359], "label": "P", "properties": {}}, {"species": [{"element": "P", "occu": 1}], "abc": [0.40995833, 0.27333754, 0.23335425999999998], "xyz": [5.3531928275153495, 2.79963624642156, 11.56200958743076], "label": "P", "properties": {}}, {"species": [{"element": "P", "occu": 1}], "abc": [0.59029685, 0.70961566, 0.25201581], "xyz": [7.70803428613075, 7.26817737060324, 12.48663389048106], "label": "P", "properties": {}}, {"species": [{"element": "P", "occu": 1}], "abc": [0.08935022, 0.40172685, 0.33501541], "xyz": [1.1667257909869, 4.1146527126159, 16.59901722967066], "label": "P", "properties": {}}, {"species": [{"element": "P", "occu": 1}], "abc": [0.9116464, 0.83683439, 0.35284762999999997], "xyz": [11.904182968328, 8.57120427181746, 17.482550697648378], "label": "P", "properties": {}}, {"species": [{"element": "P", "occu": 1}], "abc": [0.41193223, 0.90090556, 0.33410586999999997], "xyz": [5.37896780645585, 9.22744772042184, 16.55395222764262], "label": "P", "properties": {}}, {"species": [{"element": "P", "occu": 1}], "abc": [0.58973881, 0.3371122, 0.35257998], "xyz": [7.700747458404949, 3.4528427168507996, 17.46928943613948], "label": "P", "properties": {}}, {"species": [{"element": "P", "occu": 1}], "abc": [0.08768739, 0.02757127, 0.43680952], "xyz": [1.1450127314440501, 0.28239636184578, 21.64261264448752], "label": "P", "properties": {}}, {"species": [{"element": "P", "occu": 1}], "abc": [0.9124096, 0.47080748, 0.45519563], "xyz": [11.914148753792, 4.82220512445672, 22.553589714696383], "label": "P", "properties": {}}, {"species": [{"element": "P", "occu": 1}], "abc": [0.41025059, 0.52826092, 0.43756884], "xyz": [5.35700912790805, 5.41066704266088, 21.680234692269842], "label": "P", "properties": {}}, {"species": [{"element": "P", "occu": 1}], "abc": [0.59317295, 0.96434259, 0.45283241], "xyz": [7.7455900979402506, 9.87719604461226, 22.436499191912663], "label": "P", "properties": {}}, {"species": [{"element": "S", "occu": 1}], "abc": [0.13480874, 0.32754087, 0.02134854], "xyz": [1.7603183720023001, 3.3548091924601797, 1.05775666644204], "label": "S", "properties": {}}, {"species": [{"element": "S", "occu": 1}], "abc": [0.84626201, 0.1380121, 0.057562499999999996], "xyz": [11.05040046906895, 1.4135770652094, 2.852050684125], "label": "S", "properties": {}}, {"species": [{"element": "S", "occu": 1}], "abc": [0.34336294, 0.117125, 0.06627409000000001], "xyz": [4.4835972174113, 1.19964273975, 3.2836840603563404], "label": "S", "properties": {}}, {"species": [{"element": "S", "occu": 1}], "abc": [0.66167836, 0.36685362, 0.015367069999999997], "xyz": [8.6401265486522, 3.75746665343868, 0.7613926168338199], "label": "S", "properties": {}}, {"species": [{"element": "S", "occu": 1}], "abc": [0.65337271, 0.63410816, 0.058161899999999996], "xyz": [8.531672243045449, 6.49479829549824, 2.8817491715094], "label": "S", "properties": {}}, {"species": [{"element": "S", "occu": 1}], "abc": [0.35009646, 0.83711779, 0.027198319999999998], "xyz": [4.5715228145517, 8.57410697194506, 1.34759586819632], "label": "S", "properties": {}}, {"species": [{"element": "S", "occu": 1}], "abc": [0.84717422, 0.8642539, 0.016798549999999995], "xyz": [11.0623120114669, 8.8520462449146, 0.8323181936122999], "label": "S", "properties": {}}, {"species": [{"element": "S", "occu": 1}], "abc": [0.15879964, 0.59524697, 0.06457671000000001], "xyz": [2.0735890251578, 6.096765898985581, 3.1995839293644606], "label": "S", "properties": {}}, {"species": [{"element": "S", "occu": 1}], "abc": [0.06217896, 0.993541, 0.041437919999999996], "xyz": [0.8119263308892, 10.176258247974, 2.05312569962592], "label": "S", "properties": {}}, {"species": [{"element": "S", "occu": 1}], "abc": [0.93837461, 0.4731284, 0.048019849999999996], "xyz": [12.25319712804595, 4.8459769479576, 2.3792407564661], "label": "S", "properties": {}}, {"species": [{"element": "S", "occu": 1}], "abc": [0.44024694, 0.484346, 0.037235929999999993], "xyz": [5.7486983165913, 4.960872251244, 1.8449295918441797], "label": "S", "properties": {}}, {"species": [{"element": "S", "occu": 1}], "abc": [0.55853939, 0.987203, 0.046859580000000005], "xyz": [7.29334870798405, 10.111341828042, 2.3217528286090805], "label": "S", "properties": {}}, {"species": [{"element": "S", "occu": 1}], "abc": [0.08430871, 0.63535265, 0.0005531899999999985], "xyz": [1.10089428276545, 6.5075448772971, 0.027408919312939928], "label": "S", "properties": {}}, {"species": [{"element": "S", "occu": 1}], "abc": [0.39208787, 0.13219503, 9.99999999999994e-05], "xyz": [5.11984223723365, 1.3539962260024199, 0.00495470259999997], "label": "S", "properties": {}}, {"species": [{"element": "S", "occu": 1}], "abc": [0.15387554, 0.96731093, 0.12474583], "xyz": [2.0092906443883, 9.90759901178502, 6.18078488240158], "label": "S", "properties": {}}, {"species": [{"element": "S", "occu": 1}], "abc": [0.84958441, 0.76075015, 0.15933143], "xyz": [11.09378401941695, 7.7919179868621, 7.89439850482718], "label": "S", "properties": {}}, {"species": [{"element": "S", "occu": 1}], "abc": [0.34798094, 0.74041791, 0.16564636], "xyz": [4.5438985765213005, 7.583666767234741, 8.20728450572536], "label": "S", "properties": {}}, {"species": [{"element": "S", "occu": 1}], "abc": [0.64886053, 0.99767274, 0.11865171999999999], "xyz": [8.47275267038435, 10.21857723959436, 5.87883985578472], "label": "S", "properties": {}}, {"species": [{"element": "S", "occu": 1}], "abc": [0.65405364, 0.25783788, 0.16266252], "xyz": [8.540563755487801, 2.6408823118423204, 8.05944410766552], "label": "S", "properties": {}}, {"species": [{"element": "S", "occu": 1}], "abc": [0.35154661, 0.4624609, 0.12570992], "xyz": [4.59045872098595, 4.7367159966126, 6.22855267469792], "label": "S", "properties": {}}, {"species": [{"element": "S", "occu": 1}], "abc": [0.84744907, 0.48227175, 0.11957156], "xyz": [11.06590097390765, 4.9396269240045, 5.92441519218056], "label": "S", "properties": {}}, {"species": [{"element": "S", "occu": 1}], "abc": [0.14595324, 0.2360491, 0.16675026999999998], "xyz": [1.9058420828298002, 2.4177126065274, 8.26197996319702], "label": "S", "properties": {}}, {"species": [{"element": "S", "occu": 1}], "abc": [0.06143104, 0.6202574, 0.13933621], "xyz": [0.8021600700608, 6.352933077363599, 6.903694819611459], "label": "S", "properties": {}}, {"species": [{"element": "S", "occu": 1}], "abc": [0.93648902, 0.10226266, 0.14264026], "xyz": [12.2285752918129, 1.0474165004612401, 7.06740067086676], "label": "S", "properties": {}}, {"species": [{"element": "S", "occu": 1}], "abc": [0.43735256, 0.12796013, 0.14149294999999998], "xyz": [5.7109038064612, 1.31062062695382, 7.010554872466699], "label": "S", "properties": {}}, {"species": [{"element": "S", "occu": 1}], "abc": [0.56320952, 0.61058065, 0.1439478], "xyz": [7.354330775160401, 6.2538197976891, 7.1321853892427995], "label": "S", "properties": {}}, {"species": [{"element": "S", "occu": 1}], "abc": [0.11025277, 0.26767777, 0.10078867], "xyz": [1.4396690941191501, 2.74166653893678, 4.99377885299542], "label": "S", "properties": {}}, {"species": [{"element": "S", "occu": 1}], "abc": [0.88427172, 0.84238405, 0.08328403000000001], "xyz": [11.5467272712294, 8.6280461870967, 4.12647599979478], "label": "S", "properties": {}}, {"species": [{"element": "S", "occu": 1}], "abc": [0.38745014, 0.75826639, 0.09979379], "xyz": [5.0592832458553, 7.76647828866546, 4.94448550776854], "label": "S", "properties": {}}, {"species": [{"element": "S", "occu": 1}], "abc": [0.61045629, 0.33687206, 0.08148177000000001], "xyz": [7.971274136909551, 3.4503831035528396, 4.03717937671602], "label": "S", "properties": {}}, {"species": [{"element": "S", "occu": 1}], "abc": [0.15430238, 0.60409739, 0.2225873], "xyz": [2.0148642762901, 6.187415564699459, 11.0285387403698], "label": "S", "properties": {}}, {"species": [{"element": "S", "occu": 1}], "abc": [0.84764342, 0.37896917, 0.26184234], "xyz": [11.068438775800901, 3.8815591323763803, 12.973509227880841], "label": "S", "properties": {}}, {"species": [{"element": "S", "occu": 1}], "abc": [0.34628494, 0.36135931, 0.26650308], "xyz": [4.5217523866013, 3.70119165577434, 13.204435033840081], "label": "S", "properties": {}}, {"species": [{"element": "S", "occu": 1}], "abc": [0.65476299, 0.61827649, 0.21919379], "xyz": [8.54982637330605, 6.33264377704686, 10.860400412168541], "label": "S", "properties": {}}, {"species": [{"element": "S", "occu": 1}], "abc": [0.65249035, 0.88861001, 0.26113366], "xyz": [8.52015047881325, 9.10151160696414, 12.93839624149516], "label": "S", "properties": {}}, {"species": [{"element": "S", "occu": 1}], "abc": [0.34587461, 0.09611483, 0.22322873], "xyz": [4.516394340545951, 0.98444788039962, 11.06031968925698], "label": "S", "properties": {}}, {"species": [{"element": "S", "occu": 1}], "abc": [0.84686085, 0.11415202, 0.21834831], "xyz": [11.05822005891075, 1.1691922477762802, 10.81850939262606], "label": "S", "properties": {}}, {"species": [{"element": "S", "occu": 1}], "abc": [0.15370911, 0.86474607, 0.26707141], "xyz": [2.00711741892345, 8.857087253812981, 13.232594095126661], "label": "S", "properties": {}}, {"species": [{"element": "S", "occu": 1}], "abc": [0.06132615, 0.24587779, 0.24040048999999997], "xyz": [0.80079042745425, 2.5183821185850603, 11.911129328442739], "label": "S", "properties": {}}, {"species": [{"element": "S", "occu": 1}], "abc": [0.93925097, 0.7339847, 0.24457341999999999], "xyz": [12.26464054490815, 7.517775167065801, 12.11788559964892], "label": "S", "properties": {}}, {"species": [{"element": "S", "occu": 1}], "abc": [0.44009706, 0.75140194, 0.24016390999999998], "xyz": [5.7467411992887, 7.69616974988316, 11.89940749303166], "label": "S", "properties": {}}, {"species": [{"element": "S", "occu": 1}], "abc": [0.55997148, 0.22929212, 0.24463311999999998], "xyz": [7.312048788834599, 2.34850481997768, 12.12084355710112], "label": "S", "properties": {}}, {"species": [{"element": "S", "occu": 1}], "abc": [0.10391299, 0.90343214, 0.20138382999999999], "xyz": [1.35688491255605, 9.25332599878596, 9.97796986098958], "label": "S", "properties": {}}, {"species": [{"element": "S", "occu": 1}], "abc": [0.89873114, 0.46506666, 0.18522638], "xyz": [11.7355368593503, 4.76340526931724, 9.17741626574588], "label": "S", "properties": {}}, {"species": [{"element": "S", "occu": 1}], "abc": [0.39543012, 0.39669198, 0.20094006], "xyz": [5.1634849867974, 4.06308348963972, 9.955982377261561], "label": "S", "properties": {}}, {"species": [{"element": "S", "occu": 1}], "abc": [0.60281762, 0.95664308, 0.18450423], "xyz": [7.871529186109901, 9.79833447559512, 9.14163588091998], "label": "S", "properties": {}}, {"species": [{"element": "S", "occu": 1}], "abc": [0.15083434, 0.22117382, 0.32648905], "xyz": [1.9695789741143002, 2.2653538304014798, 16.1765614490653], "label": "S", "properties": {}}, {"species": [{"element": "S", "occu": 1}], "abc": [0.84688996, 0.01529073, 0.36135986999999997], "xyz": [11.0586001742342, 0.15661398702222, 17.90430687424662], "label": "S", "properties": {}}, {"species": [{"element": "S", "occu": 1}], "abc": [0.3506407, 0.98244007, 0.3683816], "xyz": [4.5786294433265, 10.06255792712898, 18.2522127131216], "label": "S", "properties": {}}, {"species": [{"element": "S", "occu": 1}], "abc": [0.65392302, 0.24192777, 0.32009751], "xyz": [8.5388581332429, 2.47792437843678, 15.85987965050526], "label": "S", "properties": {}}, {"species": [{"element": "S", "occu": 1}], "abc": [0.64891958, 0.51921941, 0.36007184999999997], "xyz": [8.4735237390841, 5.318060154055741, 17.8404893138181], "label": "S", "properties": {}}, {"species": [{"element": "S", "occu": 1}], "abc": [0.34559534, 0.72710625, 0.3227219], "xyz": [4.5127476622093, 7.4473232344874996, 15.989910370069401], "label": "S", "properties": {}}, {"species": [{"element": "S", "occu": 1}], "abc": [0.85145156, 0.74805823, 0.31918219999999997], "xyz": [11.118165068066201, 7.661922087767221, 15.814528762137199], "label": "S", "properties": {}}, {"species": [{"element": "S", "occu": 1}], "abc": [0.15385192, 0.49512419, 0.36765231], "xyz": [2.0089822169084, 5.07126693539466, 18.21607856253006], "label": "S", "properties": {}}, {"species": [{"element": "S", "occu": 1}], "abc": [0.06326045, 0.8773553, 0.34315202], "xyz": [0.82604831375275, 8.9862362076942, 17.00216205689252], "label": "S", "properties": {}}, {"species": [{"element": "S", "occu": 1}], "abc": [0.93895877, 0.36110166, 0.34720694], "xyz": [12.260825027989151, 3.69855269780724, 17.20307128356044], "label": "S", "properties": {}}, {"species": [{"element": "S", "occu": 1}], "abc": [0.43751668, 0.37091779, 0.34168021], "xyz": [5.7130468681886, 3.79909356514506, 16.92923824855546], "label": "S", "properties": {}}, {"species": [{"element": "S", "occu": 1}], "abc": [0.56202795, 0.85496179, 0.34460076], "xyz": [7.338901958165251, 8.75687260736106, 17.073942815339763], "label": "S", "properties": {}}, {"species": [{"element": "S", "occu": 1}], "abc": [0.09985791, 0.51768335, 0.30187283], "xyz": [1.3039341036994498, 5.3023271916069, 14.95690095670358], "label": "S", "properties": {}}, {"species": [{"element": "S", "occu": 1}], "abc": [0.8971663, 0.07938399, 0.28406406], "xyz": [11.7151033429385, 0.81308369055186, 14.07452936648556], "label": "S", "properties": {}}, {"species": [{"element": "S", "occu": 1}], "abc": [0.39596228, 0.02883447, 0.30248221], "xyz": [5.1704338762006, 0.29533457921058004, 14.987093923407459], "label": "S", "properties": {}}, {"species": [{"element": "S", "occu": 1}], "abc": [0.60469873, 0.58879388, 0.28464996], "xyz": [7.896092522973349, 6.03067067962632, 14.103558969018959], "label": "S", "properties": {}}, {"species": [{"element": "S", "occu": 1}], "abc": [0.15265127, 0.84327716, 0.42862048999999997], "xyz": [1.99330425527665, 8.63719378946424, 21.23687056216274], "label": "S", "properties": {}}, {"species": [{"element": "S", "occu": 1}], "abc": [0.86318056, 0.65450652, 0.46474654], "xyz": [11.2713211185212, 6.7037267435392796, 23.02680890079004], "label": "S", "properties": {}}, {"species": [{"element": "S", "occu": 1}], "abc": [0.33911925, 0.61521675, 0.47054718], "xyz": [4.42818355897875, 6.3013046532345, 23.314213361686683], "label": "S", "properties": {}}, {"species": [{"element": "S", "occu": 1}], "abc": [0.65629678, 0.86627683, 0.41999847], "xyz": [8.5698544420781, 8.87276593146762, 20.809675113050222], "label": "S", "properties": {}}, {"species": [{"element": "S", "occu": 1}], "abc": [0.64885997, 0.14564548, 0.45915881], "xyz": [8.47274535796315, 1.49176130338872, 22.74995349719906], "label": "S", "properties": {}}, {"species": [{"element": "S", "occu": 1}], "abc": [0.34730019, 0.34729704, 0.42798379999999997], "xyz": [4.53500941450005, 3.55716006465456, 21.205324466178798], "label": "S", "properties": {}}, {"species": [{"element": "S", "occu": 1}], "abc": [0.84036529, 0.38532885, 0.42192567], "xyz": [10.973401718464551, 3.9466976078439, 20.90516214155742], "label": "S", "properties": {}}, {"species": [{"element": "S", "occu": 1}], "abc": [0.1514718, 0.1185276, 0.46920302999999997], "xyz": [1.977902859861, 1.2140087496264, 23.24761472668878], "label": "S", "properties": {}}, {"species": [{"element": "S", "occu": 1}], "abc": [0.06021598, 0.50779401, 0.43838109999999997], "xyz": [0.7862939441621001, 5.20103647714014, 21.7204797596086], "label": "S", "properties": {}}, {"species": [{"element": "S", "occu": 1}], "abc": [0.93688901, 0.9885422, 0.44466982], "xyz": [12.23379831923395, 10.125058468870801, 22.03206713295532], "label": "S", "properties": {}}, {"species": [{"element": "S", "occu": 1}], "abc": [0.44069488, 0.99415362, 0.43971829], "xyz": [5.7545474700776005, 10.18253295563868, 21.78673354730554], "label": "S", "properties": {}}, {"species": [{"element": "S", "occu": 1}], "abc": [0.56045511, 0.49786896, 0.44877306], "xyz": [7.3183639785934504, 5.09938000606944, 22.235370471919563], "label": "S", "properties": {}}, {"species": [{"element": "S", "occu": 1}], "abc": [0.11501257, 0.13857573, 0.40270784], "xyz": [1.50182206274015, 1.41934999701222, 19.95297581888384], "label": "S", "properties": {}}, {"species": [{"element": "S", "occu": 1}], "abc": [0.88934553, 0.71429561, 0.38515910999999997], "xyz": [11.612980549459351, 7.31611135600254, 19.08348843730686], "label": "S", "properties": {}}, {"species": [{"element": "S", "occu": 1}], "abc": [0.39043884, 0.64395598, 0.40439693], "xyz": [5.0983093766418, 6.59566374493572, 20.03666520503018], "label": "S", "properties": {}}, {"species": [{"element": "S", "occu": 1}], "abc": [0.61231712, 0.22303422, 0.38594723999999997], "xyz": [7.9955726596624, 2.2844088174070802, 19.12253793490824], "label": "S", "properties": {}}, {"species": [{"element": "S", "occu": 1}], "abc": [0.91405056, 0.34788141, 0.48611268], "xyz": [11.9355762371712, 3.56314542412374, 24.085437594889683], "label": "S", "properties": {}}, {"species": [{"element": "S", "occu": 1}], "abc": [0.60865141, 0.84993786, 0.48618614], "xyz": [7.9477062033819506, 8.705415436394041, 24.08907731941964], "label": "S", "properties": {}}]}, "formula": "(Li3PS4)20.0", "bandgap": 2.0508, "slab_thickness": 24.08412261681964}