{"miller": "110_0.14", "final_energy": -699.51401677, "gamma": 0.015301916952923317, "work_function": "Not calculated", "ionization_potentail": "Not calculated", "electron_affinity": "Not calculated", "is_stochiometric": true, "incar_parameters": {"SYSTEM": "unknown system", "LCOMPAT": false, "PREC": "normal", "ENMAX": 520.0, "ENAUG": 628.945, "EDIFF": 1e-05, "IALGO": 38, "IWAVPR": 11, "NBANDS": 462, "NBANDSLOW": -1, "NBANDSHIGH": -1, "NELECT": 760.0, "TURBO": 0, "IRESTART": 0, "NREBOOT": 0, "NMIN": 0, "EREF": 0.0, "ISMEAR": 0, "SIGMA": 0.05, "KSPACING": 0.5, "KGAMMA": true, "KBLOWUP": true, "LREAL": true, "ROPT": [-0.0005, -0.0005, -0.0005], "LMAXPAW": -100, "LMAXMIX": 2, "NLSPLINE": false, "ISTART": 0, "ICHARG": 2, "INIWAV": 1, "ISPIN": 1, "LNONCOLLINEAR": false, "MAGMOM": [0.6, 0.6, 0.6, 0.6, 0.6, 0.6, 0.6, 0.6, 0.6, 0.6, 0.6, 0.6, 0.6, 0.6, 0.6, 0.6, 0.6, 0.6, 0.6, 0.6, 0.6, 0.6, 0.6, 0.6, 0.6, 0.6, 0.6, 0.6, 0.6, 0.6, 0.6, 0.6, 0.6, 0.6, 0.6, 0.6, 0.6, 0.6, 0.6, 0.6, 0.6, 0.6, 0.6, 0.6, 0.6, 0.6, 0.6, 0.6, 0.6, 0.6, 0.6, 0.6, 0.6, 0.6, 0.6, 0.6, 0.6, 0.6, 0.6, 0.6, 0.6, 0.6, 0.6, 0.6, 0.6, 0.6, 0.6, 0.6, 0.6, 0.6, 0.6, 0.6, 0.6, 0.6, 0.6, 0.6, 0.6, 0.6, 0.6, 0.6, 0.6, 0.6, 0.6, 0.6, 0.6, 0.6, 0.6, 0.6, 0.6, 0.6, 0.6, 0.6, 0.6, 0.6, 0.6, 0.6, 0.6, 0.6, 0.6, 0.6, 0.6, 0.6, 0.6, 0.6, 0.6, 0.6, 0.6, 0.6, 0.6, 0.6, 0.6, 0.6, 0.6, 0.6, 0.6, 0.6, 0.6, 0.6, 0.6, 0.6, 0.6, 0.6, 0.6, 0.6, 0.6, 0.6, 0.6, 0.6, 0.6, 0.6, 0.6, 0.6, 0.6, 0.6, 0.6, 0.6, 0.6, 0.6, 0.6, 0.6, 0.6, 0.6, 0.6, 0.6, 0.6, 0.6, 0.6, 0.6, 0.6, 0.6, 0.6, 0.6, 0.6, 0.6, 0.6, 0.6, 0.6, 0.6, 0.6, 0.6], "NUPDOWN": -1.0, "LSORBIT": false, "SAXIS": [0.0, 0.0, 1.0], "LSPIRAL": false, "QSPIRAL": [0.0, 0.0, 0.0], "LZEROZ": false, "LASPH": false, "LMETAGGA": false, "NELM": 100, "NELMDL": -5, "NELMIN": 6, "ENINI": 520.0, "LDIAG": true, "LSUBROT": false, "WEIMIN": 0.001, "EBREAK": 1e-08, "DEPER": 0.3, "NRMM": 4, "TIME": 0.4, "AMIX": 0.4, "BMIX": 1.0, "AMIN": 0.1, "AMIX_MAG": 1.6, "BMIX_MAG": 1.0, "IMIX": 4, "MIXFIRST": false, "MAXMIX": -45, "WC": 100.0, "INIMIX": 1, "MIXPRE": 1, "MREMOVE": 5, "LDIPOL": false, "LMONO": false, "IDIPOL": 0, "EPSILON": 1.0, "DIPOL": [-100.0, -100.0, -100.0], "EFIELD": 0.0, "NGX": 80, "NGY": 60, "NGZ": 280, "NGXF": 160, "NGYF": 120, "NGZF": 560, "ADDGRID": false, "NSW": 150, "IBRION": 2, "MDALGO": 0, "ISIF": 2, "PSTRESS": 0.0, "EDIFFG": -0.01, "NFREE": 1, "POTIM": 0.5, "SMASS": -3.0, "SCALEE": 1.0, "TEBEG": 0.0001, "TEEND": 0.0001, "NBLOCK": 1, "KBLOCK": 150, "NPACO": 256, "APACO": 10.0, "ISYM": 0, "SYMPREC": 1e-05, "LORBIT": 11, "RWIGS": [-1.0, -1.0, -1.0], "NEDOS": 301, "EMIN": 10.0, "EMAX": -10.0, "EFERMI": 0.0, "NWRITE": 2, "LWAVE": false, "LDOWNSAMPLE": false, "LCHARG": false, "LPARD": false, "LVTOT": false, "LVHAR": false, "LELF": false, "LOPTICS": false, "STM": [0.0, 0.0, 0.0, 0.0, 0.0, 0.0, 0.0], "NPAR": 2, "NSIM": 4, "NBLK": -1, "LPLANE": true, "LSCALAPACK": true, "LSCAAWARE": false, "LSCALU": false, "LASYNC": false, "LORBITALREAL": false, "IDIOT": 3, "PHON_NSTRUCT": -1, "LMUSIC": false, "POMASS": [7.01, 30.974, 32.066], "DARWINR": [0.0, 0.0, 0.0], "DARWINV": [1.0, 1.0, 1.0], "LCORR": true, "GGA_COMPAT": true, "LBERRY": false, "ICORELEVEL": 0, "LDAU": false, "I_CONSTRAINED_M": 0, "GGA": "--", "VOSKOWN": 0, "LHFCALC": false, "PRECFOCK": "", "LSYMGRAD": false, "LHFONE": false, "LRHFCALC": false, "LTHOMAS": false, "LMODELHF": false, "LFOCKACE": false, "ENCUT4O": -1.0, "EXXOEP": 0, "FOURORBIT": 0, "AEXX": 0.0, "HFALPHA": 0.0, "MCALPHA": 0.0, "ALDAX": 1.0, "AGGAX": 1.0, "ALDAC": 1.0, "AGGAC": 1.0, "NKREDX": 1, "NKREDY": 1, "NKREDZ": 1, "SHIFTRED": false, "ODDONLY": false, "EVENONLY": false, "LMAXFOCK": 0, "NMAXFOCKAE": 0, "LFOCKAEDFT": false, "HFSCREEN": 0.0, "HFSCREENC": 0.0, "NBANDSGWLOW": 0, "LUSE_VDW": false, "Zab_VDW": -0.8491, "PARAM1": 0.1234, "PARAM2": 1.0, "PARAM3": 0.0, "MODEL_GW": 0, "MODEL_EPS0": 24.84988353, "MODEL_ALPHA": 1.0, "LEPSILON": false, "LRPA": false, "LNABLA": false, "LVEL": false, "CSHIFT": 0.1, "OMEGAMAX": -1.0, "DEG_THRESHOLD": 0.002, "RTIME": -0.1, "WPLASMAI": 0.0, "DFIELD": [0.0, 0.0, 0.0], "WPLASMA": [0.0, 0.0, 0.0, 0.0, 0.0, 0.0, 0.0, 0.0, 0.0], "NUCIND": false, "MAGPOS": [0.0, 0.0, 0.0], "LNICSALL": true, "ORBITALMAG": false, "LMAGBLOCH": false, "LCHIMAG": false, "LGAUGE": true, "MAGATOM": 0, "MAGDIPOL": [0.0, 0.0, 0.0], "AVECCONST": [0.0, 0.0, 0.0], "LFINITE_TEMPERATURE": false, "LADDER": false, "LRPAFORCE": false, "LFXC": false, "LHARTREE": true, "IBSE": 0, "KPOINT": [-1, 0, 0, 0], "LTCTC": false, "LTCTE": false, "LTETE": false, "LTRIPLET": false, "LFXCEPS": false, "LFXHEG": false, "NATURALO": 2, "LHOLEGF": false, "L2ORDER": false, "LDMP1": false, "LMP2LT": false, "LSMP2LT": false, "LGWLF": false, "ENCUTGW": -2.0, "ENCUTGWSOFT": -2.0, "ENCUTLF": -1.0, "LESF_SPLINES": false, "LMAXMP2": -1, "SCISSOR": 0.0, "NOMEGA": 0, "NOMEGAR": 0, "NBANDSGW": -1, "NBANDSO": -1, "NBANDSV": -1, "NELMGW": 1, "NELMHF": 1, "DIM": 3, "IESPILON": 4, "ANTIRES": 0, "OMEGAMIN": -30.0, "OMEGATL": -200.0, "OMEGAGRID": 0, "LSELFENERGY": false, "LSPECTRAL": false, "LSPECTRALGW": false, "LSINGLES": false, "LFERMIGW": false, "ODDONLYGW": false, "EVENONLYGW": false, "NKREDLFX": 1, "NKREDLFY": 1, "NKREDLFZ": 1, "MAXMEM": 2800, "TELESCOPE": 0, "NTAUPAR": -1, "NOMEGAPAR": -1, "DAMP_NEWTON": 0.80000001, "LAMBDA": 1.0, "OFIELD_KAPPA": 0.0, "OFIELD_K": [0.0, 0.0, 0.0], "OFIELD_Q6_NEAR": 0.0, "OFIELD_Q6_FAR": 0.0, "OFIELD_A": 0.0, "KPOINTS_OPT_MODE": 1, "LKPOINTS_OPT": false, "@module": "pymatgen.io.vasp.inputs", "@class": "Incar"}, "relaxed_structures": {"@module": "pymatgen.core.structure", "@class": "Structure", "charge": 0, "lattice": {"matrix": [[13.057895, 0.0, 0.0], [0.0, 10.242414, 0.0], [0.0, 0.0, 49.547026]], "a": 13.057895, "b": 10.242414, "c": 49.547026, "alpha": 90.0, "beta": 90.0, "gamma": 90.0, "volume": 6626.635607229017}, "sites": [{"species": [{"element": "Li", "occu": 1}], "abc": [0.15879942, 0.72512799, 0.03143061], "xyz": [2.0735861524209, 7.42706107656786, 1.55729325086586], "label": "Li", "properties": {}}, {"species": [{"element": "Li", "occu": 1}], "abc": [0.84967543, 0.61512997, 0.048381190000000004], "xyz": [11.09497254901985, 6.300415816547581, 2.3971440788409404], "label": "Li", "properties": {}}, {"species": [{"element": "Li", "occu": 1}], "abc": [0.67168665, 0.77105086, 0.026514129999999997], "xyz": [8.770813748601752, 7.89742212317604, 1.31369628847738], "label": "Li", "properties": {}}, {"species": [{"element": "Li", "occu": 1}], "abc": [0.66608651, 0.11652083, 0.04715891999999999], "xyz": [8.69768770849645, 1.19345458048362, 2.33658423537192], "label": "Li", "properties": {}}, {"species": [{"element": "Li", "occu": 1}], "abc": [0.30883783, 0.22059121, 0.03350886], "xyz": [4.03277195616785, 2.25938649758094, 1.6602643576503602], "label": "Li", "properties": {}}, {"species": [{"element": "Li", "occu": 1}], "abc": [0.84393514, 0.2595638, 0.023287550000000004], "xyz": [11.0200164449303, 2.6585598990132002, 1.1538288453263004], "label": "Li", "properties": {}}, {"species": [{"element": "Li", "occu": 1}], "abc": [0.48513148, 0.69497835, 0.0573818], "xyz": [6.3347959270346, 7.118255981736899, 2.8430975365268], "label": "Li", "properties": {}}, {"species": [{"element": "Li", "occu": 1}], "abc": [0.49060599, 0.26011177, 0.0026504499999999986], "xyz": [6.40628150379105, 2.66417243461278, 0.13132191506169993], "label": "Li", "properties": {}}, {"species": [{"element": "Li", "occu": 1}], "abc": [0.02314692, 0.17469149, 0.054961949999999996], "xyz": [0.3022500509334, 1.7892625628568601, 2.7232011656607], "label": "Li", "properties": {}}, {"species": [{"element": "Li", "occu": 1}], "abc": [0.17083998, 0.35928325, 0.13720654999999998], "xyz": [2.2308105206421, 3.6799277897655, 6.7981765002203], "label": "Li", "properties": {}}, {"species": [{"element": "Li", "occu": 1}], "abc": [0.83562318, 0.24192876, 0.1523043], "xyz": [10.911479744006101, 2.47793451842664, 7.5462251120118005], "label": "Li", "properties": {}}, {"species": [{"element": "Li", "occu": 1}], "abc": [0.3293455, 0.48351408, 0.07863758], "xyz": [4.3005589577225, 4.9523513821891205, 3.89625822083708], "label": "Li", "properties": {}}, {"species": [{"element": "Li", "occu": 1}], "abc": [0.66894288, 0.47414449, 0.10538152999999999], "xyz": [8.7349858880376, 4.85638416239886, 5.221341406829779], "label": "Li", "properties": {}}, {"species": [{"element": "Li", "occu": 1}], "abc": [0.67172166, 0.74912972, 0.14678868], "xyz": [8.7712709055057, 7.67289673194408, 7.272942544465681], "label": "Li", "properties": {}}, {"species": [{"element": "Li", "occu": 1}], "abc": [0.33787554, 0.86514405, 0.13336901], "xyz": [4.4119433243883, 8.8611635297367, 6.608037806064261], "label": "Li", "properties": {}}, {"species": [{"element": "Li", "occu": 1}], "abc": [0.82658208, 0.99062735, 0.10367204000000001], "xyz": [10.793422009521601, 10.1464154384229, 5.1366412613530406], "label": "Li", "properties": {}}, {"species": [{"element": "Li", "occu": 1}], "abc": [0.17200342, 0.99037625, 0.07947003], "xyz": [2.2460025980008997, 10.1438435682675, 3.93750364263078], "label": "Li", "properties": {}}, {"species": [{"element": "Li", "occu": 1}], "abc": [0.01326518, 0.45584498, 0.09289401000000001], "xyz": [0.1732153275961, 4.66895300498172, 4.602621928714261], "label": "Li", "properties": {}}, {"species": [{"element": "Li", "occu": 1}], "abc": [0.49525039, 0.31204285, 0.15484256000000002], "xyz": [6.46692759132905, 3.1960720554399, 7.671988346226561], "label": "Li", "properties": {}}, {"species": [{"element": "Li", "occu": 1}], "abc": [0.50494873, 0.04462308, 0.09148996], "xyz": [6.59356749672335, 0.45704805931512005, 4.53305542685896], "label": "Li", "properties": {}}, {"species": [{"element": "Li", "occu": 1}], "abc": [0.98725495, 0.79395928, 0.12856109], "xyz": [12.891471475330249, 8.13205964490192, 6.36981966881834], "label": "Li", "properties": {}}, {"species": [{"element": "Li", "occu": 1}], "abc": [0.17096256, 0.99023137, 0.23857445], "xyz": [2.2324111574112, 10.142359647327181, 11.8206544770857], "label": "Li", "properties": {}}, {"species": [{"element": "Li", "occu": 1}], "abc": [0.83683991, 0.8681417, 0.25297104], "xyz": [10.92736767658945, 8.891866702063801, 12.53396269612704], "label": "Li", "properties": {}}, {"species": [{"element": "Li", "occu": 1}], "abc": [0.32866233, 0.12451003, 0.18077427000000001], "xyz": [4.29163819559535, 1.2752832744124198, 8.95682745582102], "label": "Li", "properties": {}}, {"species": [{"element": "Li", "occu": 1}], "abc": [0.66486814, 0.08819096, 0.20823421999999997], "xyz": [8.681778360965302, 0.90328832337744, 10.317386312429718], "label": "Li", "properties": {}}, {"species": [{"element": "Li", "occu": 1}], "abc": [0.67120374, 0.37587725, 0.24717834], "xyz": [8.7645079605273, 3.8498904076815, 12.24695163861684], "label": "Li", "properties": {}}, {"species": [{"element": "Li", "occu": 1}], "abc": [0.33679756, 0.49756201, 0.23268213999999998], "xyz": [4.3978671747362, 5.09623609709214, 11.528708040315639], "label": "Li", "properties": {}}, {"species": [{"element": "Li", "occu": 1}], "abc": [0.82992931, 0.61319567, 0.20475135], "xyz": [10.83712978740245, 6.280603915147379, 10.1448204619851], "label": "Li", "properties": {}}, {"species": [{"element": "Li", "occu": 1}], "abc": [0.16373208, 0.65110065, 0.17683553000000002], "xyz": [2.1379963087716, 6.6688424129690995, 8.761674602633782], "label": "Li", "properties": {}}, {"species": [{"element": "Li", "occu": 1}], "abc": [0.00628739, 0.06042693, 0.19409826000000002], "xyz": [0.08210007844405001, 0.61891763380902, 9.616991534774762], "label": "Li", "properties": {}}, {"species": [{"element": "Li", "occu": 1}], "abc": [0.49392658, 0.94093323, 0.2553282], "xyz": [6.4496414193491, 9.637427688017219, 12.6507529639332], "label": "Li", "properties": {}}, {"species": [{"element": "Li", "occu": 1}], "abc": [0.50818296, 0.67510212, 0.19150534000000002], "xyz": [6.6357997324691995, 6.914675405317681, 9.48852006011884], "label": "Li", "properties": {}}, {"species": [{"element": "Li", "occu": 1}], "abc": [0.99379033, 0.42536615, 0.23092143999999998], "xyz": [12.976809781155351, 4.3567762098861005, 11.44147059163744], "label": "Li", "properties": {}}, {"species": [{"element": "Li", "occu": 1}], "abc": [0.17171597, 0.61604031, 0.33903214], "xyz": [2.24224910608315, 6.309739895708341, 16.79803425541564], "label": "Li", "properties": {}}, {"species": [{"element": "Li", "occu": 1}], "abc": [0.83856023, 0.50032719, 0.35301646], "xyz": [10.94983143451585, 5.12455821543666, 17.49091572204796], "label": "Li", "properties": {}}, {"species": [{"element": "Li", "occu": 1}], "abc": [0.32972617, 0.75311022, 0.28099261999999997], "xyz": [4.30552970661215, 7.71366666087108, 13.92234864894812], "label": "Li", "properties": {}}, {"species": [{"element": "Li", "occu": 1}], "abc": [0.66471946, 0.71392431, 0.30896649], "xyz": [8.6798369131367, 7.31230834768434, 15.30837071315874], "label": "Li", "properties": {}}, {"species": [{"element": "Li", "occu": 1}], "abc": [0.67102507, 0.00505919, 0.34864785], "xyz": [8.762174906427651, 0.05181831848466, 17.2744640887941], "label": "Li", "properties": {}}, {"species": [{"element": "Li", "occu": 1}], "abc": [0.33554095, 0.12431339, 0.33340233999999996], "xyz": [4.38145849330025, 1.27326920612346, 16.51909440844084], "label": "Li", "properties": {}}, {"species": [{"element": "Li", "occu": 1}], "abc": [0.82827913, 0.23774196, 0.30534954], "xyz": [10.81558191023135, 2.4350515794914402, 15.12916159746804], "label": "Li", "properties": {}}, {"species": [{"element": "Li", "occu": 1}], "abc": [0.16503119, 0.27735062, 0.27753918], "xyz": [2.15495995074505, 2.84073987319668, 13.751240967478681], "label": "Li", "properties": {}}, {"species": [{"element": "Li", "occu": 1}], "abc": [0.0070226, 0.69081233, 0.29458601], "xyz": [0.091700373427, 7.07558588016462, 14.59586069670626], "label": "Li", "properties": {}}, {"species": [{"element": "Li", "occu": 1}], "abc": [0.48764086, 0.57082198, 0.35714597], "xyz": [6.3675631475897, 5.84659503945972, 17.69552066138522], "label": "Li", "properties": {}}, {"species": [{"element": "Li", "occu": 1}], "abc": [0.50635514, 0.30576856, 0.29172781999999997], "xyz": [6.611932250830301, 3.13180817970384, 14.454245882463319], "label": "Li", "properties": {}}, {"species": [{"element": "Li", "occu": 1}], "abc": [0.99596444, 0.05248625, 0.33105224], "xyz": [13.0051990812538, 0.5375859018075, 16.402653942638242], "label": "Li", "properties": {}}, {"species": [{"element": "Li", "occu": 1}], "abc": [0.16527873, 0.2498355, 0.43795583], "xyz": [2.15819230207335, 2.558918622897, 21.69940889586158], "label": "Li", "properties": {}}, {"species": [{"element": "Li", "occu": 1}], "abc": [0.80865236, 0.14300735, 0.45266033], "xyz": [10.5592976083822, 1.4647404837429001, 22.42797313967858], "label": "Li", "properties": {}}, {"species": [{"element": "Li", "occu": 1}], "abc": [0.32632806, 0.37499408, 0.38206735999999997], "xyz": [4.2611575430337, 3.84084461490912, 18.93030141967136], "label": "Li", "properties": {}}, {"species": [{"element": "Li", "occu": 1}], "abc": [0.67273516, 0.37489024, 0.40608860999999996], "xyz": [8.7845050820882, 3.83978104263936, 20.12048291797386], "label": "Li", "properties": {}}, {"species": [{"element": "Li", "occu": 1}], "abc": [0.65943387, 0.64020271, 0.45380398], "xyz": [8.61081823390365, 6.55722119974194, 22.48463759596348], "label": "Li", "properties": {}}, {"species": [{"element": "Li", "occu": 1}], "abc": [0.35093534, 0.75015714, 0.43742945], "xyz": [4.5824768215092995, 7.68341999293596, 21.6733283323157], "label": "Li", "properties": {}}, {"species": [{"element": "Li", "occu": 1}], "abc": [0.82945927, 0.88331527, 0.40709087], "xyz": [10.83099205443665, 9.04728068786178, 20.17014192025262], "label": "Li", "properties": {}}, {"species": [{"element": "Li", "occu": 1}], "abc": [0.16907463, 0.89121983, 0.38037049], "xyz": [2.20775876570385, 9.12824246386962, 18.846226557662742], "label": "Li", "properties": {}}, {"species": [{"element": "Li", "occu": 1}], "abc": [0.00396284, 0.31977191, 0.39438561], "xyz": [0.0517463486218, 3.27523628779074, 19.540634072695862], "label": "Li", "properties": {}}, {"species": [{"element": "Li", "occu": 1}], "abc": [0.52331637, 0.19165631, 0.43079322999999997], "xyz": [6.83341021124115, 1.96302327273234, 21.34452336743398], "label": "Li", "properties": {}}, {"species": [{"element": "Li", "occu": 1}], "abc": [0.51269885, 0.90878166, 0.39280224999999996], "xyz": [6.694767749920751, 9.30811799732724, 19.4621832936085], "label": "Li", "properties": {}}, {"species": [{"element": "Li", "occu": 1}], "abc": [0.98340813, 0.67439872, 0.42928246], "xyz": [12.841240103686351, 6.90747089131008, 21.26966920696396], "label": "Li", "properties": {}}, {"species": [{"element": "Li", "occu": 1}], "abc": [0.34396476, 0.10685348, 0.4624446], "xyz": [4.4914557197802, 1.09443757950072, 22.9127546197596], "label": "Li", "properties": {}}, {"species": [{"element": "Li", "occu": 1}], "abc": [0.17180874, 0.59279582, 0.45932666], "xyz": [2.2434604870023, 6.07166020590948, 22.75826996551316], "label": "Li", "properties": {}}, {"species": [{"element": "Li", "occu": 1}], "abc": [0.990857, 0.10274179, 0.48330924], "xyz": [12.938506666015, 1.05232394828106, 23.94653548032024], "label": "Li", "properties": {}}, {"species": [{"element": "P", "occu": 1}], "abc": [0.08714167, 0.44988852, 0.031059790000000004], "xyz": [1.1378867769846501, 4.6079444756872805, 1.5389202226845402], "label": "P", "properties": {}}, {"species": [{"element": "P", "occu": 1}], "abc": [0.91169248, 0.89359164, 0.04930975], "xyz": [11.904784676129601, 9.15253552381896, 2.4431514653035], "label": "P", "properties": {}}, {"species": [{"element": "P", "occu": 1}], "abc": [0.40633764, 0.95526376, 0.03372061], "xyz": [5.3059142376678, 9.78420690911664, 1.67075594040586], "label": "P", "properties": {}}, {"species": [{"element": "P", "occu": 1}], "abc": [0.59050981, 0.39259838, 0.04835362], "xyz": [7.71081509544995, 4.02115514368932, 2.39577806733412], "label": "P", "properties": {}}, {"species": [{"element": "P", "occu": 1}], "abc": [0.08818392, 0.08254177, 0.13368050999999997], "xyz": [1.1514963680484, 0.84542698063278, 6.623471704663259], "label": "P", "properties": {}}, {"species": [{"element": "P", "occu": 1}], "abc": [0.91151193, 0.51986166, 0.15128665000000002], "xyz": [11.90242707318735, 5.32463834444724, 7.495803581002901], "label": "P", "properties": {}}, {"species": [{"element": "P", "occu": 1}], "abc": [0.41179345, 0.58372522, 0.13334547000000002], "xyz": [5.37715563178775, 5.9787553654810806, 6.606871469072221], "label": "P", "properties": {}}, {"species": [{"element": "P", "occu": 1}], "abc": [0.5893892, 0.02050521, 0.15205755999999998], "xyz": [7.696182287734, 0.21002284997693998, 7.53399987881656], "label": "P", "properties": {}}, {"species": [{"element": "P", "occu": 1}], "abc": [0.08962402, 0.71640325, 0.2337745], "xyz": [1.1703010426379, 7.3376986774455, 11.582831229637], "label": "P", "properties": {}}, {"species": [{"element": "P", "occu": 1}], "abc": [0.91213826, 0.14853023, 0.25191705999999997], "xyz": [11.9106056245627, 1.5213081071752201, 12.481741121663559], "label": "P", "properties": {}}, {"species": [{"element": "P", "occu": 1}], "abc": [0.41199756, 0.21695261, 0.23394887999999997], "xyz": [5.3798208787362, 2.22211845000054, 11.591471240030879], "label": "P", "properties": {}}, {"species": [{"element": "P", "occu": 1}], "abc": [0.58997119, 0.64930438, 0.25214432], "xyz": [7.70378185204505, 6.6504442719733206, 12.49300117879232], "label": "P", "properties": {}}, {"species": [{"element": "P", "occu": 1}], "abc": [0.08925232, 0.34472977, 0.33373737], "xyz": [1.1654474230664, 3.5308650224647797, 16.53569414856162], "label": "P", "properties": {}}, {"species": [{"element": "P", "occu": 1}], "abc": [0.91208753, 0.78184703, 0.35270507], "xyz": [11.90994319754935, 8.00800096593042, 17.47548727362182], "label": "P", "properties": {}}, {"species": [{"element": "P", "occu": 1}], "abc": [0.41158075, 0.84573053, 0.33446997], "xyz": [5.37437821752125, 8.66232222069942, 16.57199229980922], "label": "P", "properties": {}}, {"species": [{"element": "P", "occu": 1}], "abc": [0.58828051, 0.28218066, 0.35213338], "xyz": [7.681705130126451, 2.89021114251324, 17.44716173432788], "label": "P", "properties": {}}, {"species": [{"element": "P", "occu": 1}], "abc": [0.09145121, 0.97230222, 0.43737357], "xyz": [1.1941602978029502, 9.95872187035908, 21.67055964450282], "label": "P", "properties": {}}, {"species": [{"element": "P", "occu": 1}], "abc": [0.90610386, 0.40837752, 0.45206469], "xyz": [11.8318090629747, 4.18277162813328, 22.39846094911194], "label": "P", "properties": {}}, {"species": [{"element": "P", "occu": 1}], "abc": [0.41192329, 0.47181977, 0.4363529], "xyz": [5.37885106887455, 4.83257341772478, 21.6199884814754], "label": "P", "properties": {}}, {"species": [{"element": "P", "occu": 1}], "abc": [0.58677226, 0.91559906, 0.4545282], "xyz": [7.662010559992701, 9.377944630530841, 22.520520543133202], "label": "P", "properties": {}}, {"species": [{"element": "S", "occu": 1}], "abc": [0.13677601, 0.26621494, 0.02162978], "xyz": [1.78600677709895, 2.7266836284651603, 1.0716912720342802], "label": "S", "properties": {}}, {"species": [{"element": "S", "occu": 1}], "abc": [0.66128827, 0.30618623, 0.015223809999999997], "xyz": [8.63503279439165, 3.13608612875922, 0.7542945098890599], "label": "S", "properties": {}}, {"species": [{"element": "S", "occu": 1}], "abc": [0.3508109, 0.77394939, 0.027481779999999997], "xyz": [4.5808518970555, 7.92711006742746, 1.36164046818628], "label": "S", "properties": {}}, {"species": [{"element": "S", "occu": 1}], "abc": [0.84790373, 0.80281809, 0.016902639999999997], "xyz": [11.071837876448349, 8.22279524446926, 0.8374755435486398], "label": "S", "properties": {}}, {"species": [{"element": "S", "occu": 1}], "abc": [0.0625171, 0.9325726, 0.041589360000000006], "xyz": [0.8163417275045001, 9.5517946542564, 2.0606291012433604], "label": "S", "properties": {}}, {"species": [{"element": "S", "occu": 1}], "abc": [0.93933292, 0.41242952, 0.04787489], "xyz": [12.2657106394034, 4.22427388966128, 2.37205841957714], "label": "S", "properties": {}}, {"species": [{"element": "S", "occu": 1}], "abc": [0.44020011, 0.4226606, 0.03729755], "xyz": [5.74808681536845, 4.3290648466884, 1.8479826795863001], "label": "S", "properties": {}}, {"species": [{"element": "S", "occu": 1}], "abc": [0.55915561, 0.92642543, 0.04664037], "xyz": [7.30139524404095, 9.48883279418802, 2.3108916250396203], "label": "S", "properties": {}}, {"species": [{"element": "S", "occu": 1}], "abc": [0.08520609, 0.5724673, 0.00010000000000000286], "xyz": [1.11261217658055, 5.8634470880622, 0.0049547026000001425], "label": "S", "properties": {}}, {"species": [{"element": "S", "occu": 1}], "abc": [0.39029321, 0.06963482, 0.00036168999999999785], "xyz": [5.09640775539295, 0.71322865525548, 0.017920663833939893], "label": "S", "properties": {}}, {"species": [{"element": "S", "occu": 1}], "abc": [0.15321439, 0.90450892, 0.12478362999999999], "xyz": [2.0006574171090503, 9.26435482533288, 6.18265775998438], "label": "S", "properties": {}}, {"species": [{"element": "S", "occu": 1}], "abc": [0.84669732, 0.077914, 0.05745014], "xyz": [11.0560847013414, 0.7980274443959999, 2.84648358028364], "label": "S", "properties": {}}, {"species": [{"element": "S", "occu": 1}], "abc": [0.34361236, 0.05349467, 0.0666095], "xyz": [4.4868541175822, 0.54791455693338, 3.300302628347], "label": "S", "properties": {}}, {"species": [{"element": "S", "occu": 1}], "abc": [0.65048376, 0.94047652, 0.11757872000000001], "xyz": [8.4939486372852, 9.63274987511928, 5.825675896886721], "label": "S", "properties": {}}, {"species": [{"element": "S", "occu": 1}], "abc": [0.65373761, 0.57334266, 0.058054259999999996], "xyz": [8.53643706893095, 5.87241288758124, 2.87641592963076], "label": "S", "properties": {}}, {"species": [{"element": "S", "occu": 1}], "abc": [0.35221165, 0.40165828, 0.12602133999999998], "xyz": [4.59914274347675, 4.11395039028792, 6.243982609534839], "label": "S", "properties": {}}, {"species": [{"element": "S", "occu": 1}], "abc": [0.84680985, 0.42259748, 0.11929642], "xyz": [11.05755410626575, 4.32841834551672, 5.910782823446921], "label": "S", "properties": {}}, {"species": [{"element": "S", "occu": 1}], "abc": [0.15885953, 0.53581413, 0.06431854], "xyz": [2.07437106248935, 5.4880301465098205, 3.18679237366204], "label": "S", "properties": {}}, {"species": [{"element": "S", "occu": 1}], "abc": [0.06194491, 0.55726186, 0.13934853000000003], "xyz": [0.80887013056445, 5.70770667653004, 6.904305238971782], "label": "S", "properties": {}}, {"species": [{"element": "S", "occu": 1}], "abc": [0.93658809, 0.04169016, 0.14321361], "xyz": [12.22986893747055, 0.42700787844624, 7.09580845822386], "label": "S", "properties": {}}, {"species": [{"element": "S", "occu": 1}], "abc": [0.43898137, 0.06550153, 0.14179212000000002], "xyz": [5.73217263641615, 0.67089378789342, 7.025377856235122], "label": "S", "properties": {}}, {"species": [{"element": "S", "occu": 1}], "abc": [0.56387545, 0.55061025, 0.14403326], "xyz": [7.363026419177749, 5.6395781331435, 7.13641967808476], "label": "S", "properties": {}}, {"species": [{"element": "S", "occu": 1}], "abc": [0.10997615, 0.2058203, 0.10136461000000001], "xyz": [1.4360570192042499, 2.1080967222042, 5.02231496714986], "label": "S", "properties": {}}, {"species": [{"element": "S", "occu": 1}], "abc": [0.88385582, 0.78259649, 0.0833899], "xyz": [11.5412964926989, 8.01567724552686, 4.131721543437401], "label": "S", "properties": {}}, {"species": [{"element": "S", "occu": 1}], "abc": [0.38826196, 0.69748352, 0.09993178000000001], "xyz": [5.0698839061742005, 7.14391497001728, 4.951322501886281], "label": "S", "properties": {}}, {"species": [{"element": "S", "occu": 1}], "abc": [0.61087992, 0.27658854, 0.08145073], "xyz": [7.9768058529684005, 2.83293433433556, 4.03564143702898], "label": "S", "properties": {}}, {"species": [{"element": "S", "occu": 1}], "abc": [0.15549093, 0.54295726, 0.22196897999999998], "xyz": [2.03038423739235, 5.56119304122564, 10.99790282325348], "label": "S", "properties": {}}, {"species": [{"element": "S", "occu": 1}], "abc": [0.85038597, 0.70118665, 0.15886741999999998], "xyz": [11.10425070573315, 7.1818439605731, 7.87140818929292], "label": "S", "properties": {}}, {"species": [{"element": "S", "occu": 1}], "abc": [0.34765017, 0.68056538, 0.16565189000000002], "xyz": [4.53957941659215, 6.97063237602732, 8.207558500779141], "label": "S", "properties": {}}, {"species": [{"element": "S", "occu": 1}], "abc": [0.65122776, 0.56816349, 0.21776694999999996], "xyz": [8.503663711165201, 5.81936568426486, 10.789704733590698], "label": "S", "properties": {}}, {"species": [{"element": "S", "occu": 1}], "abc": [0.65526181, 0.19439472, 0.16356242], "xyz": [8.55633991248995, 1.99107120165408, 8.10403147636292], "label": "S", "properties": {}}, {"species": [{"element": "S", "occu": 1}], "abc": [0.35035004, 0.03591592, 0.22656220999999999], "xyz": [4.5748340355658, 0.36786572183087995, 11.22548370948746], "label": "S", "properties": {}}, {"species": [{"element": "S", "occu": 1}], "abc": [0.84603892, 0.0499553, 0.22012648], "xyz": [11.0474873832734, 0.5116628640942, 10.906612427848481], "label": "S", "properties": {}}, {"species": [{"element": "S", "occu": 1}], "abc": [0.14871056, 0.17002634, 0.16736409000000002], "xyz": [1.9418468778712, 1.74148016518476, 8.292392918696342], "label": "S", "properties": {}}, {"species": [{"element": "S", "occu": 1}], "abc": [0.06191063, 0.18686859, 0.23987524], "xyz": [0.80842250592385, 1.91398546237626, 11.88510475303624], "label": "S", "properties": {}}, {"species": [{"element": "S", "occu": 1}], "abc": [0.93950727, 0.66939675, 0.24412895], "xyz": [12.26798728339665, 6.8562386437545, 12.095863433002702], "label": "S", "properties": {}}, {"species": [{"element": "S", "occu": 1}], "abc": [0.43982195, 0.69574188, 0.24177051], "xyz": [5.74314884179525, 7.1260763720983205, 11.97900974500326], "label": "S", "properties": {}}, {"species": [{"element": "S", "occu": 1}], "abc": [0.56200614, 0.17933757, 0.24588886], "xyz": [7.3386171654753, 1.83684963769398, 12.183061739530359], "label": "S", "properties": {}}, {"species": [{"element": "S", "occu": 1}], "abc": [0.10629697, 0.84455898, 0.20234138000000002], "xyz": [1.3880146730781502, 8.65032272057772, 10.02541361573588], "label": "S", "properties": {}}, {"species": [{"element": "S", "occu": 1}], "abc": [0.89534266, 0.40560351, 0.18498055000000002], "xyz": [11.6912904433007, 4.1543590692731405, 9.165236120344302], "label": "S", "properties": {}}, {"species": [{"element": "S", "occu": 1}], "abc": [0.39566709, 0.33120301, 0.20026367], "xyz": [5.16657931617555, 3.39231834646614, 9.922469264345422], "label": "S", "properties": {}}, {"species": [{"element": "S", "occu": 1}], "abc": [0.60711342, 0.8921888, 0.18342823000000003], "xyz": [7.9276232914509, 9.1381670557632, 9.088323280943982], "label": "S", "properties": {}}, {"species": [{"element": "S", "occu": 1}], "abc": [0.15527945, 0.17102328, 0.32218715], "xyz": [2.02762275375775, 1.75169123739792, 15.963415097915899], "label": "S", "properties": {}}, {"species": [{"element": "S", "occu": 1}], "abc": [0.85006266, 0.32889161, 0.25965632], "xyz": [11.1000289577007, 3.36864403074654, 12.86519843810432], "label": "S", "properties": {}}, {"species": [{"element": "S", "occu": 1}], "abc": [0.34614103, 0.31629893, 0.26566456], "xyz": [4.5198732249318505, 3.23966458881702, 13.16288886159856], "label": "S", "properties": {}}, {"species": [{"element": "S", "occu": 1}], "abc": [0.64816193, 0.19416162, 0.31843964999999996], "xyz": [8.46363042493735, 1.98868369495068, 15.777737617980899], "label": "S", "properties": {}}, {"species": [{"element": "S", "occu": 1}], "abc": [0.65564125, 0.82282816, 0.26397269], "xyz": [8.56129460016875, 8.42774666557824, 13.079061734719941], "label": "S", "properties": {}}, {"species": [{"element": "S", "occu": 1}], "abc": [0.35032689, 0.66455316, 0.32686142], "xyz": [4.57453174529655, 6.8066285897282395, 16.19501127513692], "label": "S", "properties": {}}, {"species": [{"element": "S", "occu": 1}], "abc": [0.84788348, 0.6840354, 0.32055288], "xyz": [11.071573454074601, 7.0061737574556, 15.88244187973488], "label": "S", "properties": {}}, {"species": [{"element": "S", "occu": 1}], "abc": [0.15065654, 0.7979184, 0.26812467], "xyz": [1.9672572803833002, 8.1726105910176, 13.284779995731421], "label": "S", "properties": {}}, {"species": [{"element": "S", "occu": 1}], "abc": [0.06407506, 0.8146238, 0.34183614], "xyz": [0.8366854055987001, 8.3437142138532, 16.93696411631964], "label": "S", "properties": {}}, {"species": [{"element": "S", "occu": 1}], "abc": [0.93892031, 0.29965706, 0.34406916], "xyz": [12.260322821347449, 3.0692116665428397, 17.04760361631816], "label": "S", "properties": {}}, {"species": [{"element": "S", "occu": 1}], "abc": [0.43679708, 0.32383063, 0.34259201], "xyz": [5.7036504069466005, 3.3168073783408203, 16.97441522686226], "label": "S", "properties": {}}, {"species": [{"element": "S", "occu": 1}], "abc": [0.56194233, 0.80778494, 0.34640767], "xyz": [7.337783941195351, 8.27366777844516, 17.163469832089422], "label": "S", "properties": {}}, {"species": [{"element": "S", "occu": 1}], "abc": [0.10678135, 0.47329293, 0.30240371], "xyz": [1.39433965625825, 4.84766213233302, 14.98320448186646], "label": "S", "properties": {}}, {"species": [{"element": "S", "occu": 1}], "abc": [0.89690684, 0.03300138, 0.28548262999999996], "xyz": [11.7117153415018, 0.33801379653131997, 14.144815291158379], "label": "S", "properties": {}}, {"species": [{"element": "S", "occu": 1}], "abc": [0.39540073, 0.96026087, 0.30081047], "xyz": [5.1631012152633495, 9.83538937854018, 14.90426417816222], "label": "S", "properties": {}}, {"species": [{"element": "S", "occu": 1}], "abc": [0.60701105, 0.52097052, 0.28354414], "xyz": [7.92628655473975, 5.33599574763528, 14.04876887672764], "label": "S", "properties": {}}, {"species": [{"element": "S", "occu": 1}], "abc": [0.15493303, 0.79186235, 0.42779745999999996], "xyz": [2.02309923777185, 8.1105820197129, 21.19609187335396], "label": "S", "properties": {}}, {"species": [{"element": "S", "occu": 1}], "abc": [0.85261709, 0.96418588, 0.35979363], "xyz": [11.13338443642555, 9.875590955914321, 17.82670434024438], "label": "S", "properties": {}}, {"species": [{"element": "S", "occu": 1}], "abc": [0.34674951, 0.94312099, 0.36642010999999997], "xyz": [4.52781869288145, 9.65983563166986, 18.15502671709286], "label": "S", "properties": {}}, {"species": [{"element": "S", "occu": 1}], "abc": [0.65902058, 0.83060865, 0.42123193999999997], "xyz": [8.6054215364791, 8.507437665281099, 20.87078988321044], "label": "S", "properties": {}}, {"species": [{"element": "S", "occu": 1}], "abc": [0.65364818, 0.46018426, 0.36092156999999997], "xyz": [8.535269301381101, 4.71339770720364, 17.88259041275082], "label": "S", "properties": {}}, {"species": [{"element": "S", "occu": 1}], "abc": [0.34681211, 0.28760916, 0.42826560999999996], "xyz": [4.528636117108451, 2.9458120869122397, 21.219287313575858], "label": "S", "properties": {}}, {"species": [{"element": "S", "occu": 1}], "abc": [0.84317456, 0.30938158, 0.41930576999999997], "xyz": [11.0100848711512, 3.16881422633412, 20.77535388814002], "label": "S", "properties": {}}, {"species": [{"element": "S", "occu": 1}], "abc": [0.15029715, 0.4242422, 0.36826232999999997], "xyz": [1.96256440349925, 4.345264248670801, 18.24630323933058], "label": "S", "properties": {}}, {"species": [{"element": "S", "occu": 1}], "abc": [0.05823421, 0.43954884, 0.43892234999999996], "xyz": [0.76041619958795, 4.50204119249976, 21.7472970874311], "label": "S", "properties": {}}, {"species": [{"element": "S", "occu": 1}], "abc": [0.94111696, 0.94080284, 0.44846716999999997], "xyz": [12.2890064463992, 9.63609217965576, 22.22021453213642], "label": "S", "properties": {}}, {"species": [{"element": "S", "occu": 1}], "abc": [0.43910549, 0.9536063, 0.43773460999999997], "xyz": [5.73379338234355, 9.7672305176082, 21.68844810276986], "label": "S", "properties": {}}, {"species": [{"element": "S", "occu": 1}], "abc": [0.56286237, 0.43306437, 0.44395457], "xyz": [7.34979772691115, 4.43562456618918, 21.99662862260882], "label": "S", "properties": {}}, {"species": [{"element": "S", "occu": 1}], "abc": [0.1106543, 0.08818375, 0.40419262], "xyz": [1.4449122306985, 0.9032144755725001, 20.026542252148122], "label": "S", "properties": {}}, {"species": [{"element": "S", "occu": 1}], "abc": [0.88871366, 0.66893559, 0.38623336999999996], "xyz": [11.6047296573457, 6.85151525211426, 19.13671482545762], "label": "S", "properties": {}}, {"species": [{"element": "S", "occu": 1}], "abc": [0.38400485, 0.58297093, 0.40229892], "xyz": [5.01429501079075, 5.97102961502502, 19.93271504901192], "label": "S", "properties": {}}, {"species": [{"element": "S", "occu": 1}], "abc": [0.60994436, 0.15908621, 0.38446454999999996], "xyz": [7.964589408722199, 1.62942682451094, 19.0490750549283], "label": "S", "properties": {}}, {"species": [{"element": "S", "occu": 1}], "abc": [0.84937459, 0.58898575, 0.45851694], "xyz": [11.09104421188805, 6.0326358916005, 22.71815074762044], "label": "S", "properties": {}}, {"species": [{"element": "S", "occu": 1}], "abc": [0.34826776, 0.56237565, 0.46880303999999995], "xyz": [4.5476438419652, 5.7600842308191, 23.227796411759037], "label": "S", "properties": {}}, {"species": [{"element": "S", "occu": 1}], "abc": [0.63632333, 0.09893118, 0.46426884999999996], "xyz": [8.30904322919035, 1.0132941030685199, 23.0031407819401], "label": "S", "properties": {}}, {"species": [{"element": "S", "occu": 1}], "abc": [0.16159325, 0.06052602, 0.47035910999999997], "xyz": [2.11006769120875, 0.61993255461228, 23.30489505250686], "label": "S", "properties": {}}, {"species": [{"element": "S", "occu": 1}], "abc": [0.89138097, 0.29392187, 0.48545399], "xyz": [11.639559111258151, 3.0104694761941797, 24.05280146433374], "label": "S", "properties": {}}, {"species": [{"element": "S", "occu": 1}], "abc": [0.58432742, 0.7915908, 0.48523737], "xyz": [7.630086095980901, 8.107800692191201, 24.042068587561623], "label": "S", "properties": {}}]}, "formula": "(Li3PS4)20.0", "bandgap": 2.1834, "slab_thickness": 24.04784676173374}