{"miller": "111_0.12", "final_energy": -698.32227106, "gamma": 0.01847215985862559, "work_function": 5.163667804209852, "ionization_potentail": -5.501267804209852, "electron_affinity": -3.1465678042098517, "is_stochiometric": true, "incar_parameters": {"SYSTEM": "unknown system", "LCOMPAT": false, "PREC": "normal", "ENMAX": 520.0, "ENAUG": 628.945, "EDIFF": 1e-05, "IALGO": 38, "IWAVPR": 11, "NBANDS": 462, "NBANDSLOW": -1, "NBANDSHIGH": -1, "NELECT": 760.0, "TURBO": 0, "IRESTART": 0, "NREBOOT": 0, "NMIN": 0, "EREF": 0.0, "ISMEAR": 0, "SIGMA": 0.05, "KSPACING": 0.5, "KGAMMA": true, "KBLOWUP": true, "LREAL": true, "ROPT": [-0.0005, -0.0005, -0.0005], "LMAXPAW": -100, "LMAXMIX": 2, "NLSPLINE": false, "ISTART": 0, "ICHARG": 2, "INIWAV": 1, "ISPIN": 1, "LNONCOLLINEAR": false, "MAGMOM": [0.6, 0.6, 0.6, 0.6, 0.6, 0.6, 0.6, 0.6, 0.6, 0.6, 0.6, 0.6, 0.6, 0.6, 0.6, 0.6, 0.6, 0.6, 0.6, 0.6, 0.6, 0.6, 0.6, 0.6, 0.6, 0.6, 0.6, 0.6, 0.6, 0.6, 0.6, 0.6, 0.6, 0.6, 0.6, 0.6, 0.6, 0.6, 0.6, 0.6, 0.6, 0.6, 0.6, 0.6, 0.6, 0.6, 0.6, 0.6, 0.6, 0.6, 0.6, 0.6, 0.6, 0.6, 0.6, 0.6, 0.6, 0.6, 0.6, 0.6, 0.6, 0.6, 0.6, 0.6, 0.6, 0.6, 0.6, 0.6, 0.6, 0.6, 0.6, 0.6, 0.6, 0.6, 0.6, 0.6, 0.6, 0.6, 0.6, 0.6, 0.6, 0.6, 0.6, 0.6, 0.6, 0.6, 0.6, 0.6, 0.6, 0.6, 0.6, 0.6, 0.6, 0.6, 0.6, 0.6, 0.6, 0.6, 0.6, 0.6, 0.6, 0.6, 0.6, 0.6, 0.6, 0.6, 0.6, 0.6, 0.6, 0.6, 0.6, 0.6, 0.6, 0.6, 0.6, 0.6, 0.6, 0.6, 0.6, 0.6, 0.6, 0.6, 0.6, 0.6, 0.6, 0.6, 0.6, 0.6, 0.6, 0.6, 0.6, 0.6, 0.6, 0.6, 0.6, 0.6, 0.6, 0.6, 0.6, 0.6, 0.6, 0.6, 0.6, 0.6, 0.6, 0.6, 0.6, 0.6, 0.6, 0.6, 0.6, 0.6, 0.6, 0.6, 0.6, 0.6, 0.6, 0.6, 0.6, 0.6], "NUPDOWN": -1.0, "LSORBIT": false, "SAXIS": [0.0, 0.0, 1.0], "LSPIRAL": false, "QSPIRAL": [0.0, 0.0, 0.0], "LZEROZ": false, "LASPH": false, "LMETAGGA": false, "NELM": 100, "NELMDL": -5, "NELMIN": 6, "ENINI": 520.0, "LDIAG": true, "LSUBROT": false, "WEIMIN": 0.001, "EBREAK": 1e-08, "DEPER": 0.3, "NRMM": 4, "TIME": 0.4, "AMIX": 0.4, "BMIX": 1.0, "AMIN": 0.1, "AMIX_MAG": 1.6, "BMIX_MAG": 1.0, "IMIX": 4, "MIXFIRST": false, "MAXMIX": -45, "WC": 100.0, "INIMIX": 1, "MIXPRE": 1, "MREMOVE": 5, "LDIPOL": false, "LMONO": false, "IDIPOL": 0, "EPSILON": 1.0, "DIPOL": [-100.0, -100.0, -100.0], "EFIELD": 0.0, "NGX": 60, "NGY": 84, "NGZ": 270, "NGXF": 120, "NGYF": 168, "NGZF": 540, "ADDGRID": false, "NSW": 150, "IBRION": 2, "MDALGO": 0, "ISIF": 2, "PSTRESS": 0.0, "EDIFFG": -0.01, "NFREE": 1, "POTIM": 0.5, "SMASS": -3.0, "SCALEE": 1.0, "TEBEG": 0.0001, "TEEND": 0.0001, "NBLOCK": 1, "KBLOCK": 150, "NPACO": 256, "APACO": 10.0, "ISYM": 0, "SYMPREC": 1e-05, "LORBIT": 11, "RWIGS": [-1.0, -1.0, -1.0], "NEDOS": 301, "EMIN": 10.0, "EMAX": -10.0, "EFERMI": 0.0, "NWRITE": 2, "LWAVE": false, "LDOWNSAMPLE": false, "LCHARG": false, "LPARD": false, "LVTOT": false, "LVHAR": false, "LELF": false, "LOPTICS": false, "STM": [0.0, 0.0, 0.0, 0.0, 0.0, 0.0, 0.0], "NPAR": 2, "NSIM": 4, "NBLK": -1, "LPLANE": true, "LSCALAPACK": true, "LSCAAWARE": false, "LSCALU": false, "LASYNC": false, "LORBITALREAL": false, "IDIOT": 3, "PHON_NSTRUCT": -1, "LMUSIC": false, "POMASS": [7.01, 30.974, 32.066], "DARWINR": [0.0, 0.0, 0.0], "DARWINV": [1.0, 1.0, 1.0], "LCORR": true, "GGA_COMPAT": true, "LBERRY": false, "ICORELEVEL": 0, "LDAU": false, "I_CONSTRAINED_M": 0, "GGA": "--", "VOSKOWN": 0, "LHFCALC": false, "PRECFOCK": "", "LSYMGRAD": false, "LHFONE": false, "LRHFCALC": false, "LTHOMAS": false, "LMODELHF": false, "LFOCKACE": false, "ENCUT4O": -1.0, "EXXOEP": 0, "FOURORBIT": 0, "AEXX": 0.0, "HFALPHA": 0.0, "MCALPHA": 0.0, "ALDAX": 1.0, "AGGAX": 1.0, "ALDAC": 1.0, "AGGAC": 1.0, "NKREDX": 1, "NKREDY": 1, "NKREDZ": 1, "SHIFTRED": false, "ODDONLY": false, "EVENONLY": false, "LMAXFOCK": 0, "NMAXFOCKAE": 0, "LFOCKAEDFT": false, "HFSCREEN": 0.0, "HFSCREENC": 0.0, "NBANDSGWLOW": 0, "LUSE_VDW": false, "Zab_VDW": -0.8491, "PARAM1": 0.1234, "PARAM2": 1.0, "PARAM3": 0.0, "MODEL_GW": 0, "MODEL_EPS0": 24.84988185, "MODEL_ALPHA": 1.0, "LEPSILON": false, "LRPA": false, "LNABLA": false, "LVEL": false, "CSHIFT": 0.1, "OMEGAMAX": -1.0, "DEG_THRESHOLD": 0.002, "RTIME": -0.1, "WPLASMAI": 0.0, "DFIELD": [0.0, 0.0, 0.0], "WPLASMA": [0.0, 0.0, 0.0, 0.0, 0.0, 0.0, 0.0, 0.0, 0.0], "NUCIND": false, "MAGPOS": [0.0, 0.0, 0.0], "LNICSALL": true, "ORBITALMAG": false, "LMAGBLOCH": false, "LCHIMAG": false, "LGAUGE": true, "MAGATOM": 0, "MAGDIPOL": [0.0, 0.0, 0.0], "AVECCONST": [0.0, 0.0, 0.0], "LFINITE_TEMPERATURE": false, "LADDER": false, "LRPAFORCE": false, "LFXC": false, "LHARTREE": true, "IBSE": 0, "KPOINT": [-1, 0, 0, 0], "LTCTC": false, "LTCTE": false, "LTETE": false, "LTRIPLET": false, "LFXCEPS": false, "LFXHEG": false, "NATURALO": 2, "LHOLEGF": false, "L2ORDER": false, "LDMP1": false, "LMP2LT": false, "LSMP2LT": false, "LGWLF": false, "ENCUTGW": -2.0, "ENCUTGWSOFT": -2.0, "ENCUTLF": -1.0, "LESF_SPLINES": false, "LMAXMP2": -1, "SCISSOR": 0.0, "NOMEGA": 0, "NOMEGAR": 0, "NBANDSGW": -1, "NBANDSO": -1, "NBANDSV": -1, "NELMGW": 1, "NELMHF": 1, "DIM": 3, "IESPILON": 4, "ANTIRES": 0, "OMEGAMIN": -30.0, "OMEGATL": -200.0, "OMEGAGRID": 0, "LSELFENERGY": false, "LSPECTRAL": false, "LSPECTRALGW": false, "LSINGLES": false, "LFERMIGW": false, "ODDONLYGW": false, "EVENONLYGW": false, "NKREDLFX": 1, "NKREDLFY": 1, "NKREDLFZ": 1, "MAXMEM": 2800, "TELESCOPE": 0, "NTAUPAR": -1, "NOMEGAPAR": -1, "DAMP_NEWTON": 0.80000001, "LAMBDA": 1.0, "OFIELD_KAPPA": 0.0, "OFIELD_K": [0.0, 0.0, 0.0], "OFIELD_Q6_NEAR": 0.0, "OFIELD_Q6_FAR": 0.0, "OFIELD_A": 0.0, "KPOINTS_OPT_MODE": 1, "LKPOINTS_OPT": false, "@module": "pymatgen.io.vasp.inputs", "@class": "Incar"}, "relaxed_structures": {"@module": "pymatgen.core.structure", "@class": "Structure", "charge": 0, "lattice": {"matrix": [[10.242414, 0.0, 0.0], [3.825952, 13.966305, 0.0], [0.0, 0.0, 46.324337]], "a": 10.242414, "b": 14.48086958919695, "c": 46.324337, "alpha": 90.0, "beta": 90.0, "gamma": 74.68014200345522, "volume": 6626.635160603587}, "sites": [{"species": [{"element": "Li", "occu": 1}], "abc": [0.74755604, 0.74358442, 0.05367799000000001], "xyz": [10.5016967487484, 10.3851268029681, 2.4865972982426303], "label": "Li", "properties": {}}, {"species": [{"element": "Li", "occu": 1}], "abc": [0.73458986, 0.0257768, 0.07003951], "xyz": [7.62259426583564, 0.360006650724, 3.24453386455487], "label": "Li", "properties": {}}, {"species": [{"element": "Li", "occu": 1}], "abc": [0.71368246, 0.26354302, 0.03733652], "xyz": [8.31813416431348, 3.6807221979411002, 1.7295895348872399], "label": "Li", "properties": {}}, {"species": [{"element": "Li", "occu": 1}], "abc": [0.20227982, 0.65242873, 0.032673820000000006], "xyz": [4.56799466468644, 9.11201863394265, 1.5135930487573404], "label": "Li", "properties": {}}, {"species": [{"element": "Li", "occu": 1}], "abc": [0.4985709, 0.72330082, 0.02165998], "xyz": [7.8738837850332395, 10.1018398588701, 1.00338421293326], "label": "Li", "properties": {}}, {"species": [{"element": "Li", "occu": 1}], "abc": [0.81819646, 0.42760404, 0.029836120000000004], "xyz": [10.01629940870052, 5.9720484418722, 1.3821384776524401], "label": "Li", "properties": {}}, {"species": [{"element": "Li", "occu": 1}], "abc": [0.28812483, 0.38902968, 0.06977582], "xyz": [4.43950267479498, 5.4333071649324, 3.23231860013134], "label": "Li", "properties": {}}, {"species": [{"element": "Li", "occu": 1}], "abc": [0.23812314, 0.88885661, 0.07721294000000001], "xyz": [5.83967850760268, 12.41404251652605, 3.5768382533207803], "label": "Li", "properties": {}}, {"species": [{"element": "Li", "occu": 1}], "abc": [0.3840226, 0.61265558, 0.15570665], "xyz": [6.27730929616856, 8.5565346902319, 7.2130073277410505], "label": "Li", "properties": {}}, {"species": [{"element": "Li", "occu": 1}], "abc": [0.39752942, 0.91498223, 0.17366213], "xyz": [7.57233898965284, 12.77892089376015, 8.04478303425781], "label": "Li", "properties": {}}, {"species": [{"element": "Li", "occu": 1}], "abc": [0.61679729, 0.52175118, 0.09159778], "xyz": [8.31368816888142, 7.2869361139899, 4.2432064291718605], "label": "Li", "properties": {}}, {"species": [{"element": "Li", "occu": 1}], "abc": [0.45362535, 0.12189124, 0.1339255], "xyz": [5.1125686690553795, 1.7023702346682, 6.2040099948935], "label": "Li", "properties": {}}, {"species": [{"element": "Li", "occu": 1}], "abc": [0.16328798, 0.18229952, 0.08443499], "xyz": [2.36993230552676, 2.5460506976736, 3.91139493135163], "label": "Li", "properties": {}}, {"species": [{"element": "Li", "occu": 1}], "abc": [0.92942078, 0.46744255, 0.134938], "xyz": [11.30792516802052, 6.528445223277751, 6.250913386106], "label": "Li", "properties": {}}, {"species": [{"element": "Li", "occu": 1}], "abc": [0.00505169, 0.99556358, 0.11773776000000001], "xyz": [3.8607199704078203, 13.9043446051719, 5.454123671865121], "label": "Li", "properties": {}}, {"species": [{"element": "Li", "occu": 1}], "abc": [0.09617111, 0.64819352, 0.11361346000000001], "xyz": [3.46498161769058, 9.0528683993436, 5.263068208776021], "label": "Li", "properties": {}}, {"species": [{"element": "Li", "occu": 1}], "abc": [0.5891934, 0.82426939, 0.11097899000000001], "xyz": [9.18837785007688, 11.51199770290395, 5.14102813267963], "label": "Li", "properties": {}}, {"species": [{"element": "Li", "occu": 1}], "abc": [0.56201264, 0.30291553, 0.12559352999999998], "xyz": [6.91530640994752, 4.23061068121665, 5.818037008739609], "label": "Li", "properties": {}}, {"species": [{"element": "Li", "occu": 1}], "abc": [0.9349624, 0.2693316, 0.16358861], "xyz": [10.606721748916799, 3.761567271738, 7.578133899001569], "label": "Li", "properties": {}}, {"species": [{"element": "Li", "occu": 1}], "abc": [0.88504468, 0.7692398, 0.15385280999999998], "xyz": [12.00806857234712, 10.743437664939, 7.127129418836969], "label": "Li", "properties": {}}, {"species": [{"element": "Li", "occu": 1}], "abc": [0.0602688, 0.48311127, 0.25317172000000004], "xyz": [2.46565853056224, 6.74727934575735, 11.728012076149643], "label": "Li", "properties": {}}, {"species": [{"element": "Li", "occu": 1}], "abc": [0.06145241, 0.79368958, 0.27555337], "xyz": [3.6660392604979, 11.0849107496019, 12.76482717336569], "label": "Li", "properties": {}}, {"species": [{"element": "Li", "occu": 1}], "abc": [0.30635319, 0.38897501, 0.19520321], "xyz": [4.6259959196601805, 5.43254362703805, 9.04265928352177], "label": "Li", "properties": {}}, {"species": [{"element": "Li", "occu": 1}], "abc": [0.12896693, 0.00451737, 0.23380605000000002], "xyz": [1.33821593015526, 0.06309096721785, 10.830910252838851], "label": "Li", "properties": {}}, {"species": [{"element": "Li", "occu": 1}], "abc": [0.83591767, 0.06859609, 0.1902892], "xyz": [8.824260193783058, 0.95803391474745, 8.8150210282604], "label": "Li", "properties": {}}, {"species": [{"element": "Li", "occu": 1}], "abc": [0.61103353, 0.34046596, 0.23816908], "xyz": [7.561064802735341, 4.7550514394778, 11.03302472489996], "label": "Li", "properties": {}}, {"species": [{"element": "Li", "occu": 1}], "abc": [0.69001493, 0.86192164, 0.21598210999999998], "xyz": [10.365089401642301, 12.0378605103402, 10.00522804961107], "label": "Li", "properties": {}}, {"species": [{"element": "Li", "occu": 1}], "abc": [0.77201396, 0.53786593, 0.21050798999999998], "xyz": [9.9651358227148, 7.511999627488651, 9.751643069952628], "label": "Li", "properties": {}}, {"species": [{"element": "Li", "occu": 1}], "abc": [0.17750314, 0.7091995, 0.21606624], "xyz": [4.53142389160396, 9.9048965228475, 10.00912531608288], "label": "Li", "properties": {}}, {"species": [{"element": "Li", "occu": 1}], "abc": [0.23750526, 0.18084029, 0.22348421], "xyz": [3.1245134693037198, 2.5256706464284497, 10.35275785821877], "label": "Li", "properties": {}}, {"species": [{"element": "Li", "occu": 1}], "abc": [0.56069615, 0.13818805, 0.26445314000000003], "xyz": [6.2715829427797, 1.9299764536552502, 12.250616378068182], "label": "Li", "properties": {}}, {"species": [{"element": "Li", "occu": 1}], "abc": [0.56043832, 0.63811356, 0.26423618000000004], "xyz": [8.181633146013601, 8.9120886035958, 12.240565849912661], "label": "Li", "properties": {}}, {"species": [{"element": "Li", "occu": 1}], "abc": [0.72481511, 0.36176546, 0.35634321], "xyz": [8.80795371529346, 5.0525267528253, 16.507362947701772], "label": "Li", "properties": {}}, {"species": [{"element": "Li", "occu": 1}], "abc": [0.73794895, 0.66347423, 0.37348389000000004], "xyz": [10.09679921398226, 9.266283455820151, 17.301393584430933], "label": "Li", "properties": {}}, {"species": [{"element": "Li", "occu": 1}], "abc": [0.98919782, 0.27260705, 0.29568646000000004], "xyz": [11.17475508849908, 3.8073132054502503, 13.697479219377021], "label": "Li", "properties": {}}, {"species": [{"element": "Li", "occu": 1}], "abc": [0.81127259, 0.88788334, 0.33461067], "xyz": [11.70638877407194, 12.400449530858701, 15.50061744087579], "label": "Li", "properties": {}}, {"species": [{"element": "Li", "occu": 1}], "abc": [0.50981477, 0.93628249, 0.29115294], "xyz": [8.80390580283526, 13.07640682149945, 13.487466911100782], "label": "Li", "properties": {}}, {"species": [{"element": "Li", "occu": 1}], "abc": [0.28678681, 0.20717537, 0.33882187], "xyz": [3.73003225896158, 2.89347440590785, 15.69569848885019], "label": "Li", "properties": {}}, {"species": [{"element": "Li", "occu": 1}], "abc": [0.34914552, 0.73873844, 0.31861535], "xyz": [6.40247077408016, 10.3174463682642, 14.75964484677295], "label": "Li", "properties": {}}, {"species": [{"element": "Li", "occu": 1}], "abc": [0.42966316, 0.41423164, 0.31373656], "xyz": [5.9856183367895195, 5.7852854248902, 14.53363813466072], "label": "Li", "properties": {}}, {"species": [{"element": "Li", "occu": 1}], "abc": [0.94365438, 0.56754206, 0.31273045], "xyz": [11.83668751241444, 7.9264655102883, 14.48703075596165], "label": "Li", "properties": {}}, {"species": [{"element": "Li", "occu": 1}], "abc": [0.88418457, 0.09575561, 0.30637006], "xyz": [9.422540785942699, 1.33735205472105, 14.19238990615022], "label": "Li", "properties": {}}, {"species": [{"element": "Li", "occu": 1}], "abc": [0.18679221, 0.00796469, 0.36598076], "xyz": [1.94367566842982, 0.11123728977045, 16.95381606175612], "label": "Li", "properties": {}}, {"species": [{"element": "Li", "occu": 1}], "abc": [0.23894072, 0.50551322, 0.37539554], "xyz": [4.381399090783519, 7.0601518120521, 17.389949503256982], "label": "Li", "properties": {}}, {"species": [{"element": "Li", "occu": 1}], "abc": [0.38662802, 0.25026449, 0.45911848], "xyz": [4.91750417088476, 3.4952701980094503, 21.26835919044776], "label": "Li", "properties": {}}, {"species": [{"element": "Li", "occu": 1}], "abc": [0.37714954, 0.53111899, 0.47540892], "xyz": [5.89495749061804, 7.417769805631949, 22.02300302288604], "label": "Li", "properties": {}}, {"species": [{"element": "Li", "occu": 1}], "abc": [0.66843833, 0.15480522, 0.39579326000000004], "xyz": [7.43869945039806, 2.1620569181121, 18.334860358568623], "label": "Li", "properties": {}}, {"species": [{"element": "Li", "occu": 1}], "abc": [0.50462426, 0.75442954, 0.43803804], "xyz": [8.05498179278572, 10.5365930566497, 20.29182178377948], "label": "Li", "properties": {}}, {"species": [{"element": "Li", "occu": 1}], "abc": [0.19272481, 0.80833317, 0.39422004], "xyz": [5.06661120051918, 11.289427593836852, 18.26198198511348], "label": "Li", "properties": {}}, {"species": [{"element": "Li", "occu": 1}], "abc": [0.9598145, 0.09107758, 0.44567599], "xyz": [10.17927592155916, 1.2720172609419, 20.645644753568632], "label": "Li", "properties": {}}, {"species": [{"element": "Li", "occu": 1}], "abc": [0.02675233, 0.62622614, 0.41596986], "xyz": [2.6699195921099, 8.7460652702127, 19.26952797648282], "label": "Li", "properties": {}}, {"species": [{"element": "Li", "occu": 1}], "abc": [0.11496814, 0.28151303, 0.41193248000000005], "xyz": [2.25460662684452, 3.93169683845415, 19.082499024765763], "label": "Li", "properties": {}}, {"species": [{"element": "Li", "occu": 1}], "abc": [0.53281939, 0.45219574, 0.41836102000000003], "xyz": [7.18743597545194, 6.315503624540701, 19.380296878143742], "label": "Li", "properties": {}}, {"species": [{"element": "Li", "occu": 1}], "abc": [0.56037679, 0.97158126, 0.4046776], "xyz": [9.456834344030579, 13.5694002094443, 18.7464215187512], "label": "Li", "properties": {}}, {"species": [{"element": "Li", "occu": 1}], "abc": [0.83348387, 0.88749934, 0.45997374], "xyz": [11.93241673373386, 12.3950864697387, 21.30797854291038], "label": "Li", "properties": {}}, {"species": [{"element": "Li", "occu": 1}], "abc": [0.88092019, 0.38913668, 0.45270982000000004], "xyz": [10.511567546058021, 5.434801559567401, 20.971482264889342], "label": "Li", "properties": {}}, {"species": [{"element": "Li", "occu": 1}], "abc": [0.41494727, 0.01013118, 0.49172228000000007], "xyz": [4.28882313589314, 0.1414951498899, 22.778708609128362], "label": "Li", "properties": {}}, {"species": [{"element": "Li", "occu": 1}], "abc": [0.92461334, 0.62240043, 0.49764487], "xyz": [11.85154678816212, 8.69263423751115, 23.05306866420119], "label": "Li", "properties": {}}, {"species": [{"element": "Li", "occu": 1}], "abc": [0.6233678, 0.55259419, 0.50837922], "xyz": [8.49898992828808, 7.71769899876795, 23.55033031107714], "label": "Li", "properties": {}}, {"species": [{"element": "Li", "occu": 1}], "abc": [0.30466983, 0.84813451, 0.49987046], "xyz": [6.3654764569731395, 11.84530524768555, 23.156167645385022], "label": "Li", "properties": {}}, {"species": [{"element": "P", "occu": 1}], "abc": [0.99628045, 0.79400046, 0.06839973], "xyz": [13.24212447694422, 11.0892525945003, 3.16857214322901], "label": "P", "properties": {}}, {"species": [{"element": "P", "occu": 1}], "abc": [0.47819937, 0.98128222, 0.06092504], "xyz": [8.65225459425262, 13.7048867755971, 2.82231208469848], "label": "P", "properties": {}}, {"species": [{"element": "P", "occu": 1}], "abc": [0.52882985, 0.51572508, 0.026660930000000003], "xyz": [7.38963366053406, 7.202773763429399, 1.2350499060534101], "label": "P", "properties": {}}, {"species": [{"element": "P", "occu": 1}], "abc": [0.64103197, 0.67189622, 0.16360797], "xyz": [9.13635751067702, 9.3839075368671, 7.57903073816589], "label": "P", "properties": {}}, {"species": [{"element": "P", "occu": 1}], "abc": [0.13840805, 0.85676119, 0.1642739], "xyz": [4.69555973743558, 11.965788091702949, 7.6098795039043], "label": "P", "properties": {}}, {"species": [{"element": "P", "occu": 1}], "abc": [0.23282693, 0.38711736, 0.13154923], "xyz": [3.86580224513574, 5.406599120554801, 6.0939308626105095], "label": "P", "properties": {}}, {"species": [{"element": "P", "occu": 1}], "abc": [0.84890379, 0.26046488, 0.09429071], "xyz": [9.69135019191482, 3.6377319558684, 4.36795462600927], "label": "P", "properties": {}}, {"species": [{"element": "P", "occu": 1}], "abc": [0.30653385, 0.54898475, 0.26480199000000004], "xyz": [5.2400358989459, 7.66728845884875, 12.266776623030632], "label": "P", "properties": {}}, {"species": [{"element": "P", "occu": 1}], "abc": [0.81554663, 0.72744301, 0.26455722000000004], "xyz": [11.136328259760342, 10.159690947778051, 12.255437815063141], "label": "P", "properties": {}}, {"species": [{"element": "P", "occu": 1}], "abc": [0.91702894, 0.2660388, 0.2326266], "xyz": [10.41044173239876, 3.7155790226340004, 10.7762730135642], "label": "P", "properties": {}}, {"species": [{"element": "P", "occu": 1}], "abc": [0.5316203, 0.13395876, 0.19631577], "xyz": [5.95759498914372, 1.8709088995818002, 9.09419788789449], "label": "P", "properties": {}}, {"species": [{"element": "P", "occu": 1}], "abc": [0.98377762, 0.42000832, 0.36514859], "xyz": [11.68318933989532, 5.8659642996576, 16.91526633823483], "label": "P", "properties": {}}, {"species": [{"element": "P", "occu": 1}], "abc": [0.48097546, 0.60466766, 0.36563548], "xyz": [7.23977922827276, 8.444972963196301, 16.93782119467676], "label": "P", "properties": {}}, {"species": [{"element": "P", "occu": 1}], "abc": [0.59013832, 0.14241025, 0.3331188], "xyz": [6.5892957715124805, 1.9889449866262499, 15.4315075522356], "label": "P", "properties": {}}, {"species": [{"element": "P", "occu": 1}], "abc": [0.20404678, 0.01077583, 0.29670803], "xyz": [2.13115940446708, 0.15049852840815, 13.74480277232611], "label": "P", "properties": {}}, {"species": [{"element": "P", "occu": 1}], "abc": [0.64388881, 0.29503413, 0.46838791], "xyz": [7.7237621817291, 4.1205366449896506, 21.69775938956567], "label": "P", "properties": {}}, {"species": [{"element": "P", "occu": 1}], "abc": [0.12751839, 0.48160426, 0.46139992], "xyz": [3.14869092474898, 6.7262319844593, 21.37404538585304], "label": "P", "properties": {}}, {"species": [{"element": "P", "occu": 1}], "abc": [0.27301933, 0.01561309, 0.43520208], "xyz": [2.8561119407743, 0.21805717693245, 20.16044781702096], "label": "P", "properties": {}}, {"species": [{"element": "P", "occu": 1}], "abc": [0.88939287, 0.88850585, 0.39823512], "xyz": [12.50891071700738, 12.40914369538425, 18.44797790411544], "label": "P", "properties": {}}, {"species": [{"element": "P", "occu": 1}], "abc": [0.59452617, 0.76017939, 0.50266127], "xyz": [8.997793024503661, 10.61689721545395, 23.285450068327993], "label": "P", "properties": {}}, {"species": [{"element": "S", "occu": 1}], "abc": [0.19611915, 0.72891464, 0.07812805], "xyz": [4.79752595236538, 10.1802441812052, 3.61923011735285], "label": "S", "properties": {}}, {"species": [{"element": "S", "occu": 1}], "abc": [0.27346302, 0.03752159, 0.05868558], "xyz": [2.9444772668339603, 0.52403797002495, 2.7185705849604602], "label": "S", "properties": {}}, {"species": [{"element": "S", "occu": 1}], "abc": [0.39895259, 0.60990935, 9.99999999999994e-05], "xyz": [6.419721490603461, 8.51818000445175, 0.004632433699999972], "label": "S", "properties": {}}, {"species": [{"element": "S", "occu": 1}], "abc": [0.67794899, 0.57940259, 0.04257570000000001], "xyz": [9.16060072447754, 8.092113289729951, 1.9722910748109004], "label": "S", "properties": {}}, {"species": [{"element": "S", "occu": 1}], "abc": [0.95592051, 0.74749453, 0.02863816], "xyz": [12.6508118065537, 10.43973659181165, 1.32664377489992], "label": "S", "properties": {}}, {"species": [{"element": "S", "occu": 1}], "abc": [0.50399724, 0.83041083, 0.06003091000000001], "xyz": [8.339260362797521, 11.59777092708315, 2.78089210525667], "label": "S", "properties": {}}, {"species": [{"element": "S", "occu": 1}], "abc": [0.9737522, 0.93948258, 0.06926199000000001], "xyz": [13.567988421726959, 13.1211002544669, 3.2085157660506303], "label": "S", "properties": {}}, {"species": [{"element": "S", "occu": 1}], "abc": [0.62936664, 0.39555992, 0.004532980000000002], "xyz": [7.9596269517128, 5.5245104884956, 0.20998729313426012], "label": "S", "properties": {}}, {"species": [{"element": "S", "occu": 1}], "abc": [0.58386042, 0.02643685, 0.03027723], "xyz": [6.081286258985081, 0.36922511033925004, 1.40257260594651], "label": "S", "properties": {}}, {"species": [{"element": "S", "occu": 1}], "abc": [0.43016816, 0.49086967, 0.06318834000000001], "xyz": [6.2840041800140805, 6.85563552646935, 2.9271579566305803], "label": "S", "properties": {}}, {"species": [{"element": "S", "occu": 1}], "abc": [0.94324063, 0.28439746, 0.05663225000000001], "xyz": [10.74915206496274, 3.9719816675853, 2.6234514340682504], "label": "S", "properties": {}}, {"species": [{"element": "S", "occu": 1}], "abc": [0.8449252, 0.60523627, 0.16619994999999999], "xyz": [10.96967861511184, 8.45291434388235, 7.699102493183149], "label": "S", "properties": {}}, {"species": [{"element": "S", "occu": 1}], "abc": [0.93544229, 0.92556619, 0.16150049], "xyz": [13.12235902305094, 12.92673970722795, 7.48140312442513], "label": "S", "properties": {}}, {"species": [{"element": "S", "occu": 1}], "abc": [0.11350752, 0.47967353, 0.10235285000000001], "xyz": [2.99779891340384, 6.69926682040665, 4.7414279163104505], "label": "S", "properties": {}}, {"species": [{"element": "S", "occu": 1}], "abc": [0.99177178, 0.17007775, 0.11970971000000001], "xyz": [10.808846472044921, 2.37535773021375, 5.545472948212271], "label": "S", "properties": {}}, {"species": [{"element": "S", "occu": 1}], "abc": [0.69083529, 0.20430708, 0.08412369], "xyz": [7.8574901273302205, 2.8534149929394, 3.89697416524353], "label": "S", "properties": {}}, {"species": [{"element": "S", "occu": 1}], "abc": [0.3884381, 0.43584063, 0.14833616], "xyz": [5.64604916360316, 6.08708316997215, 6.87157426512592], "label": "S", "properties": {}}, {"species": [{"element": "S", "occu": 1}], "abc": [0.55965282, 0.99511045, 0.10157202], "xyz": [9.539440695105881, 13.89801605338725, 4.70525648425074], "label": "S", "properties": {}}, {"species": [{"element": "S", "occu": 1}], "abc": [0.55203961, 0.66100443, 0.12440750000000002], "xyz": [8.1831894509859, 9.23178947573115, 5.7630949553275], "label": "S", "properties": {}}, {"species": [{"element": "S", "occu": 1}], "abc": [0.14738701, 0.71104027, 0.16098694], "xyz": [4.23000471772918, 9.93060527810235, 7.457613261158779], "label": "S", "properties": {}}, {"species": [{"element": "S", "occu": 1}], "abc": [0.63126186, 0.81786021, 0.16703545], "xyz": [9.59473921869996, 11.42248514022405, 7.73780647674665], "label": "S", "properties": {}}, {"species": [{"element": "S", "occu": 1}], "abc": [0.76505859, 0.38144594, 0.11898504], "xyz": [9.295440670071141, 5.3273903390517, 5.51190309091848], "label": "S", "properties": {}}, {"species": [{"element": "S", "occu": 1}], "abc": [0.32606134, 0.26680753, 0.10681449999999999], "xyz": [4.36044803669332, 3.7263153402766505, 4.9481108944865], "label": "S", "properties": {}}, {"species": [{"element": "S", "occu": 1}], "abc": [0.87391279, 0.74665232, 0.09802662000000001], "xyz": [11.8076325320837, 10.4279740300776, 4.541018179850941], "label": "S", "properties": {}}, {"species": [{"element": "S", "occu": 1}], "abc": [0.24055803, 0.91318118, 0.13401696999999999], "xyz": [5.95768229626778, 12.753766880139901, 6.208247281998889], "label": "S", "properties": {}}, {"species": [{"element": "S", "occu": 1}], "abc": [0.11656352, 0.36510439, 0.16533903], "xyz": [2.59076370026656, 5.09915926757895, 7.65922094497311], "label": "S", "properties": {}}, {"species": [{"element": "S", "occu": 1}], "abc": [0.64028133, 0.16263533, 0.16198332999999998], "xyz": [7.1802614244147795, 2.2714146225556497, 7.503770367302209], "label": "S", "properties": {}}, {"species": [{"element": "S", "occu": 1}], "abc": [0.50860079, 0.47990193, 0.26910309000000004], "xyz": [7.04538160079442, 6.70245672446865, 12.466022228901332], "label": "S", "properties": {}}, {"species": [{"element": "S", "occu": 1}], "abc": [0.61299782, 0.79611645, 0.26047773], "xyz": [9.324480777647882, 11.118805156217249, 12.06645814551501], "label": "S", "properties": {}}, {"species": [{"element": "S", "occu": 1}], "abc": [0.79304459, 0.36240206, 0.20537606], "xyz": [9.50922389750138, 5.0614177025883, 9.51390981517222], "label": "S", "properties": {}}, {"species": [{"element": "S", "occu": 1}], "abc": [0.6616112, 0.03732787, 0.22262226], "xyz": [6.91931045631904, 0.52133241742035, 10.31282859594162], "label": "S", "properties": {}}, {"species": [{"element": "S", "occu": 1}], "abc": [0.36993638, 0.08877453, 0.18165233], "xyz": [4.12868864822388, 1.23985216221165, 8.41492375175521], "label": "S", "properties": {}}, {"species": [{"element": "S", "occu": 1}], "abc": [0.07589296, 0.31117297, 0.24942712999999997], "xyz": [1.96785996292288, 4.34593660677585, 11.554546427062808], "label": "S", "properties": {}}, {"species": [{"element": "S", "occu": 1}], "abc": [0.22569644, 0.86636934, 0.20374233], "xyz": [5.62636388591784, 12.0999784450887, 9.43822835608521], "label": "S", "properties": {}}, {"species": [{"element": "S", "occu": 1}], "abc": [0.22677743, 0.5351582, 0.22466845], "xyz": [4.3702379095224195, 7.474182644451001, 10.40761699106765], "label": "S", "properties": {}}, {"species": [{"element": "S", "occu": 1}], "abc": [0.82694012, 0.58210177, 0.26053221000000004], "xyz": [10.696956493384718, 8.12981086085985, 12.068981895394773], "label": "S", "properties": {}}, {"species": [{"element": "S", "occu": 1}], "abc": [0.29536498, 0.6943429, 0.26866226000000004], "xyz": [5.68177301320252, 9.6974047159845, 12.445601071421622], "label": "S", "properties": {}}, {"species": [{"element": "S", "occu": 1}], "abc": [0.44627601, 0.25112446, 0.22292864999999998], "xyz": [5.53173378267406, 3.5072808013203, 10.327021909555048], "label": "S", "properties": {}}, {"species": [{"element": "S", "occu": 1}], "abc": [0.00704408, 0.14900902, 0.20664070999999998], "xyz": [0.64224974169616, 2.0811054210710997, 9.572493887959268], "label": "S", "properties": {}}, {"species": [{"element": "S", "occu": 1}], "abc": [0.54124063, 0.62045732, 0.19522767], "xyz": [7.917450530449461, 8.6654961706026, 9.04379237680479], "label": "S", "properties": {}}, {"species": [{"element": "S", "occu": 1}], "abc": [0.91863195, 0.78120909, 0.23374994000000002], "xyz": [12.39787722583098, 10.91060441971245, 10.828310994289781], "label": "S", "properties": {}}, {"species": [{"element": "S", "occu": 1}], "abc": [0.80279322, 0.23816316, 0.26634592], "xyz": [9.1337413339614, 3.3262593323238003, 12.338298156655041], "label": "S", "properties": {}}, {"species": [{"element": "S", "occu": 1}], "abc": [0.31791711, 0.03788531, 0.26280378000000004], "xyz": [3.40118603586866, 0.52911779447955, 12.174210869593862], "label": "S", "properties": {}}, {"species": [{"element": "S", "occu": 1}], "abc": [0.18645461, 0.35005316, 0.36797737], "xyz": [3.24903189543686, 4.888949198773799, 17.04630769625369], "label": "S", "properties": {}}, {"species": [{"element": "S", "occu": 1}], "abc": [0.27699935, 0.67073301, 0.36302503], "xyz": [5.403334321506419, 9.36766179122805, 16.816893829155113], "label": "S", "properties": {}}, {"species": [{"element": "S", "occu": 1}], "abc": [0.46069972, 0.23892699, 0.30664637], "xyz": [5.63280045716856, 3.3369272150719502, 14.20518978370669], "label": "S", "properties": {}}, {"species": [{"element": "S", "occu": 1}], "abc": [0.32821105, 0.91449255, 0.32391576], "xyz": [6.8604780541323, 12.77208187352775, 15.00518282585112], "label": "S", "properties": {}}, {"species": [{"element": "S", "occu": 1}], "abc": [0.04466905, 0.96573236, 0.28015277], "xyz": [4.15236455729342, 13.4877126881298, 12.977891328963489], "label": "S", "properties": {}}, {"species": [{"element": "S", "occu": 1}], "abc": [0.75164619, 0.18779032, 0.3478801], "xyz": [8.4171482098873, 2.6227368851676003, 16.115314987993703], "label": "S", "properties": {}}, {"species": [{"element": "S", "occu": 1}], "abc": [0.89558045, 0.74196667, 0.30457523000000003], "xyz": [12.01163460422614, 10.36253281305435, 14.109245596372512], "label": "S", "properties": {}}, {"species": [{"element": "S", "occu": 1}], "abc": [0.89556463, 0.41058794, 0.32576826000000003], "xyz": [10.7436334544357, 5.7343963993616995, 15.09099866014362], "label": "S", "properties": {}}, {"species": [{"element": "S", "occu": 1}], "abc": [0.4912476, 0.45848555, 0.36233353], "xyz": [6.7857050027, 6.40334902939275, 16.78486055011961], "label": "S", "properties": {}}, {"species": [{"element": "S", "occu": 1}], "abc": [0.97533304, 0.56554978, 0.36827584], "xyz": [12.15353109544912, 7.8986407201629, 17.060134121118082], "label": "S", "properties": {}}, {"species": [{"element": "S", "occu": 1}], "abc": [0.11467745, 0.12806347, 0.32265808], "xyz": [1.66453860853774, 1.7885734813783503, 14.946921633692961], "label": "S", "properties": {}}, {"species": [{"element": "S", "occu": 1}], "abc": [0.67535128, 0.02546248, 0.30641226], "xyz": [7.014645631470881, 0.3556167617364, 14.19434479317162], "label": "S", "properties": {}}, {"species": [{"element": "S", "occu": 1}], "abc": [0.20228429, 0.49554027, 0.29542425], "xyz": [3.9677927309631, 6.920866550602351, 13.68533251497225], "label": "S", "properties": {}}, {"species": [{"element": "S", "occu": 1}], "abc": [0.58030121, 0.65620695, 0.33398413000000005], "xyz": [8.45430153028734, 9.164786406819749, 15.471593390771812], "label": "S", "properties": {}}, {"species": [{"element": "S", "occu": 1}], "abc": [0.48186548, 0.11340445, 0.36743759000000004], "xyz": [5.3693457207551205, 1.58384113705725, 17.021302745627832], "label": "S", "properties": {}}, {"species": [{"element": "S", "occu": 1}], "abc": [0.00440436, 0.91127326, 0.36432125000000004], "xyz": [3.5315990301685596, 12.7271202875043, 16.87694036126125], "label": "S", "properties": {}}, {"species": [{"element": "S", "occu": 1}], "abc": [0.84841423, 0.23798778, 0.4703756], "xyz": [9.60033961001778, 3.3238099217529, 21.7898378109772], "label": "S", "properties": {}}, {"species": [{"element": "S", "occu": 1}], "abc": [0.92765048, 0.54779061, 0.45199023], "xyz": [11.597200843369441, 7.650610735396049, 20.93814773522751], "label": "S", "properties": {}}, {"species": [{"element": "S", "occu": 1}], "abc": [0.12930474, 0.10637246, 0.41008981], "xyz": [1.7313686053242798, 1.4856302199603, 18.99713855870597], "label": "S", "properties": {}}, {"species": [{"element": "S", "occu": 1}], "abc": [0.00923104, 0.79582128, 0.42730013], "xyz": [3.13932215118912, 11.1146827219704, 19.79439522226381], "label": "S", "properties": {}}, {"species": [{"element": "S", "occu": 1}], "abc": [0.73328341, 0.83985805, 0.38157697], "xyz": [10.72384885066534, 11.72971368300525, 17.67630014971889], "label": "S", "properties": {}}, {"species": [{"element": "S", "occu": 1}], "abc": [0.43120118, 0.07216266, 0.44512134000000003], "xyz": [4.69263187620084, 1.0078457191713002, 20.619950960051582], "label": "S", "properties": {}}, {"species": [{"element": "S", "occu": 1}], "abc": [0.56999169, 0.61563971, 0.40484922], "xyz": [8.19349884529358, 8.59821195997155, 18.75437170146714], "label": "S", "properties": {}}, {"species": [{"element": "S", "occu": 1}], "abc": [0.56149019, 0.28197167, 0.427756], "xyz": [6.8298250576985, 3.93810234457935, 19.815513097772], "label": "S", "properties": {}}, {"species": [{"element": "S", "occu": 1}], "abc": [0.14782818, 0.33653692, 0.4605292], "xyz": [2.80169152257436, 4.7001772684806005, 21.333709859140402], "label": "S", "properties": {}}, {"species": [{"element": "S", "occu": 1}], "abc": [0.62010176, 0.44580931, 0.46945965], "xyz": [8.05698396926176, 6.22630879529955, 21.74740703450205], "label": "S", "properties": {}}, {"species": [{"element": "S", "occu": 1}], "abc": [0.79606928, 0.00889645, 0.42297853], "xyz": [8.18770852911232, 0.12425053411725001, 19.59419996748461], "label": "S", "properties": {}}, {"species": [{"element": "S", "occu": 1}], "abc": [0.35661633, 0.89487255, 0.41036948], "xyz": [7.07635151343822, 12.49806296942775, 19.010094086034762], "label": "S", "properties": {}}, {"species": [{"element": "S", "occu": 1}], "abc": [0.88152794, 0.36433041, 0.39562237], "xyz": [10.42288477484748, 5.08834962683505, 18.32694399261869], "label": "S", "properties": {}}, {"species": [{"element": "S", "occu": 1}], "abc": [0.24919736, 0.52842654, 0.43147281000000004], "xyz": [4.57411710639312, 7.3801662277347, 19.987691856776973], "label": "S", "properties": {}}, {"species": [{"element": "S", "occu": 1}], "abc": [0.18067327, 0.99109193, 0.47303724], "xyz": [5.64240058184114, 13.84189217741865, 21.91313651930988], "label": "S", "properties": {}}, {"species": [{"element": "S", "occu": 1}], "abc": [0.69066053, 0.78624259, 0.46596916], "xyz": [10.0821574914151, 10.980903815929949, 21.58571239944692], "label": "S", "properties": {}}, {"species": [{"element": "S", "occu": 1}], "abc": [0.72522024, 0.66622078, 0.52916198], "xyz": [9.97693466494192, 9.304642610817899, 24.51307788910726], "label": "S", "properties": {}}, {"species": [{"element": "S", "occu": 1}], "abc": [0.44512761, 0.69619143, 0.48711440000000006], "xyz": [7.2227762584419, 9.723221849766151, 22.565251623152804], "label": "S", "properties": {}}, {"species": [{"element": "S", "occu": 1}], "abc": [0.17025815, 0.52775998, 0.50105749], "xyz": [3.7630388101750603, 7.370856847473901, 23.21115602313413], "label": "S", "properties": {}}, {"species": [{"element": "S", "occu": 1}], "abc": [0.49442213, 0.88005403, 0.52500338], "xyz": [8.43112062240838, 12.29110299945915, 24.32043350125906], "label": "S", "properties": {}}, {"species": [{"element": "S", "occu": 1}], "abc": [0.53751813, 0.25040702, 0.49898452000000004], "xyz": [6.46352845894886, 3.4972608154611, 23.11512706226324], "label": "S", "properties": {}}]}, "formula": "(Li3PS4)20.0", "bandgap": 2.3547000000000002, "slab_thickness": 24.508445455407262}