{"miller": "111_0.94", "final_energy": -628.28274947, "gamma": 0.017349503117562698, "work_function": "Not calculated", "ionization_potentail": "Not calculated", "electron_affinity": "Not calculated", "is_stochiometric": true, "incar_parameters": {"SYSTEM": "unknown system", "LCOMPAT": false, "PREC": "normal", "ENMAX": 520.0, "ENAUG": 628.945, "EDIFF": 1e-05, "IALGO": 38, "IWAVPR": 11, "NBANDS": 416, "NBANDSLOW": -1, "NBANDSHIGH": -1, "NELECT": 684.0, "TURBO": 0, "IRESTART": 0, "NREBOOT": 0, "NMIN": 0, "EREF": 0.0, "ISMEAR": 0, "SIGMA": 0.05, "KSPACING": 0.5, "KGAMMA": true, "KBLOWUP": true, "LREAL": true, "ROPT": [-0.0005, -0.0005, -0.0005], "LMAXPAW": -100, "LMAXMIX": 2, "NLSPLINE": false, "ISTART": 0, "ICHARG": 2, "INIWAV": 1, "ISPIN": 1, "LNONCOLLINEAR": false, "MAGMOM": [0.6, 0.6, 0.6, 0.6, 0.6, 0.6, 0.6, 0.6, 0.6, 0.6, 0.6, 0.6, 0.6, 0.6, 0.6, 0.6, 0.6, 0.6, 0.6, 0.6, 0.6, 0.6, 0.6, 0.6, 0.6, 0.6, 0.6, 0.6, 0.6, 0.6, 0.6, 0.6, 0.6, 0.6, 0.6, 0.6, 0.6, 0.6, 0.6, 0.6, 0.6, 0.6, 0.6, 0.6, 0.6, 0.6, 0.6, 0.6, 0.6, 0.6, 0.6, 0.6, 0.6, 0.6, 0.6, 0.6, 0.6, 0.6, 0.6, 0.6, 0.6, 0.6, 0.6, 0.6, 0.6, 0.6, 0.6, 0.6, 0.6, 0.6, 0.6, 0.6, 0.6, 0.6, 0.6, 0.6, 0.6, 0.6, 0.6, 0.6, 0.6, 0.6, 0.6, 0.6, 0.6, 0.6, 0.6, 0.6, 0.6, 0.6, 0.6, 0.6, 0.6, 0.6, 0.6, 0.6, 0.6, 0.6, 0.6, 0.6, 0.6, 0.6, 0.6, 0.6, 0.6, 0.6, 0.6, 0.6, 0.6, 0.6, 0.6, 0.6, 0.6, 0.6, 0.6, 0.6, 0.6, 0.6, 0.6, 0.6, 0.6, 0.6, 0.6, 0.6, 0.6, 0.6, 0.6, 0.6, 0.6, 0.6, 0.6, 0.6, 0.6, 0.6, 0.6, 0.6, 0.6, 0.6, 0.6, 0.6, 0.6, 0.6, 0.6, 0.6], "NUPDOWN": -1.0, "LSORBIT": false, "SAXIS": [0.0, 0.0, 1.0], "LSPIRAL": false, "QSPIRAL": [0.0, 0.0, 0.0], "LZEROZ": false, "LASPH": false, "LMETAGGA": false, "NELM": 100, "NELMDL": -5, "NELMIN": 6, "ENINI": 520.0, "LDIAG": true, "LSUBROT": false, "WEIMIN": 0.001, "EBREAK": 1e-08, "DEPER": 0.3, "NRMM": 4, "TIME": 0.4, "AMIX": 0.4, "BMIX": 1.0, "AMIN": 0.1, "AMIX_MAG": 1.6, "BMIX_MAG": 1.0, "IMIX": 4, "MIXFIRST": false, "MAXMIX": -45, "WC": 100.0, "INIMIX": 1, "MIXPRE": 1, "MREMOVE": 5, "LDIPOL": false, "LMONO": false, "IDIPOL": 0, "EPSILON": 1.0, "DIPOL": [-100.0, -100.0, -100.0], "EFIELD": 0.0, "NGX": 60, "NGY": 84, "NGZ": 270, "NGXF": 120, "NGYF": 168, "NGZF": 540, "ADDGRID": false, "NSW": 150, "IBRION": 2, "MDALGO": 0, "ISIF": 2, "PSTRESS": 0.0, "EDIFFG": -0.01, "NFREE": 1, "POTIM": 0.5, "SMASS": -3.0, "SCALEE": 1.0, "TEBEG": 0.0001, "TEEND": 0.0001, "NBLOCK": 1, "KBLOCK": 150, "NPACO": 256, "APACO": 10.0, "ISYM": 0, "SYMPREC": 1e-05, "LORBIT": 11, "RWIGS": [-1.0, -1.0, -1.0], "NEDOS": 301, "EMIN": 10.0, "EMAX": -10.0, "EFERMI": 0.0, "NWRITE": 2, "LWAVE": false, "LDOWNSAMPLE": false, "LCHARG": false, "LPARD": false, "LVTOT": false, "LVHAR": false, "LELF": false, "LOPTICS": false, "STM": [0.0, 0.0, 0.0, 0.0, 0.0, 0.0, 0.0], "NPAR": 2, "NSIM": 4, "NBLK": -1, "LPLANE": true, "LSCALAPACK": true, "LSCAAWARE": false, "LSCALU": false, "LASYNC": false, "LORBITALREAL": false, "IDIOT": 3, "PHON_NSTRUCT": -1, "LMUSIC": false, "POMASS": [7.01, 30.974, 32.066], "DARWINR": [0.0, 0.0, 0.0], "DARWINV": [1.0, 1.0, 1.0], "LCORR": true, "GGA_COMPAT": true, "LBERRY": false, "ICORELEVEL": 0, "LDAU": false, "I_CONSTRAINED_M": 0, "GGA": "--", "VOSKOWN": 0, "LHFCALC": false, "PRECFOCK": "", "LSYMGRAD": false, "LHFONE": false, "LRHFCALC": false, "LTHOMAS": false, "LMODELHF": false, "LFOCKACE": false, "ENCUT4O": -1.0, "EXXOEP": 0, "FOURORBIT": 0, "AEXX": 0.0, "HFALPHA": 0.0, "MCALPHA": 0.0, "ALDAX": 1.0, "AGGAX": 1.0, "ALDAC": 1.0, "AGGAC": 1.0, "NKREDX": 1, "NKREDY": 1, "NKREDZ": 1, "SHIFTRED": false, "ODDONLY": false, "EVENONLY": false, "LMAXFOCK": 0, "NMAXFOCKAE": 0, "LFOCKAEDFT": false, "HFSCREEN": 0.0, "HFSCREENC": 0.0, "NBANDSGWLOW": 0, "LUSE_VDW": false, "Zab_VDW": -0.8491, "PARAM1": 0.1234, "PARAM2": 1.0, "PARAM3": 0.0, "MODEL_GW": 0, "MODEL_EPS0": 27.61097984, "MODEL_ALPHA": 1.0, "LEPSILON": false, "LRPA": false, "LNABLA": false, "LVEL": false, "CSHIFT": 0.1, "OMEGAMAX": -1.0, "DEG_THRESHOLD": 0.002, "RTIME": -0.1, "WPLASMAI": 0.0, "DFIELD": [0.0, 0.0, 0.0], "WPLASMA": [0.0, 0.0, 0.0, 0.0, 0.0, 0.0, 0.0, 0.0, 0.0], "NUCIND": false, "MAGPOS": [0.0, 0.0, 0.0], "LNICSALL": true, "ORBITALMAG": false, "LMAGBLOCH": false, "LCHIMAG": false, "LGAUGE": true, "MAGATOM": 0, "MAGDIPOL": [0.0, 0.0, 0.0], "AVECCONST": [0.0, 0.0, 0.0], "LFINITE_TEMPERATURE": false, "LADDER": false, "LRPAFORCE": false, "LFXC": false, "LHARTREE": true, "IBSE": 0, "KPOINT": [-1, 0, 0, 0], "LTCTC": false, "LTCTE": false, "LTETE": false, "LTRIPLET": false, "LFXCEPS": false, "LFXHEG": false, "NATURALO": 2, "LHOLEGF": false, "L2ORDER": false, "LDMP1": false, "LMP2LT": false, "LSMP2LT": false, "LGWLF": false, "ENCUTGW": -2.0, "ENCUTGWSOFT": -2.0, "ENCUTLF": -1.0, "LESF_SPLINES": false, "LMAXMP2": -1, "SCISSOR": 0.0, "NOMEGA": 0, "NOMEGAR": 0, "NBANDSGW": -1, "NBANDSO": -1, "NBANDSV": -1, "NELMGW": 1, "NELMHF": 1, "DIM": 3, "IESPILON": 4, "ANTIRES": 0, "OMEGAMIN": -30.0, "OMEGATL": -200.0, "OMEGAGRID": 0, "LSELFENERGY": false, "LSPECTRAL": false, "LSPECTRALGW": false, "LSINGLES": false, "LFERMIGW": false, "ODDONLYGW": false, "EVENONLYGW": false, "NKREDLFX": 1, "NKREDLFY": 1, "NKREDLFZ": 1, "MAXMEM": 2800, "TELESCOPE": 0, "NTAUPAR": -1, "NOMEGAPAR": -1, "DAMP_NEWTON": 0.80000001, "LAMBDA": 1.0, "OFIELD_KAPPA": 0.0, "OFIELD_K": [0.0, 0.0, 0.0], "OFIELD_Q6_NEAR": 0.0, "OFIELD_Q6_FAR": 0.0, "OFIELD_A": 0.0, "KPOINTS_OPT_MODE": 1, "LKPOINTS_OPT": false, "@module": "pymatgen.io.vasp.inputs", "@class": "Incar"}, "relaxed_structures": {"@module": "pymatgen.core.structure", "@class": "Structure", "charge": 0, "lattice": {"matrix": [[10.242414, 0.0, 0.0], [3.825952, 13.966305, 0.0], [0.0, 0.0, 46.324337]], "a": 10.242414, "b": 14.48086958919695, "c": 46.324337, "alpha": 90.0, "beta": 90.0, "gamma": 74.68014200345522, "volume": 6626.635160603587}, "sites": [{"species": [{"element": "Li", "occu": 1}], "abc": [0.66368886, 0.70604637, 0.08893221], "xyz": [9.49907559270228, 9.86085894756285, 4.11972566619477], "label": "Li", "properties": {}}, {"species": [{"element": "Li", "occu": 1}], "abc": [0.69291701, 0.25725176, 0.07953201], "xyz": [8.081375769737662, 3.5928565419468, 3.68426763352737], "label": "Li", "properties": {}}, {"species": [{"element": "Li", "occu": 1}], "abc": [0.40067151, 0.34642498, 0.02621669], "xyz": [5.4292488285061005, 4.8382769302989, 1.21447078258453], "label": "Li", "properties": {}}, {"species": [{"element": "Li", "occu": 1}], "abc": [0.19573644, 0.55443142, 0.07417918], "xyz": [4.1260416535780005, 7.7433583133031005, 3.43630133270366], "label": "Li", "properties": {}}, {"species": [{"element": "Li", "occu": 1}], "abc": [0.17025354, 0.1509965, 0.05967931], "xyz": [2.32151260281356, 2.1088631729325003, 2.76460446836747], "label": "Li", "properties": {}}, {"species": [{"element": "Li", "occu": 1}], "abc": [0.29372892, 0.73309254, 0.07221126], "xyz": [5.81327007201096, 10.2385940068647, 3.34513874343462], "label": "Li", "properties": {}}, {"species": [{"element": "Li", "occu": 1}], "abc": [0.73574198, 0.9216478, 0.06557218], "xyz": [11.06195420004532, 12.872014277379, 3.03758776414466], "label": "Li", "properties": {}}, {"species": [{"element": "Li", "occu": 1}], "abc": [0.83917321, 0.40267615, 0.0601001], "xyz": [10.135779055973739, 5.62389792712575, 2.7840972861337], "label": "Li", "properties": {}}, {"species": [{"element": "Li", "occu": 1}], "abc": [0.32970182, 0.58377048, 0.19255923000000003], "xyz": [5.61042037249044, 8.1531165736764, 8.920178662980511], "label": "Li", "properties": {}}, {"species": [{"element": "Li", "occu": 1}], "abc": [0.64736513, 0.02279774, 0.11804306], "xyz": [6.7178047295723, 0.31840019015070004, 5.46826649195122], "label": "Li", "properties": {}}, {"species": [{"element": "Li", "occu": 1}], "abc": [0.58568565, 0.49920452, 0.13451770000000002], "xyz": [7.90876743286214, 6.9720425836986, 6.2314432672649005], "label": "Li", "properties": {}}, {"species": [{"element": "Li", "occu": 1}], "abc": [0.39732324, 0.12098467, 0.17518687000000002], "xyz": [4.5324306560572, 1.68970880154435, 8.11541560385519], "label": "Li", "properties": {}}, {"species": [{"element": "Li", "occu": 1}], "abc": [0.09936643, 0.16470797, 0.13193722000000002], "xyz": [1.64791690099946, 2.30036174495085, 6.111904242123141], "label": "Li", "properties": {}}, {"species": [{"element": "Li", "occu": 1}], "abc": [0.87984699, 0.43722386, 0.17824974000000002], "xyz": [10.68455462984858, 6.106401782037301, 8.25730102592238], "label": "Li", "properties": {}}, {"species": [{"element": "Li", "occu": 1}], "abc": [0.92889861, 0.9679324, 0.15941394], "xyz": [13.21742702928934, 13.518439117782, 7.38474507905778], "label": "Li", "properties": {}}, {"species": [{"element": "Li", "occu": 1}], "abc": [0.03194443, 0.64086748, 0.15155027000000001], "xyz": [2.7791162938949805, 8.950550690261402, 7.020465779920991], "label": "Li", "properties": {}}, {"species": [{"element": "Li", "occu": 1}], "abc": [0.55075641, 0.79826838, 0.15141633000000002], "xyz": [8.6952116693715, 11.1488596669359, 7.01426109822321], "label": "Li", "properties": {}}, {"species": [{"element": "Li", "occu": 1}], "abc": [0.4723079, 0.3264035, 0.14626416], "xyz": [6.086377170902599, 4.5586508340675005, 6.77559023886192], "label": "Li", "properties": {}}, {"species": [{"element": "Li", "occu": 1}], "abc": [0.18249033, 0.36788733, 0.10199622], "xyz": [3.27666077684478, 5.13802665641565, 4.72490726800614], "label": "Li", "properties": {}}, {"species": [{"element": "Li", "occu": 1}], "abc": [0.16283354, 0.86695742, 0.12015205], "xyz": [4.9847460047294, 12.1081917497331, 5.565964055440849], "label": "Li", "properties": {}}, {"species": [{"element": "Li", "occu": 1}], "abc": [7.434e-05, 0.45661364, 0.29402639999999997], "xyz": [1.7477432902420398, 6.3772053634002, 13.620578040496799], "label": "Li", "properties": {}}, {"species": [{"element": "Li", "occu": 1}], "abc": [0.33452851, 0.89781042, 0.21203034], "xyz": [6.86135906624298, 12.5390941578981, 9.82216492438458], "label": "Li", "properties": {}}, {"species": [{"element": "Li", "occu": 1}], "abc": [0.26081431, 0.36424133, 0.23502897], "xyz": [4.064937985140499, 5.087105508385649, 10.88756121104289], "label": "Li", "properties": {}}, {"species": [{"element": "Li", "occu": 1}], "abc": [0.06465475, 0.98165773, 0.27635799], "xyz": [4.41799607197546, 13.71013126278765, 12.80210066140263], "label": "Li", "properties": {}}, {"species": [{"element": "Li", "occu": 1}], "abc": [0.77959902, 0.03465368, 0.23297013000000003], "xyz": [8.11755923313764, 0.4839838642524, 10.792186813053812], "label": "Li", "properties": {}}, {"species": [{"element": "Li", "occu": 1}], "abc": [0.55241693, 0.31736596, 0.27886500999999997], "xyz": [6.87230982706294, 4.4324297939778, 12.918236700748368], "label": "Li", "properties": {}}, {"species": [{"element": "Li", "occu": 1}], "abc": [0.61192264, 0.841117, 0.25990283999999997], "xyz": [9.485638283236959, 11.747296562685, 12.039826747417079], "label": "Li", "properties": {}}, {"species": [{"element": "Li", "occu": 1}], "abc": [0.69732929, 0.51516106, 0.25345047], "xyz": [9.11331677033518, 7.194896488083299, 11.74092498508839], "label": "Li", "properties": {}}, {"species": [{"element": "Li", "occu": 1}], "abc": [0.21787965, 0.670971, 0.25238622], "xyz": [4.7987164168671, 9.370985632155, 11.69162430943614], "label": "Li", "properties": {}}, {"species": [{"element": "Li", "occu": 1}], "abc": [0.17719658, 0.15932589, 0.26337708], "xyz": [2.4244939392414, 2.22519397413645, 12.20076861199596], "label": "Li", "properties": {}}, {"species": [{"element": "Li", "occu": 1}], "abc": [0.79033265, 0.23281797, 0.20561513], "xyz": [8.98566457697454, 3.2516067785008502, 9.524984574418811], "label": "Li", "properties": {}}, {"species": [{"element": "Li", "occu": 1}], "abc": [0.83866121, 0.73028192, 0.21672834000000002], "xyz": [11.38393889094878, 10.199340030705601, 10.03979665961058], "label": "Li", "properties": {}}, {"species": [{"element": "Li", "occu": 1}], "abc": [0.6791642, 0.33740451, 0.39241047], "xyz": [8.24717437022232, 4.71229429503555, 18.17815485460839], "label": "Li", "properties": {}}, {"species": [{"element": "Li", "occu": 1}], "abc": [0.00520405, 0.76984236, 0.31332948], "xyz": [2.99868195150342, 10.751853201679799, 14.51478042355476], "label": "Li", "properties": {}}, {"species": [{"element": "Li", "occu": 1}], "abc": [0.93033386, 0.23708493, 0.33722494], "xyz": [10.435940114441399, 3.31120044328365, 15.621721765364779], "label": "Li", "properties": {}}, {"species": [{"element": "Li", "occu": 1}], "abc": [0.74619625, 0.85473511, 0.37884285], "xyz": [10.91302642132222, 11.93749124046855, 17.54964385344045], "label": "Li", "properties": {}}, {"species": [{"element": "Li", "occu": 1}], "abc": [0.45203168, 0.92042042, 0.33142963], "xyz": [8.15137995441536, 12.8548723139481, 15.353257871905308], "label": "Li", "properties": {}}, {"species": [{"element": "Li", "occu": 1}], "abc": [0.2289566, 0.18932148, 0.3804372], "xyz": [3.0694031802813604, 2.6441215327314, 17.623501060136398], "label": "Li", "properties": {}}, {"species": [{"element": "Li", "occu": 1}], "abc": [0.28455621, 0.72484068, 0.35824911], "xyz": [5.6877481584183, 10.123346013287401, 16.59565250159007], "label": "Li", "properties": {}}, {"species": [{"element": "Li", "occu": 1}], "abc": [0.37993369, 0.38388937, 0.35327372], "xyz": [5.3601804484579, 5.36151602767785, 16.36517085852364], "label": "Li", "properties": {}}, {"species": [{"element": "Li", "occu": 1}], "abc": [0.88836929, 0.54510573, 0.35256236999999996], "xyz": [11.18459441097102, 7.613112882427649, 16.332218041398686], "label": "Li", "properties": {}}, {"species": [{"element": "Li", "occu": 1}], "abc": [0.85290492, 0.03354703, 0.36380214], "xyz": [8.86415461979944, 0.46852805282415, 16.85289293468118], "label": "Li", "properties": {}}, {"species": [{"element": "Li", "occu": 1}], "abc": [0.5493045, 0.12260008, 0.30571234999999997], "xyz": [6.09526612233916, 1.7122701103044, 14.161921926461948], "label": "Li", "properties": {}}, {"species": [{"element": "Li", "occu": 1}], "abc": [0.50504916, 0.60924214, 0.3147086], "xyz": [7.503853771089521, 8.5088615460927, 14.5786672431982], "label": "Li", "properties": {}}, {"species": [{"element": "Li", "occu": 1}], "abc": [0.673852, 0.64702282, 0.40541235999999997], "xyz": [9.37734941095264, 9.0365180460801, 18.78045878860532], "label": "Li", "properties": {}}, {"species": [{"element": "Li", "occu": 1}], "abc": [0.6383469, 0.10477244, 0.4320791], "xyz": [6.93906755177948, 1.4632838526342, 20.0157778390567], "label": "Li", "properties": {}}, {"species": [{"element": "Li", "occu": 1}], "abc": [0.15099933, 0.78729548, 0.43695236], "xyz": [4.55875236787958, 10.9956087988014, 20.24152837758532], "label": "Li", "properties": {}}, {"species": [{"element": "Li", "occu": 1}], "abc": [0.92805087, 0.01423198, 0.48579916], "xyz": [9.55993209594514, 0.1987681734339, 22.50432400215692], "label": "Li", "properties": {}}, {"species": [{"element": "Li", "occu": 1}], "abc": [0.85636486, 0.6629919, 0.44963518999999996], "xyz": [11.30781861696084, 9.2595470879295, 20.829052068619028], "label": "Li", "properties": {}}, {"species": [{"element": "Li", "occu": 1}], "abc": [0.16242074, 0.20513169, 0.45189283999999996], "xyz": [2.44840446088524, 2.86493174770545, 20.93363620804708], "label": "Li", "properties": {}}, {"species": [{"element": "Li", "occu": 1}], "abc": [0.58952136, 0.45138596, 0.44256302], "xyz": [7.76510284739696, 6.3041939900778, 20.50143848221774], "label": "Li", "properties": {}}, {"species": [{"element": "Li", "occu": 1}], "abc": [0.48897129, 0.95475174, 0.45150577], "xyz": [8.66108071545054, 13.3343540001207, 20.915705446924488], "label": "Li", "properties": {}}, {"species": [{"element": "Li", "occu": 1}], "abc": [0.138888, 0.98573276, 0.41007042], "xyz": [5.1939146202195206, 13.7670443746518, 18.99624032981154], "label": "Li", "properties": {}}, {"species": [{"element": "Li", "occu": 1}], "abc": [0.16924266, 0.49266454, 0.39952499999999996], "xyz": [3.61836427232332, 6.8807032283247, 18.507730739924998], "label": "Li", "properties": {}}, {"species": [{"element": "P", "occu": 1}], "abc": [0.50845589, 0.49548825, 0.07159444], "xyz": [7.10352998718246, 6.92014002341625, 3.31656496588628], "label": "P", "properties": {}}, {"species": [{"element": "P", "occu": 1}], "abc": [0.13283489, 0.34635041, 0.03727946], "xyz": [2.68566998086478, 4.83723546293505, 1.72694626821802], "label": "P", "properties": {}}, {"species": [{"element": "P", "occu": 1}], "abc": [0.90504853, 0.78003231, 0.10201746], "xyz": [12.25424791086054, 10.89416915131455, 4.72589119692402], "label": "P", "properties": {}}, {"species": [{"element": "P", "occu": 1}], "abc": [0.40435973, 0.95885369, 0.10384005], "xyz": [7.8101479525511, 13.391643084915449, 4.81032147029685], "label": "P", "properties": {}}, {"species": [{"element": "P", "occu": 1}], "abc": [0.17790622, 0.37256008, 0.17286359], "xyz": [3.24758614161124, 5.2032877081044004, 8.00779119818983], "label": "P", "properties": {}}, {"species": [{"element": "P", "occu": 1}], "abc": [0.79479744, 0.23474913, 0.13797639], "xyz": [9.03878333004192, 3.27857794806465, 6.39166478840343], "label": "P", "properties": {}}, {"species": [{"element": "P", "occu": 1}], "abc": [0.57606187, 0.65225847, 0.20519353], "xyz": [8.39577375996762, 9.10964073085335, 9.505454233939611], "label": "P", "properties": {}}, {"species": [{"element": "P", "occu": 1}], "abc": [0.07653612, 0.82993978, 0.20487287], "xyz": [3.95922438816424, 11.5911920991129, 9.49059987203719], "label": "P", "properties": {}}, {"species": [{"element": "P", "occu": 1}], "abc": [0.85291089, 0.24188338, 0.27402592], "xyz": [9.66130064196622, 3.3782170595109, 12.69406906481504], "label": "P", "properties": {}}, {"species": [{"element": "P", "occu": 1}], "abc": [0.47869549, 0.1095623, 0.23839032000000002], "xyz": [5.32217748932246, 1.5301804983015, 11.043273521217841], "label": "P", "properties": {}}, {"species": [{"element": "P", "occu": 1}], "abc": [0.24985958, 0.52471283, 0.30603009999999997], "xyz": [4.56669136159028, 7.32829942119315, 14.1766414845437], "label": "P", "properties": {}}, {"species": [{"element": "P", "occu": 1}], "abc": [0.75072539, 0.70376091, 0.30569457], "xyz": [10.38179570582778, 9.828939516137549, 14.16109827975009], "label": "P", "properties": {}}, {"species": [{"element": "P", "occu": 1}], "abc": [0.53345021, 0.12035961, 0.37392706], "xyz": [5.92430798980566, 1.6809790229410502, 17.32192314085922], "label": "P", "properties": {}}, {"species": [{"element": "P", "occu": 1}], "abc": [0.14930191, 0.98613436, 0.33826342], "xyz": [5.30211470012146, 13.7726532427398, 15.66982866285254], "label": "P", "properties": {}}, {"species": [{"element": "P", "occu": 1}], "abc": [0.92463079, 0.39908173, 0.40777026], "xyz": [10.99731889138402, 5.57369716110765, 18.88968694281762], "label": "P", "properties": {}}, {"species": [{"element": "P", "occu": 1}], "abc": [0.42193445, 0.58510686, 0.40317254999999996], "xyz": [6.560218078993021, 8.1717808643523, 18.67670107534935], "label": "P", "properties": {}}, {"species": [{"element": "P", "occu": 1}], "abc": [0.19713748, 0.00926878, 0.47426029], "xyz": [2.05462559245528, 0.12945060845790002, 21.969793499677728], "label": "P", "properties": {}}, {"species": [{"element": "P", "occu": 1}], "abc": [0.83251341, 0.86424271, 0.44136157], "xyz": [11.83349813058166, 12.07027728188655, 20.445782107529087], "label": "P", "properties": {}}, {"species": [{"element": "S", "occu": 1}], "abc": [0.378721, 0.59106788, 0.0454372], "xyz": [6.14041461011576, 8.255034287783399, 2.1048481651363997], "label": "S", "properties": {}}, {"species": [{"element": "S", "occu": 1}], "abc": [0.29659549, 0.26499797, 0.06159053], "xyz": [4.0517233124303, 3.7010424734008502, 2.85314046772861], "label": "S", "properties": {}}, {"species": [{"element": "S", "occu": 1}], "abc": [0.99677969, 0.26481458, 0.03304307], "xyz": [11.22259812375182, 3.6984811927269003, 1.5306983101945901], "label": "S", "properties": {}}, {"species": [{"element": "S", "occu": 1}], "abc": [0.66821695, 0.53879288, 0.08868523], "xyz": [8.90555034053906, 7.524945693908401, 4.10828448144251], "label": "S", "properties": {}}, {"species": [{"element": "S", "occu": 1}], "abc": [0.83765057, 0.75913057, 0.06193594], "xyz": [11.48396104782862, 10.602249075443849, 2.86914135697178], "label": "S", "properties": {}}, {"species": [{"element": "S", "occu": 1}], "abc": [0.03846644, 0.46214595, 0.06378154], "xyz": [2.16213742528056, 6.454471292214751, 2.95463755333898], "label": "S", "properties": {}}, {"species": [{"element": "S", "occu": 1}], "abc": [0.60193734, 0.37985577, 0.04574506], "xyz": [7.6186013812818, 5.305181539829849, 2.11910957552522], "label": "S", "properties": {}}, {"species": [{"element": "S", "occu": 1}], "abc": [0.50880865, 0.01401743, 0.07407949], "xyz": [5.26505885442446, 0.19577170269615002, 3.4316832595481297], "label": "S", "properties": {}}, {"species": [{"element": "S", "occu": 1}], "abc": [0.19891613, 0.38727809, 0.0001], "xyz": [3.5190887377294997, 5.40884392475745, 0.0046324337], "label": "S", "properties": {}}, {"species": [{"element": "S", "occu": 1}], "abc": [0.1110877, 0.71277023, 0.1068994], "xyz": [3.8648309007167594, 9.95476642710015, 4.9520438306978], "label": "S", "properties": {}}, {"species": [{"element": "S", "occu": 1}], "abc": [0.19974785, 0.02139327, 0.0994873], "xyz": [2.12774979945294, 0.29878493376735, 4.6086832124201], "label": "S", "properties": {}}, {"species": [{"element": "S", "occu": 1}], "abc": [0.05422144, 0.46908044, 0.1456481], "xyz": [2.35003768373504, 6.5513204945742, 6.7470516678097], "label": "S", "properties": {}}, {"species": [{"element": "S", "occu": 1}], "abc": [0.9204106, 0.13788561, 0.16492668000000002], "xyz": [9.95477014053912, 1.9257524843710498, 7.640119104611161], "label": "S", "properties": {}}, {"species": [{"element": "S", "occu": 1}], "abc": [0.63100538, 0.19068106, 0.12270933], "xyz": [7.1925549210564395, 2.6631098416833003, 5.684428355964211], "label": "S", "properties": {}}, {"species": [{"element": "S", "occu": 1}], "abc": [0.34242887, 0.41388365, 0.18856852000000002], "xyz": [5.09079723057698, 5.78042529041325, 8.73531166807124], "label": "S", "properties": {}}, {"species": [{"element": "S", "occu": 1}], "abc": [0.47608891, 0.97414561, 0.14489627000000002], "xyz": [8.60333406189946, 13.60521470367105, 6.712223641522991], "label": "S", "properties": {}}, {"species": [{"element": "S", "occu": 1}], "abc": [0.49601781, 0.64277211, 0.16501927000000002], "xyz": [7.53963500119206, 8.97715133375355, 7.6444082749739914], "label": "S", "properties": {}}, {"species": [{"element": "S", "occu": 1}], "abc": [0.42848799, 0.81129938, 0.10095585], "xyz": [7.49274387311762, 11.3308545873909, 4.67671281752145], "label": "S", "properties": {}}, {"species": [{"element": "S", "occu": 1}], "abc": [0.88567416, 0.92673924, 0.10776118], "xyz": [12.617101264578721, 12.9431228813082, 4.99196521783766], "label": "S", "properties": {}}, {"species": [{"element": "S", "occu": 1}], "abc": [0.70760074, 0.35426388, 0.16326488], "xyz": [8.602936326000119, 4.947757398563399, 7.56313732138456], "label": "S", "properties": {}}, {"species": [{"element": "S", "occu": 1}], "abc": [0.26398906, 0.25512118, 0.14620153000000002], "xyz": [3.6799666328542, 3.5631002118399002, 6.772688945635611], "label": "S", "properties": {}}, {"species": [{"element": "S", "occu": 1}], "abc": [0.80594227, 0.72324616, 0.13281834], "xyz": [11.0218994817841, 10.101076460638799, 6.15272154194058], "label": "S", "properties": {}}, {"species": [{"element": "S", "occu": 1}], "abc": [0.16945471, 0.89028255, 0.17357564], "xyz": [5.14180359680754, 12.43395762947775, 8.04077644235068], "label": "S", "properties": {}}, {"species": [{"element": "S", "occu": 1}], "abc": [0.39617064, 0.46630018, 0.10628772], "xyz": [5.84178581579632, 6.5124905354349005, 4.92370816024164], "label": "S", "properties": {}}, {"species": [{"element": "S", "occu": 1}], "abc": [0.90302007, 0.25875402, 0.10300547], "xyz": [10.23908586757602, 3.6138375632960997, 4.77166010512339], "label": "S", "properties": {}}, {"species": [{"element": "S", "occu": 1}], "abc": [0.77678174, 0.57881159, 0.20940807], "xyz": [10.17062552910404, 8.083859203474951, 9.70069000519959], "label": "S", "properties": {}}, {"species": [{"element": "S", "occu": 1}], "abc": [0.87181779, 0.89187341, 0.20339497], "xyz": [12.341783594481381, 12.45617606545005, 9.42213713438489], "label": "S", "properties": {}}, {"species": [{"element": "S", "occu": 1}], "abc": [0.72970451, 0.34078812, 0.24716464000000002], "xyz": [8.77777467837738, 4.759550824296601, 11.449738077843682], "label": "S", "properties": {}}, {"species": [{"element": "S", "occu": 1}], "abc": [0.60303696, 0.01053806, 0.26526611], "xyz": [6.21687231335456, 0.1471777600683, 12.28827667431907], "label": "S", "properties": {}}, {"species": [{"element": "S", "occu": 1}], "abc": [0.31669224, 0.06832039, 0.22204257000000002], "xyz": [3.5050835654286403, 0.9541834044589499, 10.285974841026091], "label": "S", "properties": {}}, {"species": [{"element": "S", "occu": 1}], "abc": [0.01246171, 0.28536559, 0.29116338999999997], "xyz": [1.21943304275962, 3.98550286644495, 13.487951000422429], "label": "S", "properties": {}}, {"species": [{"element": "S", "occu": 1}], "abc": [0.16779475, 0.8463064, 0.24345234000000002], "xyz": [4.9565509602193005, 11.819773305852001, 11.277768241598581], "label": "S", "properties": {}}, {"species": [{"element": "S", "occu": 1}], "abc": [0.16979116, 0.50980735, 0.26632019], "xyz": [3.68956980460744, 7.12012494134175, 12.33710623146403], "label": "S", "properties": {}}, {"species": [{"element": "S", "occu": 1}], "abc": [0.09579536, 0.68367672, 0.20082776000000002], "xyz": [3.59689005063648, 9.5484375929196, 9.30321283319512], "label": "S", "properties": {}}, {"species": [{"element": "S", "occu": 1}], "abc": [0.57046533, 0.79624009, 0.2098828], "xyz": [8.8893184473223, 11.12053195016745, 9.7226815577036], "label": "S", "properties": {}}, {"species": [{"element": "S", "occu": 1}], "abc": [0.3920452, 0.22655688, 0.26473649], "xyz": [4.88228499326256, 3.1641624859284, 12.26374237895713], "label": "S", "properties": {}}, {"species": [{"element": "S", "occu": 1}], "abc": [0.94113765, 0.12464122, 0.24819628000000002], "xyz": [10.116392767228541, 1.7407772940921, 11.497528116866361], "label": "S", "properties": {}}, {"species": [{"element": "S", "occu": 1}], "abc": [0.47000861, 0.59831586, 0.23554865000000003], "xyz": [7.10315052838326, 8.356261787097301, 10.911635042495051], "label": "S", "properties": {}}, {"species": [{"element": "S", "occu": 1}], "abc": [0.84888363, 0.75796754, 0.2740892], "xyz": [11.5945650018809, 10.5860058437397, 12.697000468860399], "label": "S", "properties": {}}, {"species": [{"element": "S", "occu": 1}], "abc": [0.06998012, 0.34156666, 0.20659393], "xyz": [2.02358300677, 4.770424151391301, 9.570326835474411], "label": "S", "properties": {}}, {"species": [{"element": "S", "occu": 1}], "abc": [0.59136918, 0.13767804, 0.20471143], "xyz": [6.583797540894601, 1.9228534984422, 9.48312127107191], "label": "S", "properties": {}}, {"species": [{"element": "S", "occu": 1}], "abc": [0.45140056, 0.45387023, 0.31033499999999997], "xyz": [6.359917129560801, 6.33889006260015, 14.376063122895], "label": "S", "properties": {}}, {"species": [{"element": "S", "occu": 1}], "abc": [0.54723507, 0.76931863, 0.30377794999999996], "xyz": [8.548384293344741, 10.74453862876215, 14.072312128969148], "label": "S", "properties": {}}, {"species": [{"element": "S", "occu": 1}], "abc": [0.40533246, 0.21248463, 0.34638793], "xyz": [4.9645388580762, 2.9676251503921502, 16.04619120205241], "label": "S", "properties": {}}, {"species": [{"element": "S", "occu": 1}], "abc": [0.27854581, 0.89202386, 0.36491762], "xyz": [6.26582197520006, 12.4582772960373, 16.90456680611794], "label": "S", "properties": {}}, {"species": [{"element": "S", "occu": 1}], "abc": [0.98729129, 0.94021211, 0.32345164], "xyz": [13.709452533452781, 13.131289092953551, 14.983682774562679], "label": "S", "properties": {}}, {"species": [{"element": "S", "occu": 1}], "abc": [0.69570192, 0.1685298, 0.38818607], "xyz": [7.77045401060448, 2.353738588389, 17.98246232538559], "label": "S", "properties": {}}, {"species": [{"element": "S", "occu": 1}], "abc": [0.84024211, 0.71976085, 0.34469416999999997], "xyz": [11.359878014432741, 10.05239955815925, 15.967728893015288], "label": "S", "properties": {}}, {"species": [{"element": "S", "occu": 1}], "abc": [0.85600317, 0.38456956, 0.36663449], "xyz": [10.238883529673501, 5.371015768675799, 16.984099670583127], "label": "S", "properties": {}}, {"species": [{"element": "S", "occu": 1}], "abc": [0.7663514, 0.55746117, 0.30237889], "xyz": [9.98210798656344, 7.785672725876849, 14.00750160204593], "label": "S", "properties": {}}, {"species": [{"element": "S", "occu": 1}], "abc": [0.23983799, 0.66975617, 0.30929981], "xyz": [5.0189749446317, 9.35401894585185, 14.32810863247597], "label": "S", "properties": {}}, {"species": [{"element": "S", "occu": 1}], "abc": [0.06260274, 0.10232485, 0.36506652], "xyz": [1.0326931451215602, 1.42910006417925, 16.91146449989724], "label": "S", "properties": {}}, {"species": [{"element": "S", "occu": 1}], "abc": [0.62336754, 0.99905935, 0.34958128], "xyz": [10.207141537092761, 13.95316759520175, 16.19412102361136], "label": "S", "properties": {}}, {"species": [{"element": "S", "occu": 1}], "abc": [0.14579878, 0.47080459, 0.33725399], "xyz": [3.2946072281746, 6.57540049933995, 15.62306748735463], "label": "S", "properties": {}}, {"species": [{"element": "S", "occu": 1}], "abc": [0.51749128, 0.63205129, 0.36945964], "xyz": [7.7185578282280005, 8.827421091783451, 17.11497287125868], "label": "S", "properties": {}}, {"species": [{"element": "S", "occu": 1}], "abc": [0.73938264, 0.21523035, 0.30798451], "xyz": [8.396524091336161, 3.00597271335675, 14.26717823201987], "label": "S", "properties": {}}, {"species": [{"element": "S", "occu": 1}], "abc": [0.25572535, 0.01557964, 0.30361083], "xyz": [2.67885185981218, 0.2175900040302, 14.06457040576971], "label": "S", "properties": {}}, {"species": [{"element": "S", "occu": 1}], "abc": [0.12835879, 0.33244855, 0.41288927999999997], "xyz": [2.58663606248866, 4.64307784610775, 19.12682215040736], "label": "S", "properties": {}}, {"species": [{"element": "S", "occu": 1}], "abc": [0.21811269, 0.64993395, 0.40135751], "xyz": [4.720616565504059, 9.07717577555475, 18.59262055072087], "label": "S", "properties": {}}, {"species": [{"element": "S", "occu": 1}], "abc": [0.03341115, 0.09236961, 0.45023825], "xyz": [0.69561252463482, 1.2900621459910502, 20.85698842329025], "label": "S", "properties": {}}, {"species": [{"element": "S", "occu": 1}], "abc": [0.96447485, 0.77333591, 0.46805121], "xyz": [12.83729677782422, 10.80064518651255, 21.68216198529777], "label": "S", "properties": {}}, {"species": [{"element": "S", "occu": 1}], "abc": [0.68119851, 0.80313071, 0.42713587], "xyz": [10.04985670178906, 11.216768450726551, 19.78678598666819], "label": "S", "properties": {}}, {"species": [{"element": "S", "occu": 1}], "abc": [0.33378955, 0.09024412, 0.47885034], "xyz": [3.76408043137594, 1.2603769043766, 22.182424522724578], "label": "S", "properties": {}}, {"species": [{"element": "S", "occu": 1}], "abc": [0.50765426, 0.6156992, 0.44047483], "xyz": [7.55524068542204, 8.599042815456, 20.40470446493771], "label": "S", "properties": {}}, {"species": [{"element": "S", "occu": 1}], "abc": [0.44065827, 0.43651373, 0.40207540999999997], "xyz": [6.18348501218474, 6.09648388986765, 18.62587679225317], "label": "S", "properties": {}}, {"species": [{"element": "S", "occu": 1}], "abc": [0.91332123, 0.54597703, 0.40989536], "xyz": [11.443496062531779, 7.62528172397415, 18.98813079137632], "label": "S", "properties": {}}, {"species": [{"element": "S", "occu": 1}], "abc": [0.72670604, 0.98053264, 0.46536704], "xyz": [11.19469493305384, 13.694417912695199, 21.557819589652482], "label": "S", "properties": {}}, {"species": [{"element": "S", "occu": 1}], "abc": [0.29152411, 0.89420757, 0.4474351], "xyz": [6.4071058664581795, 12.48877565592885, 20.7271343580287], "label": "S", "properties": {}}, {"species": [{"element": "S", "occu": 1}], "abc": [0.81355013, 0.34966635, 0.43743653], "xyz": [9.670523912329019, 4.88354689233675, 20.26395723183061], "label": "S", "properties": {}}, {"species": [{"element": "S", "occu": 1}], "abc": [0.42808447, 0.09756547, 0.40957695], "xyz": [4.75789917378802, 1.36262911148835, 18.97338065923215], "label": "S", "properties": {}}, {"species": [{"element": "S", "occu": 1}], "abc": [0.9358383, 0.8922626, 0.40548362], "xyz": [12.998997184651401, 12.461611611693, 18.783759860859938], "label": "S", "properties": {}}, {"species": [{"element": "S", "occu": 1}], "abc": [0.13084261, 0.96792323, 0.5113525999999999], "xyz": [5.0433719981255, 13.51831104676515, 23.688070168226197], "label": "S", "properties": {}}]}, "formula": "(Li3PS4)18.0", "bandgap": 1.8299, "slab_thickness": 23.683437734526198}