{"miller": "111_0.40", "final_energy": -698.34531456, "gamma": 0.01839161559794224, "work_function": "Not calculated", "ionization_potentail": "Not calculated", "electron_affinity": "Not calculated", "is_stochiometric": true, "incar_parameters": {"SYSTEM": "unknown system", "LCOMPAT": false, "PREC": "normal", "ENMAX": 520.0, "ENAUG": 628.945, "EDIFF": 1e-05, "IALGO": 38, "IWAVPR": 11, "NBANDS": 462, "NBANDSLOW": -1, "NBANDSHIGH": -1, "NELECT": 760.0, "TURBO": 0, "IRESTART": 0, "NREBOOT": 0, "NMIN": 0, "EREF": 0.0, "ISMEAR": 0, "SIGMA": 0.05, "KSPACING": 0.5, "KGAMMA": true, "KBLOWUP": true, "LREAL": true, "ROPT": [-0.0005, -0.0005, -0.0005], "LMAXPAW": -100, "LMAXMIX": 2, "NLSPLINE": false, "ISTART": 0, "ICHARG": 2, "INIWAV": 1, "ISPIN": 1, "LNONCOLLINEAR": false, "MAGMOM": [0.6, 0.6, 0.6, 0.6, 0.6, 0.6, 0.6, 0.6, 0.6, 0.6, 0.6, 0.6, 0.6, 0.6, 0.6, 0.6, 0.6, 0.6, 0.6, 0.6, 0.6, 0.6, 0.6, 0.6, 0.6, 0.6, 0.6, 0.6, 0.6, 0.6, 0.6, 0.6, 0.6, 0.6, 0.6, 0.6, 0.6, 0.6, 0.6, 0.6, 0.6, 0.6, 0.6, 0.6, 0.6, 0.6, 0.6, 0.6, 0.6, 0.6, 0.6, 0.6, 0.6, 0.6, 0.6, 0.6, 0.6, 0.6, 0.6, 0.6, 0.6, 0.6, 0.6, 0.6, 0.6, 0.6, 0.6, 0.6, 0.6, 0.6, 0.6, 0.6, 0.6, 0.6, 0.6, 0.6, 0.6, 0.6, 0.6, 0.6, 0.6, 0.6, 0.6, 0.6, 0.6, 0.6, 0.6, 0.6, 0.6, 0.6, 0.6, 0.6, 0.6, 0.6, 0.6, 0.6, 0.6, 0.6, 0.6, 0.6, 0.6, 0.6, 0.6, 0.6, 0.6, 0.6, 0.6, 0.6, 0.6, 0.6, 0.6, 0.6, 0.6, 0.6, 0.6, 0.6, 0.6, 0.6, 0.6, 0.6, 0.6, 0.6, 0.6, 0.6, 0.6, 0.6, 0.6, 0.6, 0.6, 0.6, 0.6, 0.6, 0.6, 0.6, 0.6, 0.6, 0.6, 0.6, 0.6, 0.6, 0.6, 0.6, 0.6, 0.6, 0.6, 0.6, 0.6, 0.6, 0.6, 0.6, 0.6, 0.6, 0.6, 0.6, 0.6, 0.6, 0.6, 0.6, 0.6, 0.6], "NUPDOWN": -1.0, "LSORBIT": false, "SAXIS": [0.0, 0.0, 1.0], "LSPIRAL": false, "QSPIRAL": [0.0, 0.0, 0.0], "LZEROZ": false, "LASPH": false, "LMETAGGA": false, "NELM": 100, "NELMDL": -5, "NELMIN": 6, "ENINI": 520.0, "LDIAG": true, "LSUBROT": false, "WEIMIN": 0.001, "EBREAK": 1e-08, "DEPER": 0.3, "NRMM": 4, "TIME": 0.4, "AMIX": 0.4, "BMIX": 1.0, "AMIN": 0.1, "AMIX_MAG": 1.6, "BMIX_MAG": 1.0, "IMIX": 4, "MIXFIRST": false, "MAXMIX": -45, "WC": 100.0, "INIMIX": 1, "MIXPRE": 1, "MREMOVE": 5, "LDIPOL": false, "LMONO": false, "IDIPOL": 0, "EPSILON": 1.0, "DIPOL": [-100.0, -100.0, -100.0], "EFIELD": 0.0, "NGX": 60, "NGY": 84, "NGZ": 270, "NGXF": 120, "NGYF": 168, "NGZF": 540, "ADDGRID": false, "NSW": 150, "IBRION": 2, "MDALGO": 0, "ISIF": 2, "PSTRESS": 0.0, "EDIFFG": -0.01, "NFREE": 1, "POTIM": 0.5, "SMASS": -3.0, "SCALEE": 1.0, "TEBEG": 0.0001, "TEEND": 0.0001, "NBLOCK": 1, "KBLOCK": 150, "NPACO": 256, "APACO": 10.0, "ISYM": 0, "SYMPREC": 1e-05, "LORBIT": 11, "RWIGS": [-1.0, -1.0, -1.0], "NEDOS": 301, "EMIN": 10.0, "EMAX": -10.0, "EFERMI": 0.0, "NWRITE": 2, "LWAVE": false, "LDOWNSAMPLE": false, "LCHARG": false, "LPARD": false, "LVTOT": false, "LVHAR": false, "LELF": false, "LOPTICS": false, "STM": [0.0, 0.0, 0.0, 0.0, 0.0, 0.0, 0.0], "NPAR": 2, "NSIM": 4, "NBLK": -1, "LPLANE": true, "LSCALAPACK": true, "LSCAAWARE": false, "LSCALU": false, "LASYNC": false, "LORBITALREAL": false, "IDIOT": 3, "PHON_NSTRUCT": -1, "LMUSIC": false, "POMASS": [7.01, 30.974, 32.066], "DARWINR": [0.0, 0.0, 0.0], "DARWINV": [1.0, 1.0, 1.0], "LCORR": true, "GGA_COMPAT": true, "LBERRY": false, "ICORELEVEL": 0, "LDAU": false, "I_CONSTRAINED_M": 0, "GGA": "--", "VOSKOWN": 0, "LHFCALC": false, "PRECFOCK": "", "LSYMGRAD": false, "LHFONE": false, "LRHFCALC": false, "LTHOMAS": false, "LMODELHF": false, "LFOCKACE": false, "ENCUT4O": -1.0, "EXXOEP": 0, "FOURORBIT": 0, "AEXX": 0.0, "HFALPHA": 0.0, "MCALPHA": 0.0, "ALDAX": 1.0, "AGGAX": 1.0, "ALDAC": 1.0, "AGGAC": 1.0, "NKREDX": 1, "NKREDY": 1, "NKREDZ": 1, "SHIFTRED": false, "ODDONLY": false, "EVENONLY": false, "LMAXFOCK": 0, "NMAXFOCKAE": 0, "LFOCKAEDFT": false, "HFSCREEN": 0.0, "HFSCREENC": 0.0, "NBANDSGWLOW": 0, "LUSE_VDW": false, "Zab_VDW": -0.8491, "PARAM1": 0.1234, "PARAM2": 1.0, "PARAM3": 0.0, "MODEL_GW": 0, "MODEL_EPS0": 24.84988185, "MODEL_ALPHA": 1.0, "LEPSILON": false, "LRPA": false, "LNABLA": false, "LVEL": false, "CSHIFT": 0.1, "OMEGAMAX": -1.0, "DEG_THRESHOLD": 0.002, "RTIME": -0.1, "WPLASMAI": 0.0, "DFIELD": [0.0, 0.0, 0.0], "WPLASMA": [0.0, 0.0, 0.0, 0.0, 0.0, 0.0, 0.0, 0.0, 0.0], "NUCIND": false, "MAGPOS": [0.0, 0.0, 0.0], "LNICSALL": true, "ORBITALMAG": false, "LMAGBLOCH": false, "LCHIMAG": false, "LGAUGE": true, "MAGATOM": 0, "MAGDIPOL": [0.0, 0.0, 0.0], "AVECCONST": [0.0, 0.0, 0.0], "LFINITE_TEMPERATURE": false, "LADDER": false, "LRPAFORCE": false, "LFXC": false, "LHARTREE": true, "IBSE": 0, "KPOINT": [-1, 0, 0, 0], "LTCTC": false, "LTCTE": false, "LTETE": false, "LTRIPLET": false, "LFXCEPS": false, "LFXHEG": false, "NATURALO": 2, "LHOLEGF": false, "L2ORDER": false, "LDMP1": false, "LMP2LT": false, "LSMP2LT": false, "LGWLF": false, "ENCUTGW": -2.0, "ENCUTGWSOFT": -2.0, "ENCUTLF": -1.0, "LESF_SPLINES": false, "LMAXMP2": -1, "SCISSOR": 0.0, "NOMEGA": 0, "NOMEGAR": 0, "NBANDSGW": -1, "NBANDSO": -1, "NBANDSV": -1, "NELMGW": 1, "NELMHF": 1, "DIM": 3, "IESPILON": 4, "ANTIRES": 0, "OMEGAMIN": -30.0, "OMEGATL": -200.0, "OMEGAGRID": 0, "LSELFENERGY": false, "LSPECTRAL": false, "LSPECTRALGW": false, "LSINGLES": false, "LFERMIGW": false, "ODDONLYGW": false, "EVENONLYGW": false, "NKREDLFX": 1, "NKREDLFY": 1, "NKREDLFZ": 1, "MAXMEM": 2800, "TELESCOPE": 0, "NTAUPAR": -1, "NOMEGAPAR": -1, "DAMP_NEWTON": 0.80000001, "LAMBDA": 1.0, "OFIELD_KAPPA": 0.0, "OFIELD_K": [0.0, 0.0, 0.0], "OFIELD_Q6_NEAR": 0.0, "OFIELD_Q6_FAR": 0.0, "OFIELD_A": 0.0, "KPOINTS_OPT_MODE": 1, "LKPOINTS_OPT": false, "@module": "pymatgen.io.vasp.inputs", "@class": "Incar"}, "relaxed_structures": {"@module": "pymatgen.core.structure", "@class": "Structure", "charge": 0, "lattice": {"matrix": [[10.242414, 0.0, 0.0], [3.825952, 13.966305, 0.0], [0.0, 0.0, 46.324337]], "a": 10.242414, "b": 14.48086958919695, "c": 46.324337, "alpha": 90.0, "beta": 90.0, "gamma": 74.68014200345522, "volume": 6626.635160603587}, "sites": [{"species": [{"element": "Li", "occu": 1}], "abc": [0.83517411, 0.77754534, 0.04926938999999998], "xyz": [11.52905014536522, 10.8594353697687, 2.2823718261444292], "label": "Li", "properties": {}}, {"species": [{"element": "Li", "occu": 1}], "abc": [0.82243628, 0.06311892, 0.06511378999999999], "xyz": [8.66522282659176, 0.8815380879906, 3.0163531513072295], "label": "Li", "properties": {}}, {"species": [{"element": "Li", "occu": 1}], "abc": [0.71099311, 0.55469577, 0.08721105999999999], "xyz": [9.40452517439058, 7.74705030602985, 4.03999453356722], "label": "Li", "properties": {}}, {"species": [{"element": "Li", "occu": 1}], "abc": [0.80116031, 0.29929633, 0.03327395999999998], "xyz": [9.3509089677445, 4.18006383016065, 1.541394136364519], "label": "Li", "properties": {}}, {"species": [{"element": "Li", "occu": 1}], "abc": [0.25403765, 0.21672442, 0.07977527999999999], "xyz": [3.4311360110349405, 3.0268393506681, 3.6955369549893597], "label": "Li", "properties": {}}, {"species": [{"element": "Li", "occu": 1}], "abc": [0.28304851, 0.69283135, 0.02642885999999998], "xyz": [5.549839510698339, 9.67629394766175, 1.224299417165819], "label": "Li", "properties": {}}, {"species": [{"element": "Li", "occu": 1}], "abc": [0.58875935, 0.75542813, 0.01704260999999998], "xyz": [8.920548773900661, 10.55053966915965, 0.789487608999569], "label": "Li", "properties": {}}, {"species": [{"element": "Li", "occu": 1}], "abc": [0.90695923, 0.46137163, 0.02522811999999998], "xyz": [11.054637625322979, 6.44365690292715, 1.168675932756439], "label": "Li", "properties": {}}, {"species": [{"element": "Li", "occu": 1}], "abc": [0.37720624, 0.42350983, 0.06502991999999999], "xyz": [5.48383075457152, 5.91486745627815, 3.0124679291630394], "label": "Li", "properties": {}}, {"species": [{"element": "Li", "occu": 1}], "abc": [0.32763464, 0.92308038, 0.07235239999999998], "xyz": [6.88743084964272, 12.8920221265959, 3.351676960358799], "label": "Li", "properties": {}}, {"species": [{"element": "Li", "occu": 1}], "abc": [0.47529675, 0.64825486, 0.15008566999999995], "xyz": [7.348378064481221, 9.0537250924923, 6.952619155950788], "label": "Li", "properties": {}}, {"species": [{"element": "Li", "occu": 1}], "abc": [0.48840251, 0.947113, 0.16879605999999997], "xyz": [8.626029582635141, 13.227669027465, 7.819365567712219], "label": "Li", "properties": {}}, {"species": [{"element": "Li", "occu": 1}], "abc": [0.40164764, 0.42318534, 0.19020492999999997], "xyz": [5.73292820894664, 5.9103355299687, 8.811117276381408], "label": "Li", "properties": {}}, {"species": [{"element": "Li", "occu": 1}], "abc": [0.54393898, 0.1561921, 0.12951496999999998], "xyz": [6.16883170127692, 2.1814265071905, 5.999695116824889], "label": "Li", "properties": {}}, {"species": [{"element": "Li", "occu": 1}], "abc": [0.92548489, 0.10160399, 0.18534785999999995], "xyz": [9.867931382872941, 1.41903231355695, 8.586116728868818], "label": "Li", "properties": {}}, {"species": [{"element": "Li", "occu": 1}], "abc": [0.02145638, 0.50185244, 0.13087863], "xyz": [2.1398284734242, 7.009024242034199, 6.06286576221831], "label": "Li", "properties": {}}, {"species": [{"element": "Li", "occu": 1}], "abc": [0.09425335, 0.02943793, 0.11320591999999999], "xyz": [1.07800993874626, 0.41113910894865, 5.24418918847504], "label": "Li", "properties": {}}, {"species": [{"element": "Li", "occu": 1}], "abc": [0.1862199, 0.68380938, 0.10883882999999998], "xyz": [4.52356317586836, 9.5502903629409, 5.04188663960571], "label": "Li", "properties": {}}, {"species": [{"element": "Li", "occu": 1}], "abc": [0.68043446, 0.85963452, 0.10599422999999998], "xyz": [10.258211850249479, 12.005917894848599, 4.910112430575509], "label": "Li", "properties": {}}, {"species": [{"element": "Li", "occu": 1}], "abc": [0.65238523, 0.33828187, 0.12096734999999999], "xyz": [7.97624981023546, 4.72454777239035, 5.60373228739695], "label": "Li", "properties": {}}, {"species": [{"element": "Li", "occu": 1}], "abc": [0.02296583, 0.30520567, 0.15883180999999996], "xyz": [1.4029277822614599, 4.26259547494935, 7.357778292759968], "label": "Li", "properties": {}}, {"species": [{"element": "Li", "occu": 1}], "abc": [0.97447717, 0.80268104, 0.14983278999999997], "xyz": [13.052017739038458, 11.210488222357199, 6.940904657610228], "label": "Li", "properties": {}}, {"species": [{"element": "Li", "occu": 1}], "abc": [0.15111509, 0.51514164, 0.24841450999999995], "xyz": [3.51869050126854, 7.1946252624402, 11.507637476929867], "label": "Li", "properties": {}}, {"species": [{"element": "Li", "occu": 1}], "abc": [0.15351467, 0.82920958, 0.27053219], "xyz": [4.74487685623354, 11.5809939032019, 12.53222433890803], "label": "Li", "properties": {}}, {"species": [{"element": "Li", "occu": 1}], "abc": [0.07827508, 0.30542407, 0.29100153], "xyz": [1.97026360670776, 4.26564571596135, 13.48045294323561], "label": "Li", "properties": {}}, {"species": [{"element": "Li", "occu": 1}], "abc": [0.22051686, 0.03857809, 0.22870115999999996], "xyz": [2.40622289469172, 0.5387933712574501, 10.594429608130918], "label": "Li", "properties": {}}, {"species": [{"element": "Li", "occu": 1}], "abc": [0.60220103, 0.97424108, 0.28583198], "xyz": [9.89539186899458, 13.6065480668094, 13.240976966897259], "label": "Li", "properties": {}}, {"species": [{"element": "Li", "occu": 1}], "abc": [0.70105016, 0.37931361, 0.23292044999999995], "xyz": [8.63168163829296, 5.29760956791105, 10.789885419991647], "label": "Li", "properties": {}}, {"species": [{"element": "Li", "occu": 1}], "abc": [0.77935343, 0.89575598, 0.21130604999999997], "xyz": [11.40957986557298, 12.5104012222539, 9.788612670338848], "label": "Li", "properties": {}}, {"species": [{"element": "Li", "occu": 1}], "abc": [0.85781195, 0.57579885, 0.20617987999999995], "xyz": [10.989043887802499, 8.04178235774925, 9.551146243739558], "label": "Li", "properties": {}}, {"species": [{"element": "Li", "occu": 1}], "abc": [0.27309313, 0.74149887, 0.21114713999999996], "xyz": [5.6340719826900605, 10.355999375575351, 9.781251269946178], "label": "Li", "properties": {}}, {"species": [{"element": "Li", "occu": 1}], "abc": [0.33065219, 0.21427232, 0.21920495999999995], "xyz": [4.2064722312353, 2.9925925741776, 10.154524439111517], "label": "Li", "properties": {}}, {"species": [{"element": "Li", "occu": 1}], "abc": [0.67965105, 0.18116102, 0.25927781], "xyz": [7.654380796425741, 2.5301500594311, 12.01087264706197], "label": "Li", "properties": {}}, {"species": [{"element": "Li", "occu": 1}], "abc": [0.6569313, 0.67083458, 0.26866439999999997], "xyz": [9.295143247178359, 9.3690803488269, 12.4457002055028], "label": "Li", "properties": {}}, {"species": [{"element": "Li", "occu": 1}], "abc": [0.81806475, 0.39752379, 0.35046986999999996], "xyz": [9.89986478770458, 5.55193849589595, 16.23528436622619], "label": "Li", "properties": {}}, {"species": [{"element": "Li", "occu": 1}], "abc": [0.83061377, 0.69884889, 0.36782904], "xyz": [11.18125241483406, 9.760336746651449, 17.03943640734648], "label": "Li", "properties": {}}, {"species": [{"element": "Li", "occu": 1}], "abc": [0.76041112, 0.18995751, 0.39058566], "xyz": [8.5152138165432, 2.65300452170055, 18.09362174120742], "label": "Li", "properties": {}}, {"species": [{"element": "Li", "occu": 1}], "abc": [0.90732161, 0.92248861, 0.32964614999999997], "xyz": [12.822560703173261, 12.88375728628605, 15.27063934335255], "label": "Li", "properties": {}}, {"species": [{"element": "Li", "occu": 1}], "abc": [0.28330374, 0.84475293, 0.38928125999999996], "xyz": [6.13369835486772, 11.79807707002365, 18.03319627602462], "label": "Li", "properties": {}}, {"species": [{"element": "Li", "occu": 1}], "abc": [0.37885188, 0.24134619, 0.33349607], "xyz": [4.8037367379611995, 3.3707145001279497, 15.44898433485559], "label": "Li", "properties": {}}, {"species": [{"element": "Li", "occu": 1}], "abc": [0.43403413, 0.77620726, 0.31446876], "xyz": [7.41528896840134, 10.8407473363743, 14.567556814212121], "label": "Li", "properties": {}}, {"species": [{"element": "Li", "occu": 1}], "abc": [0.51841334, 0.44726338, 0.30873034], "xyz": [7.021012274640519, 6.2466167804109, 14.30172831228458], "label": "Li", "properties": {}}, {"species": [{"element": "Li", "occu": 1}], "abc": [0.0386547, 0.60337994, 0.30783906], "xyz": [2.70442012864868, 8.4269882729217, 14.260440357203219], "label": "Li", "properties": {}}, {"species": [{"element": "Li", "occu": 1}], "abc": [0.97769524, 0.12719633, 0.30213402], "xyz": [10.50060646706552, 1.77646273966065, 13.99615816164474], "label": "Li", "properties": {}}, {"species": [{"element": "Li", "occu": 1}], "abc": [0.27772886, 0.04255506, 0.36096627], "xyz": [3.0074275807851603, 0.5943369472533, 16.72152313711299], "label": "Li", "properties": {}}, {"species": [{"element": "Li", "occu": 1}], "abc": [0.32966047, 0.53978266, 0.37044910999999997], "xyz": [5.4417015607669, 7.538769263271299, 17.16080941299007], "label": "Li", "properties": {}}, {"species": [{"element": "Li", "occu": 1}], "abc": [0.48085579, 0.28560443, 0.4538029], "xyz": [6.017832915644421, 3.9888385787311504, 21.0221184711773], "label": "Li", "properties": {}}, {"species": [{"element": "Li", "occu": 1}], "abc": [0.47037368, 0.56812731, 0.47040815999999996], "xyz": [6.991389783212641, 7.93463929028955, 21.79134613138992], "label": "Li", "properties": {}}, {"species": [{"element": "Li", "occu": 1}], "abc": [0.50287059, 0.04788158, 0.48580335999999996], "xyz": [5.33380139796842, 0.6687287501619, 22.50451856437232], "label": "Li", "properties": {}}, {"species": [{"element": "Li", "occu": 1}], "abc": [0.59346026, 0.79228273, 0.4317043], "xyz": [9.1097013708766, 11.065262253412651, 19.9984154775491], "label": "Li", "properties": {}}, {"species": [{"element": "Li", "occu": 1}], "abc": [0.021285, 0.65420288, 0.49293237], "xyz": [2.7209585991317597, 9.1367969539584, 22.83476522608869], "label": "Li", "properties": {}}, {"species": [{"element": "Li", "occu": 1}], "abc": [0.05080384, 0.12958318, 0.44031096], "xyz": [1.01613298875712, 1.8097982147498999, 20.39711329583352], "label": "Li", "properties": {}}, {"species": [{"element": "Li", "occu": 1}], "abc": [0.12056482, 0.66285794, 0.41085658999999997], "xyz": [3.77093746153436, 9.2576761617117, 19.03265913383083], "label": "Li", "properties": {}}, {"species": [{"element": "Li", "occu": 1}], "abc": [0.20626246, 0.3182397, 0.40680025999999997], "xyz": [3.3301953246728404, 4.444632713308501, 18.84475233592762], "label": "Li", "properties": {}}, {"species": [{"element": "Li", "occu": 1}], "abc": [0.62346586, 0.48872441, 0.41296179], "xyz": [8.25563158687436, 6.82567417100505, 19.13018112808323], "label": "Li", "properties": {}}, {"species": [{"element": "Li", "occu": 1}], "abc": [0.65149394, 0.00782532, 0.39830883], "xyz": [6.7028099506758005, 0.10929080584260001, 18.45139247099571], "label": "Li", "properties": {}}, {"species": [{"element": "Li", "occu": 1}], "abc": [0.92300712, 0.92499384, 0.45484821], "xyz": [12.992803080123359, 12.9187460925612, 21.07054176388677], "label": "Li", "properties": {}}, {"species": [{"element": "Li", "occu": 1}], "abc": [0.97334475, 0.42577644, 0.44742189], "xyz": [11.59840011639738, 5.9465236228542, 20.72652241353693], "label": "Li", "properties": {}}, {"species": [{"element": "Li", "occu": 1}], "abc": [0.71511518, 0.59061758, 0.50200278], "xyz": [9.584180242680679, 8.2487452606419, 23.254945955656858], "label": "Li", "properties": {}}, {"species": [{"element": "Li", "occu": 1}], "abc": [0.395961, 0.88569306, 0.49387417], "xyz": [7.4442156241471205, 12.3698594123433, 22.87839348667529], "label": "Li", "properties": {}}, {"species": [{"element": "P", "occu": 1}], "abc": [0.0828274, 0.82985512, 0.06352778999999999], "xyz": [4.02333837741784, 11.5900097117316, 2.9428827528252293], "label": "P", "properties": {}}, {"species": [{"element": "P", "occu": 1}], "abc": [0.56682707, 0.01602296, 0.056005289999999985], "xyz": [5.866980593204899, 0.22378154636279998, 2.594407927742729], "label": "P", "properties": {}}, {"species": [{"element": "P", "occu": 1}], "abc": [0.61806274, 0.54855397, 0.02270858999999998], "xyz": [8.4291956196838, 7.661272053980849, 1.051960375954829], "label": "P", "properties": {}}, {"species": [{"element": "P", "occu": 1}], "abc": [0.93970639, 0.29450056, 0.08997596999999999], "xyz": [10.75160689135858, 4.1130846436308, 4.16807715618189], "label": "P", "properties": {}}, {"species": [{"element": "P", "occu": 1}], "abc": [0.73115971, 0.70630626, 0.15857678999999997], "xyz": [10.19113429799946, 9.8644886505693, 7.345964660338228], "label": "P", "properties": {}}, {"species": [{"element": "P", "occu": 1}], "abc": [0.22880198, 0.89020059, 0.15956666999999997], "xyz": [5.7493493308914, 12.43281295111995, 7.391820195047789], "label": "P", "properties": {}}, {"species": [{"element": "P", "occu": 1}], "abc": [0.323663, 0.42203776, 0.12685942], "xyz": [4.92978665442952, 5.8943080776768, 5.87667852370454], "label": "P", "properties": {}}, {"species": [{"element": "P", "occu": 1}], "abc": [0.62288196, 0.16811386, 0.19183654999999997], "xyz": [7.02301046634616, 2.3479294434873, 8.886700991117348], "label": "P", "properties": {}}, {"species": [{"element": "P", "occu": 1}], "abc": [0.39771902, 0.58368488, 0.26038479], "xyz": [6.3067531925200395, 8.1519210579684, 12.062152761634229], "label": "P", "properties": {}}, {"species": [{"element": "P", "occu": 1}], "abc": [0.90665025, 0.76232972, 0.26005572], "xyz": [12.20292413059694, 10.6469293800846, 12.046908812057639], "label": "P", "properties": {}}, {"species": [{"element": "P", "occu": 1}], "abc": [0.00658584, 0.29968586, 0.22765913999999995], "xyz": [1.2140386152564802, 4.1855041249473, 10.546158722490178], "label": "P", "properties": {}}, {"species": [{"element": "P", "occu": 1}], "abc": [0.29523428, 0.04520767, 0.29159933], "xyz": [3.19687409820376, 0.63138410755935, 13.508145631894209], "label": "P", "properties": {}}, {"species": [{"element": "P", "occu": 1}], "abc": [0.07584614, 0.45513131, 0.36003293999999997], "xyz": [2.51815811193908, 6.35650269050955, 16.67828724366078], "label": "P", "properties": {}}, {"species": [{"element": "P", "occu": 1}], "abc": [0.57124868, 0.63978008, 0.36015203], "xyz": [8.298733354149679, 8.935363730204399, 16.68380400895411], "label": "P", "properties": {}}, {"species": [{"element": "P", "occu": 1}], "abc": [0.68341092, 0.17735817, 0.32802331], "xyz": [7.678341419988721, 2.47703829646185, 15.19546235629547], "label": "P", "properties": {}}, {"species": [{"element": "P", "occu": 1}], "abc": [0.98139959, 0.92469846, 0.39316430999999996], "xyz": [13.58975282264418, 12.9146207253903, 18.213075992812467], "label": "P", "properties": {}}, {"species": [{"element": "P", "occu": 1}], "abc": [0.73627607, 0.3318383, 0.46309199], "xyz": [8.810841734794579, 4.634554908481499, 21.45242940676063], "label": "P", "properties": {}}, {"species": [{"element": "P", "occu": 1}], "abc": [0.22137218, 0.51640361, 0.45616186], "xyz": [4.2431209401292405, 7.212250320361051, 21.131395729186817], "label": "P", "properties": {}}, {"species": [{"element": "P", "occu": 1}], "abc": [0.36414895, 0.0530437, 0.4294342], "xyz": [3.9327069536677004, 0.7408244925285, 19.8932546001254], "label": "P", "properties": {}}, {"species": [{"element": "P", "occu": 1}], "abc": [0.68534695, 0.79749532, 0.49630381], "xyz": [10.070786010081939, 11.1380628751926, 22.99094494882397], "label": "P", "properties": {}}, {"species": [{"element": "S", "occu": 1}], "abc": [0.2832338, 0.76370796, 0.07258762999999999], "xyz": [5.8229078353711206, 10.6661783002878, 3.362573834151309], "label": "S", "properties": {}}, {"species": [{"element": "S", "occu": 1}], "abc": [0.36209451, 0.07242482, 0.053795589999999976], "xyz": [3.9858157634757796, 1.0115071256901, 2.492045040273829], "label": "S", "properties": {}}, {"species": [{"element": "S", "occu": 1}], "abc": [0.48620234, 0.64221239, 0.99627857], "xyz": [7.43695943199404, 8.969334113518949, 46.151944222558086], "label": "S", "properties": {}}, {"species": [{"element": "S", "occu": 1}], "abc": [0.78033352, 0.23943884, 0.07993469999999998], "xyz": [8.90858047869296, 3.3440758682862, 3.7029219807938993], "label": "S", "properties": {}}, {"species": [{"element": "S", "occu": 1}], "abc": [0.76762387, 0.61334357, 0.03786587999999998], "xyz": [10.20894453115082, 8.566143368408849, 1.754111785921559], "label": "S", "properties": {}}, {"species": [{"element": "S", "occu": 1}], "abc": [0.64832656, 0.03024117, 0.09664554999999998], "xyz": [6.75613029955968, 0.42235740377685005, 4.477041027750349], "label": "S", "properties": {}}, {"species": [{"element": "S", "occu": 1}], "abc": [0.03966139, 0.78513389, 0.02366088999999998], "xyz": [3.41011295290874, 10.96541937357645, 1.096075042079929], "label": "S", "properties": {}}, {"species": [{"element": "S", "occu": 1}], "abc": [0.59211504, 0.86515013, 0.05514194999999998], "xyz": [9.374710245480319, 12.08295058636965, 2.554414274637149], "label": "S", "properties": {}}, {"species": [{"element": "S", "occu": 1}], "abc": [0.06137822, 0.97505398, 0.06472808999999999], "xyz": [4.35917086471204, 13.6179012761439, 2.9984858545263293], "label": "S", "properties": {}}, {"species": [{"element": "S", "occu": 1}], "abc": [0.71801267, 0.42918234, 9.999999999998899e-05], "xyz": [8.996214055473061, 5.9940914610537, 0.00463243369999949], "label": "S", "properties": {}}, {"species": [{"element": "S", "occu": 1}], "abc": [0.9625118, 0.78153929, 0.09336333999999999], "xyz": [12.848576145139281, 10.91521609362345, 4.32499482560558], "label": "S", "properties": {}}, {"species": [{"element": "S", "occu": 1}], "abc": [0.67270627, 0.06102914, 0.02537264999999998], "xyz": [7.123630677977061, 0.8523515831277001, 1.175371189183049], "label": "S", "properties": {}}, {"species": [{"element": "S", "occu": 1}], "abc": [0.52520419, 0.52150958, 0.05967215999999999], "xyz": [7.37462936913482, 7.2835618547019, 2.7642732493579194], "label": "S", "properties": {}}, {"species": [{"element": "S", "occu": 1}], "abc": [0.03259469, 0.31913943, 0.05223420999999999], "xyz": [1.55486044966902, 4.45719861690615, 2.4197151469687697], "label": "S", "properties": {}}, {"species": [{"element": "S", "occu": 1}], "abc": [0.93511104, 0.63947986, 0.16180987999999996], "xyz": [12.02441365697728, 8.931170766117301, 7.495735411049558], "label": "S", "properties": {}}, {"species": [{"element": "S", "occu": 1}], "abc": [0.02579669, 0.95870991, 0.15682962999999997], "xyz": [3.9321984763939803, 13.389635009582552, 7.2650286317053085], "label": "S", "properties": {}}, {"species": [{"element": "S", "occu": 1}], "abc": [0.20335601, 0.51467772, 0.09783269999999998], "xyz": [4.05198869599758, 7.1881460142246, 4.532034964419899], "label": "S", "properties": {}}, {"species": [{"element": "S", "occu": 1}], "abc": [0.0826987, 0.20353595, 0.11515379999999999], "xyz": [1.6257530976362, 2.84264515616475, 5.3344234380305995], "label": "S", "properties": {}}, {"species": [{"element": "S", "occu": 1}], "abc": [0.46137107, 0.12222796, 0.17742553999999996], "xyz": [5.193191814580899, 1.7070729688878, 8.219120507366979], "label": "S", "properties": {}}, {"species": [{"element": "S", "occu": 1}], "abc": [0.47957788, 0.47124663, 0.14337688999999995], "xyz": [6.71500217874408, 6.58157416480215, 6.641839370371928], "label": "S", "properties": {}}, {"species": [{"element": "S", "occu": 1}], "abc": [0.31649483, 0.89974876, 0.19901129999999995], "xyz": [6.68406664553914, 12.5661656055318, 9.219066528008097], "label": "S", "properties": {}}, {"species": [{"element": "S", "occu": 1}], "abc": [0.64517672, 0.69582194, 0.11899985999999999], "xyz": [9.27034841238896, 9.7180614397317, 5.51258961759282], "label": "S", "properties": {}}, {"species": [{"element": "S", "occu": 1}], "abc": [0.23855551, 0.74445061, 0.15621739999999995], "xyz": [5.29161659563186, 10.39722427669605, 7.236667482863798], "label": "S", "properties": {}}, {"species": [{"element": "S", "occu": 1}], "abc": [0.72181513, 0.85233287, 0.16216208999999995], "xyz": [10.65411404156606, 11.90394082394535, 7.512051305784328], "label": "S", "properties": {}}, {"species": [{"element": "S", "occu": 1}], "abc": [0.85745882, 0.4149094, 0.11507537999999999], "xyz": [10.36987167114028, 5.794751227767, 5.33079068352306], "label": "S", "properties": {}}, {"species": [{"element": "S", "occu": 1}], "abc": [0.41667936, 0.30165073, 0.10215396999999998], "xyz": [5.42190372412, 4.21294609865265, 4.7322149321678895], "label": "S", "properties": {}}, {"species": [{"element": "S", "occu": 1}], "abc": [0.62943479, 0.65584961, 0.18984042999999995], "xyz": [8.956180832261781, 9.15979568739105, 8.794232055544908], "label": "S", "properties": {}}, {"species": [{"element": "S", "occu": 1}], "abc": [0.33052607, 0.94677757, 0.12928167999999998], "xyz": [7.00771038422962, 13.22298430977885, 5.988888112246159], "label": "S", "properties": {}}, {"species": [{"element": "S", "occu": 1}], "abc": [0.20917761, 0.39923455, 0.16086975999999997], "xyz": [3.6699359061921406, 5.57583149183775, 7.452184975349119], "label": "S", "properties": {}}, {"species": [{"element": "S", "occu": 1}], "abc": [0.73060395, 0.19646042, 0.15726898999999997], "xyz": [8.23479626275514, 2.7438261461481, 7.285381692409628], "label": "S", "properties": {}}, {"species": [{"element": "S", "occu": 1}], "abc": [0.5996567, 0.51424334, 0.26507312], "xyz": [8.109402514433482, 7.182079330658701, 12.27933654052144], "label": "S", "properties": {}}, {"species": [{"element": "S", "occu": 1}], "abc": [0.70395956, 0.82989497, 0.25643075], "xyz": [10.385383573039281, 11.59056626898585, 11.87898448016275], "label": "S", "properties": {}}, {"species": [{"element": "S", "occu": 1}], "abc": [0.88415387, 0.39788637, 0.20070018999999997], "xyz": [10.57816412931642, 5.55700239876285, 9.297303237524028], "label": "S", "properties": {}}, {"species": [{"element": "S", "occu": 1}], "abc": [0.75337256, 0.0711874, 0.21804559999999995], "xyz": [7.98871323116464, 0.994224940557, 10.100817855767197], "label": "S", "properties": {}}, {"species": [{"element": "S", "occu": 1}], "abc": [0.13572234, 0.99996861, 0.27514615], "xyz": [5.21595629869548, 13.96586659768605, 12.74596297685255], "label": "S", "properties": {}}, {"species": [{"element": "S", "occu": 1}], "abc": [0.16559272, 0.3434795, 0.24493645999999997], "xyz": [3.0102052736100804, 4.7971394582475, 11.346519116627018], "label": "S", "properties": {}}, {"species": [{"element": "S", "occu": 1}], "abc": [0.98901691, 0.77695949, 0.29991111], "xyz": [13.10253035990522, 10.85125320998445, 13.893183329684069], "label": "S", "properties": {}}, {"species": [{"element": "S", "occu": 1}], "abc": [0.31952745, 0.56848503, 0.22021738999999996], "xyz": [5.44772886476286, 7.939635316914149, 10.201424587620428], "label": "S", "properties": {}}, {"species": [{"element": "S", "occu": 1}], "abc": [0.91829634, 0.61677193, 0.25631696], "xyz": [11.765311088092119, 8.61402488981865, 11.873713233855518], "label": "S", "properties": {}}, {"species": [{"element": "S", "occu": 1}], "abc": [0.38683559, 0.72872217, 0.26444635], "xyz": [6.7501863064701, 10.17755608648185, 12.25030183581995], "label": "S", "properties": {}}, {"species": [{"element": "S", "occu": 1}], "abc": [0.53920856, 0.28576254, 0.21835422999999995], "xyz": [6.6161110653019195, 3.9910467912147003, 10.115114935895507], "label": "S", "properties": {}}, {"species": [{"element": "S", "occu": 1}], "abc": [0.09549696, 0.18300868, 0.20166445999999996], "xyz": [1.6783018253248, 2.5559550425274002, 9.341972405963018], "label": "S", "properties": {}}, {"species": [{"element": "S", "occu": 1}], "abc": [0.29251178, 0.52962289, 0.29076015], "xyz": [5.022338505878199, 7.396874816721449, 13.46927117477055], "label": "S", "properties": {}}, {"species": [{"element": "S", "occu": 1}], "abc": [0.0090912, 0.81540267, 0.22902514999999996], "xyz": [3.2128073102486403, 11.38816238703435, 10.609438230075549], "label": "S", "properties": {}}, {"species": [{"element": "S", "occu": 1}], "abc": [0.89104217, 0.27272457, 0.26153891], "xyz": [10.16985391063902, 3.80895452561385, 12.11561660545267], "label": "S", "properties": {}}, {"species": [{"element": "S", "occu": 1}], "abc": [0.40831227, 0.07267793, 0.25783372], "xyz": [4.46016558225914, 1.01504213714865, 11.94397613524364], "label": "S", "properties": {}}, {"species": [{"element": "S", "occu": 1}], "abc": [0.27841012, 0.38467679, 0.36279224], "xyz": [4.32334664488376, 5.37251337556095, 16.80610998674488], "label": "S", "properties": {}}, {"species": [{"element": "S", "occu": 1}], "abc": [0.36717199, 0.70579296, 0.3582486], "xyz": [6.46105751768178, 9.8573197462128, 16.5956288761782], "label": "S", "properties": {}}, {"species": [{"element": "S", "occu": 1}], "abc": [0.55422838, 0.27251961, 0.30126578], "xyz": [6.719283465428039, 3.8060919917410505, 13.95593751928786], "label": "S", "properties": {}}, {"species": [{"element": "S", "occu": 1}], "abc": [0.4201816, 0.94966725, 0.31889469], "xyz": [7.9370552168544, 13.26334246201125, 14.77258508707053], "label": "S", "properties": {}}, {"species": [{"element": "S", "occu": 1}], "abc": [0.82601432, 0.87550445, 0.37638245], "xyz": [11.810018636854881, 12.22756217755725, 17.43566745468565], "label": "S", "properties": {}}, {"species": [{"element": "S", "occu": 1}], "abc": [0.84426341, 0.2233624, 0.34289736], "xyz": [9.50186919127654, 3.1195474039319997, 15.884492861050319], "label": "S", "properties": {}}, {"species": [{"element": "S", "occu": 1}], "abc": [0.66158308, 0.65194455, 0.39905465], "xyz": [9.27051635571672, 9.105256428387749, 18.48594208801705], "label": "S", "properties": {}}, {"species": [{"element": "S", "occu": 1}], "abc": [0.98857404, 0.44604672, 0.32055103], "xyz": [11.83193792781, 6.2296245357696005, 14.84931393941711], "label": "S", "properties": {}}, {"species": [{"element": "S", "occu": 1}], "abc": [0.58310909, 0.49380952, 0.35683655], "xyz": [7.8617362276063, 6.8966943682236, 16.53021659611735], "label": "S", "properties": {}}, {"species": [{"element": "S", "occu": 1}], "abc": [0.06774988, 0.60060083, 0.36334297], "xyz": [2.99179226615048, 8.38817437503315, 16.83162218886089], "label": "S", "properties": {}}, {"species": [{"element": "S", "occu": 1}], "abc": [0.20570922, 0.1623004, 0.31769485999999997], "xyz": [2.72791253483788, 2.2667368880220002, 14.717003757807818], "label": "S", "properties": {}}, {"species": [{"element": "S", "occu": 1}], "abc": [0.7700017, 0.06002505, 0.30163858], "xyz": [8.1163291522014, 0.83832815594025, 13.97320723212146], "label": "S", "properties": {}}, {"species": [{"element": "S", "occu": 1}], "abc": [0.97262931, 0.40012794, 0.3904409], "xyz": [11.49294235385322, 5.588308849061701, 18.086915830183298], "label": "S", "properties": {}}, {"species": [{"element": "S", "occu": 1}], "abc": [0.6695661, 0.69348697, 0.32847433], "xyz": [9.511221056410841, 9.68545053654585, 15.216355558769209], "label": "S", "properties": {}}, {"species": [{"element": "S", "occu": 1}], "abc": [0.57426251, 0.14915551, 0.36233702], "xyz": [6.4524961938946594, 2.08315134509055, 16.78502222205574], "label": "S", "properties": {}}, {"species": [{"element": "S", "occu": 1}], "abc": [0.0970824, 0.94678546, 0.35926466], "xyz": [4.61671385717152, 13.2230945039253, 16.64269718203042], "label": "S", "properties": {}}, {"species": [{"element": "S", "occu": 1}], "abc": [0.94082726, 0.27522971, 0.46554021], "xyz": [10.689357958839562, 3.8439420749215505, 21.565841575090772], "label": "S", "properties": {}}, {"species": [{"element": "S", "occu": 1}], "abc": [0.02165556, 0.58344255, 0.44686049], "xyz": [2.45402840197944, 8.14853660327775, 20.70051593074513], "label": "S", "properties": {}}, {"species": [{"element": "S", "occu": 1}], "abc": [0.22005407, 0.14368617, 0.40446834], "xyz": [2.80362127680882, 2.00676487450185, 18.73672768799058], "label": "S", "properties": {}}, {"species": [{"element": "S", "occu": 1}], "abc": [0.10096092, 0.83251662, 0.4223916], "xyz": [4.21925216778312, 11.627181032489101, 19.5670108243692], "label": "S", "properties": {}}, {"species": [{"element": "S", "occu": 1}], "abc": [0.53525198, 0.73345515, 0.48104225], "xyz": [8.28843657153252, 10.24365832872075, 22.28396330023825], "label": "S", "properties": {}}, {"species": [{"element": "S", "occu": 1}], "abc": [0.5233053, 0.10847874, 0.43928027999999997], "xyz": [5.77494398325468, 1.5150471688557001, 20.349367728174357], "label": "S", "properties": {}}, {"species": [{"element": "S", "occu": 1}], "abc": [0.26454355, 0.56196155, 0.49589715], "xyz": [4.859602476275301, 7.84852640557275, 22.97210669393955], "label": "S", "properties": {}}, {"species": [{"element": "S", "occu": 1}], "abc": [0.65496908, 0.31799704, 0.42242525999999997], "xyz": [7.9251058857412, 4.4412436497372, 19.56857010155262], "label": "S", "properties": {}}, {"species": [{"element": "S", "occu": 1}], "abc": [0.24174413, 0.37146654, 0.45524582999999996], "xyz": [3.8972566131759, 5.1880149949347, 21.088961246764708], "label": "S", "properties": {}}, {"species": [{"element": "S", "occu": 1}], "abc": [0.71222029, 0.48262134, 0.46377786], "xyz": [9.14134115039574, 6.7404368339487, 21.48420187977882], "label": "S", "properties": {}}, {"species": [{"element": "S", "occu": 1}], "abc": [0.88816607, 0.04543757, 0.4176993], "xyz": [9.27080655150962, 0.6345949610788499, 19.3496431378641], "label": "S", "properties": {}}, {"species": [{"element": "S", "occu": 1}], "abc": [0.44652948, 0.93246776, 0.40438071999999997], "xyz": [8.141116688672241, 13.0231291388268, 18.73266874958264], "label": "S", "properties": {}}, {"species": [{"element": "S", "occu": 1}], "abc": [0.62958582, 0.28757235, 0.49369552], "xyz": [7.548716624596679, 4.01632314966675, 22.87011764387024], "label": "S", "properties": {}}, {"species": [{"element": "S", "occu": 1}], "abc": [0.34271983, 0.56372594, 0.42625114999999997], "xyz": [5.6670667724645, 7.8731684144517, 19.745801919237547], "label": "S", "properties": {}}, {"species": [{"element": "S", "occu": 1}], "abc": [0.2719207, 0.02858734, 0.46730932999999997], "xyz": [2.89449817521748, 0.3992595095787, 21.64779488616421], "label": "S", "properties": {}}, {"species": [{"element": "S", "occu": 1}], "abc": [0.77963459, 0.82370288, 0.45942003], "xyz": [11.136787920642021, 11.5040856514584, 21.28232829427011], "label": "S", "properties": {}}, {"species": [{"element": "S", "occu": 1}], "abc": [0.81661597, 0.70380961, 0.5228375399999999], "xyz": [11.0568606287503, 9.829619675191049, 24.220102399210976], "label": "S", "properties": {}}, {"species": [{"element": "S", "occu": 1}], "abc": [0.58600572, 0.91718163, 0.51882146], "xyz": [9.51120608226984, 12.80963838497715, 24.03406015587202], "label": "S", "properties": {}}]}, "formula": "(Li3PS4)20.0", "bandgap": 2.3031, "slab_thickness": 46.14731178885808}