{"miller": "111_0.35", "final_energy": -698.32784596, "gamma": 0.018452673834415748, "work_function": "Not calculated", "ionization_potentail": "Not calculated", "electron_affinity": "Not calculated", "is_stochiometric": true, "incar_parameters": {"SYSTEM": "unknown system", "LCOMPAT": false, "PREC": "normal", "ENMAX": 520.0, "ENAUG": 628.945, "EDIFF": 1e-05, "IALGO": 38, "IWAVPR": 11, "NBANDS": 462, "NBANDSLOW": -1, "NBANDSHIGH": -1, "NELECT": 760.0, "TURBO": 0, "IRESTART": 0, "NREBOOT": 0, "NMIN": 0, "EREF": 0.0, "ISMEAR": 0, "SIGMA": 0.05, "KSPACING": 0.5, "KGAMMA": true, "KBLOWUP": true, "LREAL": true, "ROPT": [-0.0005, -0.0005, -0.0005], "LMAXPAW": -100, "LMAXMIX": 2, "NLSPLINE": false, "ISTART": 0, "ICHARG": 2, "INIWAV": 1, "ISPIN": 1, "LNONCOLLINEAR": false, "MAGMOM": [0.6, 0.6, 0.6, 0.6, 0.6, 0.6, 0.6, 0.6, 0.6, 0.6, 0.6, 0.6, 0.6, 0.6, 0.6, 0.6, 0.6, 0.6, 0.6, 0.6, 0.6, 0.6, 0.6, 0.6, 0.6, 0.6, 0.6, 0.6, 0.6, 0.6, 0.6, 0.6, 0.6, 0.6, 0.6, 0.6, 0.6, 0.6, 0.6, 0.6, 0.6, 0.6, 0.6, 0.6, 0.6, 0.6, 0.6, 0.6, 0.6, 0.6, 0.6, 0.6, 0.6, 0.6, 0.6, 0.6, 0.6, 0.6, 0.6, 0.6, 0.6, 0.6, 0.6, 0.6, 0.6, 0.6, 0.6, 0.6, 0.6, 0.6, 0.6, 0.6, 0.6, 0.6, 0.6, 0.6, 0.6, 0.6, 0.6, 0.6, 0.6, 0.6, 0.6, 0.6, 0.6, 0.6, 0.6, 0.6, 0.6, 0.6, 0.6, 0.6, 0.6, 0.6, 0.6, 0.6, 0.6, 0.6, 0.6, 0.6, 0.6, 0.6, 0.6, 0.6, 0.6, 0.6, 0.6, 0.6, 0.6, 0.6, 0.6, 0.6, 0.6, 0.6, 0.6, 0.6, 0.6, 0.6, 0.6, 0.6, 0.6, 0.6, 0.6, 0.6, 0.6, 0.6, 0.6, 0.6, 0.6, 0.6, 0.6, 0.6, 0.6, 0.6, 0.6, 0.6, 0.6, 0.6, 0.6, 0.6, 0.6, 0.6, 0.6, 0.6, 0.6, 0.6, 0.6, 0.6, 0.6, 0.6, 0.6, 0.6, 0.6, 0.6, 0.6, 0.6, 0.6, 0.6, 0.6, 0.6], "NUPDOWN": -1.0, "LSORBIT": false, "SAXIS": [0.0, 0.0, 1.0], "LSPIRAL": false, "QSPIRAL": [0.0, 0.0, 0.0], "LZEROZ": false, "LASPH": false, "LMETAGGA": false, "NELM": 100, "NELMDL": -5, "NELMIN": 6, "ENINI": 520.0, "LDIAG": true, "LSUBROT": false, "WEIMIN": 0.001, "EBREAK": 1e-08, "DEPER": 0.3, "NRMM": 4, "TIME": 0.4, "AMIX": 0.4, "BMIX": 1.0, "AMIN": 0.1, "AMIX_MAG": 1.6, "BMIX_MAG": 1.0, "IMIX": 4, "MIXFIRST": false, "MAXMIX": -45, "WC": 100.0, "INIMIX": 1, "MIXPRE": 1, "MREMOVE": 5, "LDIPOL": false, "LMONO": false, "IDIPOL": 0, "EPSILON": 1.0, "DIPOL": [-100.0, -100.0, -100.0], "EFIELD": 0.0, "NGX": 60, "NGY": 84, "NGZ": 270, "NGXF": 120, "NGYF": 168, "NGZF": 540, "ADDGRID": false, "NSW": 150, "IBRION": 2, "MDALGO": 0, "ISIF": 2, "PSTRESS": 0.0, "EDIFFG": -0.01, "NFREE": 1, "POTIM": 0.5, "SMASS": -3.0, "SCALEE": 1.0, "TEBEG": 0.0001, "TEEND": 0.0001, "NBLOCK": 1, "KBLOCK": 150, "NPACO": 256, "APACO": 10.0, "ISYM": 0, "SYMPREC": 1e-05, "LORBIT": 11, "RWIGS": [-1.0, -1.0, -1.0], "NEDOS": 301, "EMIN": 10.0, "EMAX": -10.0, "EFERMI": 0.0, "NWRITE": 2, "LWAVE": false, "LDOWNSAMPLE": false, "LCHARG": false, "LPARD": false, "LVTOT": false, "LVHAR": false, "LELF": false, "LOPTICS": false, "STM": [0.0, 0.0, 0.0, 0.0, 0.0, 0.0, 0.0], "NPAR": 2, "NSIM": 4, "NBLK": -1, "LPLANE": true, "LSCALAPACK": true, "LSCAAWARE": false, "LSCALU": false, "LASYNC": false, "LORBITALREAL": false, "IDIOT": 3, "PHON_NSTRUCT": -1, "LMUSIC": false, "POMASS": [7.01, 30.974, 32.066], "DARWINR": [0.0, 0.0, 0.0], "DARWINV": [1.0, 1.0, 1.0], "LCORR": true, "GGA_COMPAT": true, "LBERRY": false, "ICORELEVEL": 0, "LDAU": false, "I_CONSTRAINED_M": 0, "GGA": "--", "VOSKOWN": 0, "LHFCALC": false, "PRECFOCK": "", "LSYMGRAD": false, "LHFONE": false, "LRHFCALC": false, "LTHOMAS": false, "LMODELHF": false, "LFOCKACE": false, "ENCUT4O": -1.0, "EXXOEP": 0, "FOURORBIT": 0, "AEXX": 0.0, "HFALPHA": 0.0, "MCALPHA": 0.0, "ALDAX": 1.0, "AGGAX": 1.0, "ALDAC": 1.0, "AGGAC": 1.0, "NKREDX": 1, "NKREDY": 1, "NKREDZ": 1, "SHIFTRED": false, "ODDONLY": false, "EVENONLY": false, "LMAXFOCK": 0, "NMAXFOCKAE": 0, "LFOCKAEDFT": false, "HFSCREEN": 0.0, "HFSCREENC": 0.0, "NBANDSGWLOW": 0, "LUSE_VDW": false, "Zab_VDW": -0.8491, "PARAM1": 0.1234, "PARAM2": 1.0, "PARAM3": 0.0, "MODEL_GW": 0, "MODEL_EPS0": 24.84988185, "MODEL_ALPHA": 1.0, "LEPSILON": false, "LRPA": false, "LNABLA": false, "LVEL": false, "CSHIFT": 0.1, "OMEGAMAX": -1.0, "DEG_THRESHOLD": 0.002, "RTIME": -0.1, "WPLASMAI": 0.0, "DFIELD": [0.0, 0.0, 0.0], "WPLASMA": [0.0, 0.0, 0.0, 0.0, 0.0, 0.0, 0.0, 0.0, 0.0], "NUCIND": false, "MAGPOS": [0.0, 0.0, 0.0], "LNICSALL": true, "ORBITALMAG": false, "LMAGBLOCH": false, "LCHIMAG": false, "LGAUGE": true, "MAGATOM": 0, "MAGDIPOL": [0.0, 0.0, 0.0], "AVECCONST": [0.0, 0.0, 0.0], "LFINITE_TEMPERATURE": false, "LADDER": false, "LRPAFORCE": false, "LFXC": false, "LHARTREE": true, "IBSE": 0, "KPOINT": [-1, 0, 0, 0], "LTCTC": false, "LTCTE": false, "LTETE": false, "LTRIPLET": false, "LFXCEPS": false, "LFXHEG": false, "NATURALO": 2, "LHOLEGF": false, "L2ORDER": false, "LDMP1": false, "LMP2LT": false, "LSMP2LT": false, "LGWLF": false, "ENCUTGW": -2.0, "ENCUTGWSOFT": -2.0, "ENCUTLF": -1.0, "LESF_SPLINES": false, "LMAXMP2": -1, "SCISSOR": 0.0, "NOMEGA": 0, "NOMEGAR": 0, "NBANDSGW": -1, "NBANDSO": -1, "NBANDSV": -1, "NELMGW": 1, "NELMHF": 1, "DIM": 3, "IESPILON": 4, "ANTIRES": 0, "OMEGAMIN": -30.0, "OMEGATL": -200.0, "OMEGAGRID": 0, "LSELFENERGY": false, "LSPECTRAL": false, "LSPECTRALGW": false, "LSINGLES": false, "LFERMIGW": false, "ODDONLYGW": false, "EVENONLYGW": false, "NKREDLFX": 1, "NKREDLFY": 1, "NKREDLFZ": 1, "MAXMEM": 2800, "TELESCOPE": 0, "NTAUPAR": -1, "NOMEGAPAR": -1, "DAMP_NEWTON": 0.80000001, "LAMBDA": 1.0, "OFIELD_KAPPA": 0.0, "OFIELD_K": [0.0, 0.0, 0.0], "OFIELD_Q6_NEAR": 0.0, "OFIELD_Q6_FAR": 0.0, "OFIELD_A": 0.0, "KPOINTS_OPT_MODE": 1, "LKPOINTS_OPT": false, "@module": "pymatgen.io.vasp.inputs", "@class": "Incar"}, "relaxed_structures": {"@module": "pymatgen.core.structure", "@class": "Structure", "charge": 0, "lattice": {"matrix": [[10.242414, 0.0, 0.0], [3.825952, 13.966305, 0.0], [0.0, 0.0, 46.324337]], "a": 10.242414, "b": 14.48086958919695, "c": 46.324337, "alpha": 90.0, "beta": 90.0, "gamma": 74.68014200345522, "volume": 6626.635160603587}, "sites": [{"species": [{"element": "Li", "occu": 1}], "abc": [0.81984683, 0.77094631, 0.05351584], "xyz": [11.34681422608474, 10.76727130408455, 2.47908580699808], "label": "Li", "properties": {}}, {"species": [{"element": "Li", "occu": 1}], "abc": [0.8088641, 0.05515716, 0.06842864], "xyz": [8.49574962855372, 0.7703417194937999, 3.16991137981168], "label": "Li", "properties": {}}, {"species": [{"element": "Li", "occu": 1}], "abc": [0.69677877, 0.55037531, 0.09079572], "xyz": [9.2424061467959, 7.68670944392955, 4.20605153143764], "label": "Li", "properties": {}}, {"species": [{"element": "Li", "occu": 1}], "abc": [0.78600877, 0.29439207, 0.03701501], "xyz": [9.17695715897142, 4.11156943920135, 1.71469579729837], "label": "Li", "properties": {}}, {"species": [{"element": "Li", "occu": 1}], "abc": [0.23810281, 0.21150233, 0.08332772], "xyz": [3.2479453170515, 2.9539060489906497, 3.8601013827216395], "label": "Li", "properties": {}}, {"species": [{"element": "Li", "occu": 1}], "abc": [0.27183119, 0.6840445, 0.031092909999999998], "xyz": [5.40132900895666, 9.5535741205725, 1.4403584411506698], "label": "Li", "properties": {}}, {"species": [{"element": "Li", "occu": 1}], "abc": [0.57253332, 0.75273312, 0.02091883], "xyz": [8.74404407816472, 10.5129003375216, 0.96905093056571], "label": "Li", "properties": {}}, {"species": [{"element": "Li", "occu": 1}], "abc": [0.8945746, 0.45546834, 0.0292207], "xyz": [10.905203413444081, 6.3612097542837, 1.3536295541759], "label": "Li", "properties": {}}, {"species": [{"element": "Li", "occu": 1}], "abc": [0.36513713, 0.41745749, 0.06939611], "xyz": [5.3370579710123, 5.83033862987445, 3.21472878612907], "label": "Li", "properties": {}}, {"species": [{"element": "Li", "occu": 1}], "abc": [0.31562017, 0.91521101, 0.07603568], "xyz": [6.7342658420219, 12.782116105018051, 3.52230246434416], "label": "Li", "properties": {}}, {"species": [{"element": "Li", "occu": 1}], "abc": [0.46007923, 0.64233611, 0.15363822], "xyz": [7.169869071187939, 8.97106202477355, 7.117188679360139], "label": "Li", "properties": {}}, {"species": [{"element": "Li", "occu": 1}], "abc": [0.47188408, 0.94466774, 0.17217457], "xyz": [8.4474855365576, 13.1935177805007, 7.97587280351009], "label": "Li", "properties": {}}, {"species": [{"element": "Li", "occu": 1}], "abc": [0.38324442, 0.41770507, 0.19471201999999999], "xyz": [5.52346756080652, 5.83379640766635, 9.01990523243074], "label": "Li", "properties": {}}, {"species": [{"element": "Li", "occu": 1}], "abc": [0.53032724, 0.15175245, 0.13318349999999998], "xyz": [6.01242873713976, 2.1194210011972503, 6.169637336839499], "label": "Li", "properties": {}}, {"species": [{"element": "Li", "occu": 1}], "abc": [0.90985601, 0.097396, 0.18971965], "xyz": [9.69175435580014, 1.3602622417799999, 8.78863700212205], "label": "Li", "properties": {}}, {"species": [{"element": "Li", "occu": 1}], "abc": [0.00645668, 0.49567965, 0.13481342999999998], "xyz": [1.96257853790232, 6.922813174193251, 6.24514276344591], "label": "Li", "properties": {}}, {"species": [{"element": "Li", "occu": 1}], "abc": [0.08001124, 0.02281446, 0.1168709], "xyz": [0.90679527359928, 0.3186337067703, 5.4139669570933], "label": "Li", "properties": {}}, {"species": [{"element": "Li", "occu": 1}], "abc": [0.16853221, 0.67829914, 0.11313743], "xyz": [4.32131661843622, 9.473332670477701, 5.241016434633909], "label": "Li", "properties": {}}, {"species": [{"element": "Li", "occu": 1}], "abc": [0.66629531, 0.8545845, 0.11030026], "xyz": [10.09407168822234, 11.935387775272499, 5.10958641542762], "label": "Li", "properties": {}}, {"species": [{"element": "Li", "occu": 1}], "abc": [0.63726645, 0.3331781, 0.12515157999999998], "xyz": [7.8018702272615, 4.653266963920499, 5.797563968002459], "label": "Li", "properties": {}}, {"species": [{"element": "Li", "occu": 1}], "abc": [0.01143929, 0.2988137, 0.16272266999999999], "xyz": [1.26041281718846, 4.1733232723785, 7.5380198026197895], "label": "Li", "properties": {}}, {"species": [{"element": "Li", "occu": 1}], "abc": [0.95968433, 0.7978126, 0.15382614], "xyz": [12.88187692976782, 11.142494104443, 7.12589394876918], "label": "Li", "properties": {}}, {"species": [{"element": "Li", "occu": 1}], "abc": [0.13595576, 0.51106056, 0.25326542], "xyz": [3.3478083512577603, 7.1376276544308, 11.732352666526541], "label": "Li", "properties": {}}, {"species": [{"element": "Li", "occu": 1}], "abc": [0.13744446, 0.82168109, 0.27523364], "xyz": [4.55147547097412, 11.47584871567245, 12.75001589309668], "label": "Li", "properties": {}}, {"species": [{"element": "Li", "occu": 1}], "abc": [0.06305842, 0.30115158, 0.29569415], "xyz": [1.79806193363004, 4.205974817511899, 13.69783545352855], "label": "Li", "properties": {}}, {"species": [{"element": "Li", "occu": 1}], "abc": [0.20414425, 0.03246143, 0.23306516], "xyz": [2.21512579725086, 0.45336623211615, 10.79658901479892], "label": "Li", "properties": {}}, {"species": [{"element": "Li", "occu": 1}], "abc": [0.58423425, 0.96561172, 0.29052127], "xyz": [9.678353152836939, 13.4860277930946, 13.45820521714799], "label": "Li", "properties": {}}, {"species": [{"element": "Li", "occu": 1}], "abc": [0.68578583, 0.37021949, 0.23708525], "xyz": [8.4405443843981, 5.17059831428445, 10.98281701872925], "label": "Li", "properties": {}}, {"species": [{"element": "Li", "occu": 1}], "abc": [0.76354562, 0.88856729, 0.21576303], "xyz": [11.22016614823676, 12.41000178516345, 9.99507931386111], "label": "Li", "properties": {}}, {"species": [{"element": "Li", "occu": 1}], "abc": [0.84300013, 0.56923966, 0.21068457], "xyz": [10.81223994917014, 7.9501747096563005, 9.75982302138009], "label": "Li", "properties": {}}, {"species": [{"element": "Li", "occu": 1}], "abc": [0.26201514, 0.7361653, 0.21540792], "xyz": [5.50020064001356, 10.2815091102165, 9.97862907854904], "label": "Li", "properties": {}}, {"species": [{"element": "Li", "occu": 1}], "abc": [0.31129231, 0.20925854, 0.2235724], "xyz": [3.9889978436664206, 2.9225685934947, 10.3568432014988], "label": "Li", "properties": {}}, {"species": [{"element": "Li", "occu": 1}], "abc": [0.64207294, 0.16911396, 0.2639823], "xyz": [7.22339876316708, 2.3618971451178004, 12.2288050272351], "label": "Li", "properties": {}}, {"species": [{"element": "Li", "occu": 1}], "abc": [0.64327438, 0.66212509, 0.27201545], "xyz": [9.121941327889001, 9.24744095509245, 12.60093537500665], "label": "Li", "properties": {}}, {"species": [{"element": "Li", "occu": 1}], "abc": [0.79973221, 0.39049907, 0.35548592], "xyz": [9.68521908181958, 5.45382911383635, 16.467649556835042], "label": "Li", "properties": {}}, {"species": [{"element": "Li", "occu": 1}], "abc": [0.81427875, 0.69217079, 0.37260153], "xyz": [10.98839228724458, 9.66706836523095, 17.260518842435612], "label": "Li", "properties": {}}, {"species": [{"element": "Li", "occu": 1}], "abc": [0.74476277, 0.1827281, 0.39526376], "xyz": [8.32727756177798, 2.5520363766705003, 18.31033162212712], "label": "Li", "properties": {}}, {"species": [{"element": "Li", "occu": 1}], "abc": [0.88846103, 0.91615355, 0.33381501], "xyz": [12.60514519905602, 12.79527990613275, 15.46375901889837], "label": "Li", "properties": {}}, {"species": [{"element": "Li", "occu": 1}], "abc": [0.26559339, 0.83835595, 0.39336251], "xyz": [5.92782707965786, 11.70873489626475, 18.22225747640587], "label": "Li", "properties": {}}, {"species": [{"element": "Li", "occu": 1}], "abc": [0.36092963, 0.23457094, 0.33864903], "xyz": [4.5942478523617005, 3.2760892921767, 15.687691790443111], "label": "Li", "properties": {}}, {"species": [{"element": "Li", "occu": 1}], "abc": [0.42033112, 0.77011198, 0.3183362], "xyz": [7.251616818228641, 10.7556187968339, 14.746713408099401], "label": "Li", "properties": {}}, {"species": [{"element": "Li", "occu": 1}], "abc": [0.50227468, 0.44129297, 0.31369294], "xyz": [6.8328709354349595, 6.16323221337585, 14.531617467080778], "label": "Li", "properties": {}}, {"species": [{"element": "Li", "occu": 1}], "abc": [0.02114581, 0.59724381, 0.31258702], "xyz": [2.50161028974246, 8.341289209822051, 14.48038645630574], "label": "Li", "properties": {}}, {"species": [{"element": "Li", "occu": 1}], "abc": [0.95822172, 0.12457153, 0.30521742], "xyz": [10.291108254378642, 1.73980398229665, 14.138994622350541], "label": "Li", "properties": {}}, {"species": [{"element": "Li", "occu": 1}], "abc": [0.2612994, 0.03622617, 0.36531212], "xyz": [2.81493622031544, 0.50594573920185, 16.92284175706444], "label": "Li", "properties": {}}, {"species": [{"element": "Li", "occu": 1}], "abc": [0.31263589, 0.53527161, 0.37521592], "xyz": [5.250069703461181, 7.47576656310105, 17.38162872584504], "label": "Li", "properties": {}}, {"species": [{"element": "Li", "occu": 1}], "abc": [0.46407493, 0.27783293, 0.45877757], "xyz": [5.8162230142803795, 3.88029943942365, 21.25256676072109], "label": "Li", "properties": {}}, {"species": [{"element": "Li", "occu": 1}], "abc": [0.45392719, 0.56139218, 0.47537651999999997], "xyz": [6.79716973969202, 7.8405744104949004, 22.021502114367237], "label": "Li", "properties": {}}, {"species": [{"element": "Li", "occu": 1}], "abc": [0.48923959, 0.04017405, 0.49043812999999997], "xyz": [5.16469841291586, 0.5610830353852501, 22.71922121176981], "label": "Li", "properties": {}}, {"species": [{"element": "Li", "occu": 1}], "abc": [0.57177751, 0.78402918, 0.43665328], "xyz": [8.8560399825885, 10.9499906567799, 20.22767369487536], "label": "Li", "properties": {}}, {"species": [{"element": "Li", "occu": 1}], "abc": [0.00667888, 0.64734947, 0.49784731], "xyz": [2.54513585346176, 9.04108013960835, 23.06244656298347], "label": "Li", "properties": {}}, {"species": [{"element": "Li", "occu": 1}], "abc": [0.03461134, 0.12114255, 0.44442251], "xyz": [0.81798925483236, 1.69191380177775, 20.58757812362587], "label": "Li", "properties": {}}, {"species": [{"element": "Li", "occu": 1}], "abc": [0.10145787, 0.65536746, 0.41541078], "xyz": [3.5465779524201, 9.1530618334353, 19.24362896615286], "label": "Li", "properties": {}}, {"species": [{"element": "Li", "occu": 1}], "abc": [0.18965848, 0.31214765, 0.41148421], "xyz": [3.13682259658352, 4.35954928493325, 19.06173321421877], "label": "Li", "properties": {}}, {"species": [{"element": "Li", "occu": 1}], "abc": [0.60843346, 0.48203999, 0.41808961], "xyz": [8.07608925259292, 6.73231752253695, 19.36772398983857], "label": "Li", "properties": {}}, {"species": [{"element": "Li", "occu": 1}], "abc": [0.63473243, 0.001132, 0.40300752], "xyz": [6.50552330495002, 0.01580985726, 18.66905617001424], "label": "Li", "properties": {}}, {"species": [{"element": "Li", "occu": 1}], "abc": [0.90856222, 0.91497942, 0.45892462], "xyz": [12.806537743906919, 12.7788816484431, 21.25937875447694], "label": "Li", "properties": {}}, {"species": [{"element": "Li", "occu": 1}], "abc": [0.95744275, 0.41880443, 0.45248355], "xyz": [11.40885067336586, 5.84915040473115, 20.961000457156352], "label": "Li", "properties": {}}, {"species": [{"element": "Li", "occu": 1}], "abc": [0.70160575, 0.5843077, 0.50661718], "xyz": [9.421669769710899, 8.1606195520485, 23.46870497630966], "label": "Li", "properties": {}}, {"species": [{"element": "Li", "occu": 1}], "abc": [0.38022091, 0.87824639, 0.49873829], "xyz": [7.254508503990021, 12.26585694788895, 23.103720620763728], "label": "Li", "properties": {}}, {"species": [{"element": "P", "occu": 1}], "abc": [0.06850148, 0.82325896, 0.06754083], "xyz": [3.85136978230264, 11.4978857293428, 3.12878417017971], "label": "P", "properties": {}}, {"species": [{"element": "P", "occu": 1}], "abc": [0.55117239, 0.01091776, 0.059971170000000004], "xyz": [5.687106629456979, 0.1524807660768, 2.77812468936429], "label": "P", "properties": {}}, {"species": [{"element": "P", "occu": 1}], "abc": [0.60422027, 0.54427934, 0.02646412], "xyz": [8.27106078196346, 7.6015712676387, 1.22593281328844], "label": "P", "properties": {}}, {"species": [{"element": "P", "occu": 1}], "abc": [0.92441707, 0.28811292, 0.09378399], "xyz": [10.57056854210682, 4.0238729151606, 4.34448115796463], "label": "P", "properties": {}}, {"species": [{"element": "P", "occu": 1}], "abc": [0.71541392, 0.70077943, 0.16262514], "xyz": [10.008714011770241, 9.78729925710615, 7.53350179003218], "label": "P", "properties": {}}, {"species": [{"element": "P", "occu": 1}], "abc": [0.21361024, 0.88500445, 0.16355877], "xyz": [5.57386905820576, 12.36024207505725, 7.57675158078549], "label": "P", "properties": {}}, {"species": [{"element": "P", "occu": 1}], "abc": [0.30830049, 0.41630375, 0.13101003], "xyz": [4.75049941990286, 5.81422514514375, 6.06895278010011], "label": "P", "properties": {}}, {"species": [{"element": "P", "occu": 1}], "abc": [0.6053282, 0.16277445, 0.19590354], "xyz": [6.8227892628012, 2.27335761490725, 9.075101606452979], "label": "P", "properties": {}}, {"species": [{"element": "P", "occu": 1}], "abc": [0.38233641, 0.57740096, 0.26487125], "xyz": [6.125156156207661, 8.0641579146528, 12.26998504661125], "label": "P", "properties": {}}, {"species": [{"element": "P", "occu": 1}], "abc": [0.89063646, 0.75591197, 0.26450095], "xyz": [12.01435026025988, 10.55729712617085, 12.252831144620151], "label": "P", "properties": {}}, {"species": [{"element": "P", "occu": 1}], "abc": [0.99150086, 0.29499508, 0.23230459], "xyz": [11.2839993057922, 4.1199912607794005, 10.76135611380683], "label": "P", "properties": {}}, {"species": [{"element": "P", "occu": 1}], "abc": [0.27836556, 0.03928828, 0.29619417], "xyz": [3.0014503823044003, 0.5487121014054, 13.720998548515288], "label": "P", "properties": {}}, {"species": [{"element": "P", "occu": 1}], "abc": [0.05819229, 0.44946933, 0.36482161], "xyz": [2.31567760784022, 6.27742575092565, 16.90011920652257], "label": "P", "properties": {}}, {"species": [{"element": "P", "occu": 1}], "abc": [0.55459595, 0.63328199, 0.36489271], "xyz": [8.10330781882778, 8.844609423346949, 16.90341286688327], "label": "P", "properties": {}}, {"species": [{"element": "P", "occu": 1}], "abc": [0.66530026, 0.17098227, 0.33259432], "xyz": [7.46845065509868, 2.38799053241235, 15.40721136396584], "label": "P", "properties": {}}, {"species": [{"element": "P", "occu": 1}], "abc": [0.96469451, 0.91719399, 0.39738801], "xyz": [13.38994073537562, 12.80981100850695, 18.40873609499937], "label": "P", "properties": {}}, {"species": [{"element": "P", "occu": 1}], "abc": [0.72072149, 0.32365943, 0.46778122], "xyz": [8.62023332280422, 4.520326315506151, 21.66965487755114], "label": "P", "properties": {}}, {"species": [{"element": "P", "occu": 1}], "abc": [0.20442604, 0.51045279, 0.46098859999999997], "xyz": [4.046784006866639, 7.12913935324095, 21.354991259558197], "label": "P", "properties": {}}, {"species": [{"element": "P", "occu": 1}], "abc": [0.34782939, 0.04578407, 0.43399016], "xyz": [3.7377802679321, 0.6394342857613501, 20.10430642652392], "label": "P", "properties": {}}, {"species": [{"element": "P", "occu": 1}], "abc": [0.66866044, 0.79097971, 0.50108819], "xyz": [9.87494745533608, 11.04706387867155, 23.212578180280033], "label": "P", "properties": {}}, {"species": [{"element": "S", "occu": 1}], "abc": [0.26833522, 0.75692413, 0.0770327], "xyz": [5.64435580304284, 10.571433261439651, 3.5684887548199], "label": "S", "properties": {}}, {"species": [{"element": "S", "occu": 1}], "abc": [0.34638854, 0.06624387, 0.05784334], "xyz": [3.8013006984498006, 0.9251820928003499, 2.67955437536558], "label": "S", "properties": {}}, {"species": [{"element": "S", "occu": 1}], "abc": [0.47256446, 0.63828871, 9.999999999999999e-05], "xyz": [7.28226280760836, 8.91453480191655, 0.0046324337], "label": "S", "properties": {}}, {"species": [{"element": "S", "occu": 1}], "abc": [0.76543726, 0.23288883, 0.08371155999999999], "xyz": [8.7309467928618, 3.25259643087315, 3.8778825162357196], "label": "S", "properties": {}}, {"species": [{"element": "S", "occu": 1}], "abc": [0.75455334, 0.60815114, 0.041583350000000005], "xyz": [10.055204763748039, 8.4936243073377, 1.9263211189889502], "label": "S", "properties": {}}, {"species": [{"element": "S", "occu": 1}], "abc": [0.02617972, 0.77697593, 0.0278747], "xyz": [3.24081614397944, 10.85148281603865, 1.2912769965739], "label": "S", "properties": {}}, {"species": [{"element": "S", "occu": 1}], "abc": [0.57717881, 0.85986594, 0.059354710000000005], "xyz": [9.20151013692222, 12.0091499771517, 2.7495675885772703], "label": "S", "properties": {}}, {"species": [{"element": "S", "occu": 1}], "abc": [0.0477419, 0.96839526, 0.06828236], "xyz": [4.1940260867341195, 13.5249035617143, 3.16313505579532], "label": "S", "properties": {}}, {"species": [{"element": "S", "occu": 1}], "abc": [0.70380796, 0.42475559, 0.0039372700000000005], "xyz": [8.83378700188712, 5.93226612039495, 0.18239142233999003], "label": "S", "properties": {}}, {"species": [{"element": "S", "occu": 1}], "abc": [0.9466366, 0.7767491, 0.09748823], "xyz": [12.6676487373956, 10.848314839075499, 4.51607762005351], "label": "S", "properties": {}}, {"species": [{"element": "S", "occu": 1}], "abc": [0.65596278, 0.05598415, 0.0291306], "xyz": [6.93283503201172, 0.7818917140657501, 1.3494557314122], "label": "S", "properties": {}}, {"species": [{"element": "S", "occu": 1}], "abc": [0.5099151, 0.5179123, 0.06336332], "xyz": [7.204269159060999, 7.2333211450515, 2.93526378911884], "label": "S", "properties": {}}, {"species": [{"element": "S", "occu": 1}], "abc": [0.01749266, 0.31252486, 0.055980510000000004], "xyz": [1.37487217884796, 4.3648175148423, 2.5932600106718704], "label": "S", "properties": {}}, {"species": [{"element": "S", "occu": 1}], "abc": [0.91912538, 0.6336367, 0.16585545999999998], "xyz": [11.83832625950572, 8.8495634113935, 7.683144222330019], "label": "S", "properties": {}}, {"species": [{"element": "S", "occu": 1}], "abc": [0.01068881, 0.95408432, 0.16094023], "xyz": [3.75976002945998, 13.3250326088376, 7.455449451377509], "label": "S", "properties": {}}, {"species": [{"element": "S", "occu": 1}], "abc": [0.18882835, 0.50870877, 0.10182447], "xyz": [3.88035347163594, 7.10478183799485, 4.71695106312639], "label": "S", "properties": {}}, {"species": [{"element": "S", "occu": 1}], "abc": [0.06782027, 0.19737804, 0.11895183], "xyz": [1.44980218982586, 2.7566419069422, 5.51036465968671], "label": "S", "properties": {}}, {"species": [{"element": "S", "occu": 1}], "abc": [0.44336916, 0.11854317, 0.18101075], "xyz": [4.99471096990008, 1.6556100678868502, 8.385202983622749], "label": "S", "properties": {}}, {"species": [{"element": "S", "occu": 1}], "abc": [0.46376378, 0.46525028, 0.14783223], "xyz": [6.53008587223148, 6.4978273118154, 6.848230041981511], "label": "S", "properties": {}}, {"species": [{"element": "S", "occu": 1}], "abc": [0.63386251, 0.02530747, 0.10045720999999999], "xyz": [6.589107411960581, 0.35345184479835, 4.65361365011977], "label": "S", "properties": {}}, {"species": [{"element": "S", "occu": 1}], "abc": [0.6296132, 0.69077989, 0.12296319], "xyz": [9.09164975597008, 9.64764263160645, 5.6961882521550296], "label": "S", "properties": {}}, {"species": [{"element": "S", "occu": 1}], "abc": [0.22291911, 0.73923635, 0.16047349], "xyz": [5.11151260488674, 10.32440033118675, 7.43382803032613], "label": "S", "properties": {}}, {"species": [{"element": "S", "occu": 1}], "abc": [0.70625235, 0.84674977, 0.1664107], "xyz": [10.473352933203941, 11.82596554649985, 7.7088653472059], "label": "S", "properties": {}}, {"species": [{"element": "S", "occu": 1}], "abc": [0.84232212, 0.40898335, 0.11872413], "xyz": [10.19216254029688, 5.71198620602175, 5.49981660815181], "label": "S", "properties": {}}, {"species": [{"element": "S", "occu": 1}], "abc": [0.40127193, 0.29586183, 0.10632601], "xyz": [5.2419463938511806, 4.13209655563815, 4.92548191910537], "label": "S", "properties": {}}, {"species": [{"element": "S", "occu": 1}], "abc": [0.61355393, 0.64980835, 0.19377696], "xyz": [8.77040891868622, 9.075421607646751, 8.97658919787552], "label": "S", "properties": {}}, {"species": [{"element": "S", "occu": 1}], "abc": [0.31492841, 0.9408998, 0.1329971], "xyz": [6.82546462719134, 13.140893581239, 6.161002480422701], "label": "S", "properties": {}}, {"species": [{"element": "S", "occu": 1}], "abc": [0.19274365, 0.39390665, 0.16490329], "xyz": [3.4812281945518997, 5.50142041542825, 7.6390355783687305], "label": "S", "properties": {}}, {"species": [{"element": "S", "occu": 1}], "abc": [0.71456121, 0.19216713, 0.16174534999999998], "xyz": [8.054053956518699, 2.68386474855465, 7.4927461015829495], "label": "S", "properties": {}}, {"species": [{"element": "S", "occu": 1}], "abc": [0.58382923, 0.50664162, 0.26945589], "xyz": [7.91820719828346, 7.075911390614101, 12.482365454994929], "label": "S", "properties": {}}, {"species": [{"element": "S", "occu": 1}], "abc": [0.68782361, 0.82284212, 0.2607924], "xyz": [10.19312862729278, 11.4920640147666, 12.0810350246388], "label": "S", "properties": {}}, {"species": [{"element": "S", "occu": 1}], "abc": [0.86922097, 0.39194547, 0.20501028], "xyz": [10.402485587059019, 5.4740299773883505, 9.49696529918436], "label": "S", "properties": {}}, {"species": [{"element": "S", "occu": 1}], "abc": [0.73515805, 0.06532058, 0.22206546], "xyz": [7.77970650722486, 0.9122871430569001, 10.28703520510002], "label": "S", "properties": {}}, {"species": [{"element": "S", "occu": 1}], "abc": [0.11961804, 0.99358537, 0.27961083], "xyz": [5.0265874210708, 13.87671632095785, 12.952786317769709], "label": "S", "properties": {}}, {"species": [{"element": "S", "occu": 1}], "abc": [0.15033564, 0.33929661, 0.24948187], "xyz": [2.83793240745768, 4.73871994072605, 11.55708222127019], "label": "S", "properties": {}}, {"species": [{"element": "S", "occu": 1}], "abc": [0.30202839, 0.89516914, 0.20288539], "xyz": [6.51837397165474, 12.5022052358277, 9.39853117873643], "label": "S", "properties": {}}, {"species": [{"element": "S", "occu": 1}], "abc": [0.30297531, 0.56308257, 0.22474475], "xyz": [5.25752544165498, 7.864182912803849, 10.41115153798075], "label": "S", "properties": {}}, {"species": [{"element": "S", "occu": 1}], "abc": [0.90295169, 0.61028746, 0.26077482], "xyz": [11.58333555914158, 8.5234608040353, 12.080220642794341], "label": "S", "properties": {}}, {"species": [{"element": "S", "occu": 1}], "abc": [0.37229139, 0.72244678, 0.26861819], "xyz": [6.5772092478500195, 10.0899120757479, 12.44355955789003], "label": "S", "properties": {}}, {"species": [{"element": "S", "occu": 1}], "abc": [0.52096162, 0.27963655, 0.22272621], "xyz": [6.405780607896281, 3.90548934644775, 10.31764401077277], "label": "S", "properties": {}}, {"species": [{"element": "S", "occu": 1}], "abc": [0.08100171, 0.17786738, 0.20635], "xyz": [1.5101651067737, 2.4841500786309, 9.55902693995], "label": "S", "properties": {}}, {"species": [{"element": "S", "occu": 1}], "abc": [0.27693005, 0.52441243, 0.29545002], "xyz": [4.84280900652406, 7.324103943171151, 13.686526293136739], "label": "S", "properties": {}}, {"species": [{"element": "S", "occu": 1}], "abc": [0.99336388, 0.80902507, 0.23357187], "xyz": [13.26973519622296, 11.29909088026635, 10.82006201960019], "label": "S", "properties": {}}, {"species": [{"element": "S", "occu": 1}], "abc": [0.87605505, 0.26752479, 0.26597529], "xyz": [9.99645551424078, 3.73633281220095, 12.32112896763273], "label": "S", "properties": {}}, {"species": [{"element": "S", "occu": 1}], "abc": [0.39193219, 0.0668052, 0.26239418999999997], "xyz": [4.26992523845706, 0.9330217987859999, 12.15523688440203], "label": "S", "properties": {}}, {"species": [{"element": "S", "occu": 1}], "abc": [0.26088937, 0.37946907, 0.36749386], "xyz": [4.12396738304382, 5.29978076968635, 17.023909416070822], "label": "S", "properties": {}}, {"species": [{"element": "S", "occu": 1}], "abc": [0.35092805, 0.69984923, 0.36243988], "xyz": [6.27193993352966, 9.77430780019515, 16.78978714335956], "label": "S", "properties": {}}, {"species": [{"element": "S", "occu": 1}], "abc": [0.53471858, 0.26686914, 0.30624358], "xyz": [6.4978375897734, 3.7271758043277, 14.18653080400646], "label": "S", "properties": {}}, {"species": [{"element": "S", "occu": 1}], "abc": [0.40326295, 0.94369996, 0.32351872], "xyz": [7.74093683412322, 13.1800014698478, 14.986790211088639], "label": "S", "properties": {}}, {"species": [{"element": "S", "occu": 1}], "abc": [0.80862234, 0.86853326, 0.38079057], "xyz": [11.60521133909228, 12.1302004118043, 17.63987069110209], "label": "S", "properties": {}}, {"species": [{"element": "S", "occu": 1}], "abc": [0.82677871, 0.21660964, 0.34724088], "xyz": [9.29694791958322, 3.0252362981802, 16.08570354529656], "label": "S", "properties": {}}, {"species": [{"element": "S", "occu": 1}], "abc": [0.97195513, 0.7707131, 0.30444231], "xyz": [12.90387815725502, 10.7640142220955, 14.10308816549847], "label": "S", "properties": {}}, {"species": [{"element": "S", "occu": 1}], "abc": [0.96981299, 0.44032745, 0.32545883], "xyz": [11.61789783414026, 6.14974746657225, 15.076664520545709], "label": "S", "properties": {}}, {"species": [{"element": "S", "occu": 1}], "abc": [0.56557689, 0.48728849, 0.36189392], "xyz": [7.657215029104941, 6.80561967432945, 16.76449590833104], "label": "S", "properties": {}}, {"species": [{"element": "S", "occu": 1}], "abc": [0.05058899, 0.59489727, 0.36794382], "xyz": [2.7942017793729, 8.30851671648735, 17.044753514747338], "label": "S", "properties": {}}, {"species": [{"element": "S", "occu": 1}], "abc": [0.18843663, 0.15622163, 0.3222402], "xyz": [2.52774243496658, 2.18183893217715, 14.9275636197474], "label": "S", "properties": {}}, {"species": [{"element": "S", "occu": 1}], "abc": [0.75040992, 0.0540115, 0.30593179], "xyz": [7.892654476794879, 0.7543410825075, 14.17208733897323], "label": "S", "properties": {}}, {"species": [{"element": "S", "occu": 1}], "abc": [0.95552409, 0.39424236, 0.39528532], "xyz": [11.29522566247998, 5.506109043679801, 18.31133037483284], "label": "S", "properties": {}}, {"species": [{"element": "S", "occu": 1}], "abc": [0.6538072, 0.68606238, 0.3332064], "xyz": [9.32140575346656, 9.5817564481059, 15.4355655641568], "label": "S", "properties": {}}, {"species": [{"element": "S", "occu": 1}], "abc": [0.55733753, 0.14241858, 0.36706181], "xyz": [6.25336837098558, 1.9890613259468999, 17.00389498626997], "label": "S", "properties": {}}, {"species": [{"element": "S", "occu": 1}], "abc": [0.07916292, 0.94049001, 0.36346828], "xyz": [4.4090890348283995, 13.13517032911305, 16.83742709153036], "label": "S", "properties": {}}, {"species": [{"element": "S", "occu": 1}], "abc": [0.92531527, 0.26706863, 0.4698985], "xyz": [10.49925383494754, 3.7299619425121495, 21.7677364697945], "label": "S", "properties": {}}, {"species": [{"element": "S", "occu": 1}], "abc": [0.00423843, 0.5772202, 0.45187028], "xyz": [2.25182853340042, 8.061633365360999, 20.93259113100436], "label": "S", "properties": {}}, {"species": [{"element": "S", "occu": 1}], "abc": [0.2043769, 0.13705751, 0.40901529], "xyz": [2.61768827633612, 1.91418698720055, 18.94736213211273], "label": "S", "properties": {}}, {"species": [{"element": "S", "occu": 1}], "abc": [0.08479077, 0.82441214, 0.42641709], "xyz": [4.02262344557606, 11.5139913929427, 19.75348897971933], "label": "S", "properties": {}}, {"species": [{"element": "S", "occu": 1}], "abc": [0.519002, 0.72548656, 0.48637618], "xyz": [8.09151010603312, 10.1323665703608, 22.531054071092658], "label": "S", "properties": {}}, {"species": [{"element": "S", "occu": 1}], "abc": [0.50699329, 0.10131166, 0.4438819], "xyz": [5.58044871960238, 1.4149495436163, 20.5625347238003], "label": "S", "properties": {}}, {"species": [{"element": "S", "occu": 1}], "abc": [0.64459703, 0.64550764, 0.40384701], "xyz": [9.0719108907037, 9.0153565800702, 18.70794498768237], "label": "S", "properties": {}}, {"species": [{"element": "S", "occu": 1}], "abc": [0.6384438, 0.31073481, 0.42717905], "xyz": [7.7280621831223195, 4.33981713057705, 19.788786271539852], "label": "S", "properties": {}}, {"species": [{"element": "S", "occu": 1}], "abc": [0.22475378, 0.36546814, 0.45991333], "xyz": [3.7002848239942, 5.1042395110227, 21.30518008971221], "label": "S", "properties": {}}, {"species": [{"element": "S", "occu": 1}], "abc": [0.6961423, 0.47472628, 0.46883259], "xyz": [8.94645759993076, 6.6301720179954, 21.71835889574283], "label": "S", "properties": {}}, {"species": [{"element": "S", "occu": 1}], "abc": [0.87186188, 0.03731306, 0.4222192], "xyz": [9.072728302311441, 0.5211255764433, 19.5590245086704], "label": "S", "properties": {}}, {"species": [{"element": "S", "occu": 1}], "abc": [0.42955945, 0.92531786, 0.40887739], "xyz": [7.93994744161502, 12.9232714547073, 18.94097400604043], "label": "S", "properties": {}}, {"species": [{"element": "S", "occu": 1}], "abc": [0.61469314, 0.27899925, 0.49844713], "xyz": [7.36337936137596, 3.89658862027125, 23.09023282680281], "label": "S", "properties": {}}, {"species": [{"element": "S", "occu": 1}], "abc": [0.32526489, 0.55830539, 0.43116445], "xyz": [5.46754728652574, 7.797463359883951, 19.97340728421965], "label": "S", "properties": {}}, {"species": [{"element": "S", "occu": 1}], "abc": [0.25591669, 0.02079411, 0.4718135], "xyz": [2.70076195523238, 0.29041688246355, 21.8564475751495], "label": "S", "properties": {}}, {"species": [{"element": "S", "occu": 1}], "abc": [0.75813727, 0.8186887, 0.46378522], "xyz": [10.89741945731218, 11.4340560842535, 21.48454282689914], "label": "S", "properties": {}}, {"species": [{"element": "S", "occu": 1}], "abc": [0.8021328, 0.69793939, 0.52742128], "xyz": [10.88605882562848, 9.747634392253952, 24.43244111569136], "label": "S", "properties": {}}, {"species": [{"element": "S", "occu": 1}], "abc": [0.24824017, 0.55480606, 0.5008376999999999], "xyz": [4.6652399474395, 7.7485906498083, 23.200974397104897], "label": "S", "properties": {}}, {"species": [{"element": "S", "occu": 1}], "abc": [0.56932638, 0.91006502, 0.5238511], "xyz": [9.31314156848036, 12.7102456391511, 24.2670548942207], "label": "S", "properties": {}}]}, "formula": "(Li3PS4)20.0", "bandgap": 2.3348, "slab_thickness": 24.427808681991362}