{"miller": "1-10_0.43", "final_energy": -895.94925162, "gamma": 0.0665522039766452, "work_function": "Not calculated", "ionization_potentail": "Not calculated", "electron_affinity": "Not calculated", "is_stochiometric": true, "incar_parameters": {"SYSTEM": "unknown system", "LCOMPAT": false, "PREC": "normal", "ENMAX": 520.0, "ENAUG": 605.392, "EDIFF": 1e-05, "IALGO": 38, "IWAVPR": 11, "NBANDS": 468, "NBANDSLOW": -1, "NBANDSHIGH": -1, "NELECT": 780.0, "TURBO": 0, "IRESTART": 0, "NREBOOT": 0, "NMIN": 0, "EREF": 0.0, "ISMEAR": 0, "SIGMA": 0.05, "KSPACING": 0.5, "KGAMMA": true, "KBLOWUP": true, "LREAL": true, "ROPT": [-0.0005, -0.0005, -0.0005, -0.0005, -0.0005], "LMAXPAW": -100, "LMAXMIX": 4, "NLSPLINE": false, "ISTART": 0, "ICHARG": 2, "INIWAV": 1, "ISPIN": 1, "LNONCOLLINEAR": false, "MAGMOM": [0.6, 0.6, 0.6, 0.6, 0.6, 0.6, 0.6, 0.6, 0.6, 0.6, 0.6, 0.6, 0.6, 0.6, 0.6, 0.6, 0.6, 0.6, 0.6, 0.6, 0.6, 0.6, 0.6, 0.6, 0.6, 0.6, 0.6, 0.6, 0.6, 0.6, 0.6, 0.6, 0.6, 0.6, 0.6, 0.6, 0.6, 0.6, 0.6, 0.6, 0.6, 0.6, 0.6, 0.6, 0.6, 0.6, 0.6, 0.6, 0.6, 0.6, 0.6, 0.6, 0.6, 0.6, 0.6, 0.6, 0.6, 0.6, 0.6, 0.6, 0.6, 0.6, 0.6, 0.6, 0.6, 0.6, 0.6, 0.6, 0.6, 0.6, 0.6, 0.6, 0.6, 0.6, 0.6, 0.6, 0.6, 0.6, 0.6, 0.6, 0.6, 0.6, 0.6, 0.6, 0.6, 0.6, 0.6, 0.6, 0.6, 0.6, 0.6, 0.6, 0.6, 0.6, 0.6, 0.6, 0.6, 0.6, 0.6, 0.6, 0.6, 0.6, 0.6, 0.6, 0.6, 0.6, 0.6, 0.6, 0.6, 0.6, 0.6, 0.6, 0.6, 0.6, 0.6, 0.6, 0.6, 0.6, 0.6, 0.6], "NUPDOWN": -1.0, "LSORBIT": false, "SAXIS": [0.0, 0.0, 1.0], "LSPIRAL": false, "QSPIRAL": [0.0, 0.0, 0.0], "LZEROZ": false, "LASPH": false, "LMETAGGA": false, "NELM": 100, "NELMDL": -5, "NELMIN": 6, "ENINI": 520.0, "LDIAG": true, "LSUBROT": false, "WEIMIN": 0.001, "EBREAK": 1e-08, "DEPER": 0.3, "NRMM": 4, "TIME": 0.4, "AMIX": 0.4, "BMIX": 1.0, "AMIN": 0.1, "AMIX_MAG": 1.6, "BMIX_MAG": 1.0, "IMIX": 4, "MIXFIRST": false, "MAXMIX": -45, "WC": 100.0, "INIMIX": 1, "MIXPRE": 1, "MREMOVE": 5, "LDIPOL": false, "LMONO": false, "IDIPOL": 0, "EPSILON": 1.0, "DIPOL": [-100.0, -100.0, -100.0], "EFIELD": 0.0, "NGX": 54, "NGY": 90, "NGZ": 256, "NGXF": 108, "NGYF": 180, "NGZF": 512, "ADDGRID": false, "NSW": 150, "IBRION": 2, "MDALGO": 0, "ISIF": 2, "PSTRESS": 0.0, "EDIFFG": -0.01, "NFREE": 1, "POTIM": 0.5, "SMASS": -3.0, "SCALEE": 1.0, "TEBEG": 0.0001, "TEEND": 0.0001, "NBLOCK": 1, "KBLOCK": 150, "NPACO": 256, "APACO": 10.0, "ISYM": 0, "SYMPREC": 1e-05, "LORBIT": 11, "RWIGS": [-1.0, -1.0, -1.0, -1.0, -1.0], "NEDOS": 301, "EMIN": 10.0, "EMAX": -10.0, "EFERMI": 0.0, "NWRITE": 2, "LWAVE": false, "LDOWNSAMPLE": false, "LCHARG": false, "LPARD": false, "LVTOT": false, "LVHAR": false, "LELF": false, "LOPTICS": false, "STM": [0.0, 0.0, 0.0, 0.0, 0.0, 0.0, 0.0], "NPAR": 2, "NSIM": 4, "NBLK": -1, "LPLANE": true, "LSCALAPACK": true, "LSCAAWARE": false, "LSCALU": false, "LASYNC": false, "LORBITALREAL": false, "IDIOT": 3, "PHON_NSTRUCT": -1, "LMUSIC": false, "POMASS": [22.99, 91.224, 28.085, 30.974, 16.0], "DARWINR": [0.0, 0.0, 0.0, 0.0, 0.0], "DARWINV": [1.0, 1.0, 1.0, 1.0, 1.0], "LCORR": true, "GGA_COMPAT": true, "LBERRY": false, "ICORELEVEL": 0, "LDAU": false, "I_CONSTRAINED_M": 0, "GGA": "--", "VOSKOWN": 0, "LHFCALC": false, "PRECFOCK": "", "LSYMGRAD": false, "LHFONE": false, "LRHFCALC": false, "LTHOMAS": false, "LMODELHF": false, "LFOCKACE": false, "ENCUT4O": -1.0, "EXXOEP": 0, "FOURORBIT": 0, "AEXX": 0.0, "HFALPHA": 0.0, "MCALPHA": 0.0, "ALDAX": 1.0, "AGGAX": 1.0, "ALDAC": 1.0, "AGGAC": 1.0, "NKREDX": 1, "NKREDY": 1, "NKREDZ": 1, "SHIFTRED": false, "ODDONLY": false, "EVENONLY": false, "LMAXFOCK": 0, "NMAXFOCKAE": 0, "LFOCKAEDFT": false, "HFSCREEN": 0.0, "HFSCREENC": 0.0, "NBANDSGWLOW": 0, "LUSE_VDW": false, "Zab_VDW": -0.8491, "PARAM1": 0.1234, "PARAM2": 1.0, "PARAM3": 0.0, "MODEL_GW": 0, "MODEL_EPS0": 27.96170034, "MODEL_ALPHA": 1.0, "LEPSILON": false, "LRPA": false, "LNABLA": false, "LVEL": false, "CSHIFT": 0.1, "OMEGAMAX": -1.0, "DEG_THRESHOLD": 0.002, "RTIME": -0.1, "WPLASMAI": 0.0, "DFIELD": [0.0, 0.0, 0.0], "WPLASMA": [0.0, 0.0, 0.0, 0.0, 0.0, 0.0, 0.0, 0.0, 0.0], "NUCIND": false, "MAGPOS": [0.0, 0.0, 0.0], "LNICSALL": true, "ORBITALMAG": false, "LMAGBLOCH": false, "LCHIMAG": false, "LGAUGE": true, "MAGATOM": 0, "MAGDIPOL": [0.0, 0.0, 0.0], "AVECCONST": [0.0, 0.0, 0.0], "LFINITE_TEMPERATURE": false, "LADDER": false, "LRPAFORCE": false, "LFXC": false, "LHARTREE": true, "IBSE": 0, "KPOINT": [-1, 0, 0, 0], "LTCTC": false, "LTCTE": false, "LTETE": false, "LTRIPLET": false, "LFXCEPS": false, "LFXHEG": false, "NATURALO": 2, "LHOLEGF": false, "L2ORDER": false, "LDMP1": false, "LMP2LT": false, "LSMP2LT": false, "LGWLF": false, "ENCUTGW": -2.0, "ENCUTGWSOFT": -2.0, "ENCUTLF": -1.0, "LESF_SPLINES": false, "LMAXMP2": -1, "SCISSOR": 0.0, "NOMEGA": 0, "NOMEGAR": 0, "NBANDSGW": -1, "NBANDSO": -1, "NBANDSV": -1, "NELMGW": 1, "NELMHF": 1, "DIM": 3, "IESPILON": 4, "ANTIRES": 0, "OMEGAMIN": -30.0, "OMEGATL": -200.0, "OMEGAGRID": 0, "LSELFENERGY": false, "LSPECTRAL": false, "LSPECTRALGW": false, "LSINGLES": false, "LFERMIGW": false, "ODDONLYGW": false, "EVENONLYGW": false, "NKREDLFX": 1, "NKREDLFY": 1, "NKREDLFZ": 1, "MAXMEM": 2800, "TELESCOPE": 0, "NTAUPAR": -1, "NOMEGAPAR": -1, "DAMP_NEWTON": 0.80000001, "LAMBDA": 1.0, "OFIELD_KAPPA": 0.0, "OFIELD_K": [0.0, 0.0, 0.0], "OFIELD_Q6_NEAR": 0.0, "OFIELD_Q6_FAR": 0.0, "OFIELD_A": 0.0, "KPOINTS_OPT_MODE": 1, "LKPOINTS_OPT": false, "@module": "pymatgen.io.vasp.inputs", "@class": "Incar"}, "relaxed_structures": {"@module": "pymatgen.core.structure", "@class": "Structure", "charge": 0, "lattice": {"matrix": [[9.272956, 0.0, 0.0], [8.736002, 13.168604, 0.0], [0.0, 0.0, 45.796853]], "a": 9.272956, "b": 15.802843486310303, "c": 45.796853, "alpha": 90.0, "beta": 90.0, "gamma": 56.43985526040013, "volume": 5592.340068579235}, "sites": [{"species": [{"element": "Na", "occu": 1}], "abc": [0.4274656, 0.96991648, 0.0530322], "xyz": [12.437062009426558, 12.77244603819392, 2.4287078676666], "label": "Na", "properties": {}}, {"species": [{"element": "Na", "occu": 1}], "abc": [0.07305651, 0.60480696, 0.05283998000000001], "xyz": [5.961044614917479, 7.96446335268384, 2.4199047965829403], "label": "Na", "properties": {}}, {"species": [{"element": "Na", "occu": 1}], "abc": [0.75013944, 0.28728798, 9.99999999999994e-05], "xyz": [9.4657583888406, 3.78318164257992, 0.004579685299999972], "label": "Na", "properties": {}}, {"species": [{"element": "Na", "occu": 1}], "abc": [0.42891496, 0.4793944, 0.16254168], "xyz": [8.16529998901056, 6.3129550134176, 7.44389742533304], "label": "Na", "properties": {}}, {"species": [{"element": "Na", "occu": 1}], "abc": [0.55334362, 0.11877907, 0.10479485000000001], "xyz": [6.168785234218861, 1.56415453631828, 4.799274340607051], "label": "Na", "properties": {}}, {"species": [{"element": "Na", "occu": 1}], "abc": [0.07221975, 0.09560933, 0.16252732], "xyz": [1.50493386217966, 1.25904140547532, 7.44323978252396], "label": "Na", "properties": {}}, {"species": [{"element": "Na", "occu": 1}], "abc": [0.94692582, 0.45610618, 0.10480781000000002], "xyz": [12.76534596481628, 6.00628166637272, 4.799867867821931], "label": "Na", "properties": {}}, {"species": [{"element": "Na", "occu": 1}], "abc": [0.75060933, 0.78709765, 0.11118744000000001], "xyz": [13.836453934874779, 10.3649772621806, 5.09203484512632], "label": "Na", "properties": {}}, {"species": [{"element": "Na", "occu": 1}], "abc": [0.24965744, 0.78744689, 0.14745228], "xyz": [9.19420006212642, 10.36957626544156, 6.75285039167484], "label": "Na", "properties": {}}, {"species": [{"element": "Na", "occu": 1}], "abc": [0.44648586, 0.95567, 0.26471677], "xyz": [12.488978765742159, 12.58483978468, 12.12319500232481], "label": "Na", "properties": {}}, {"species": [{"element": "Na", "occu": 1}], "abc": [0.5721032, 0.59540271, 0.20741331999999998], "xyz": [10.50652706642462, 7.84062250851684, 9.498877326281958], "label": "Na", "properties": {}}, {"species": [{"element": "Na", "occu": 1}], "abc": [0.05357139, 0.6184623, 0.26472098], "xyz": [5.89965303205344, 8.1442851176292, 12.12338780707594], "label": "Na", "properties": {}}, {"species": [{"element": "Na", "occu": 1}], "abc": [0.92860115, 0.97964956, 0.20720605], "xyz": [17.16909812095852, 12.90061711441424, 9.48938501256065], "label": "Na", "properties": {}}, {"species": [{"element": "Na", "occu": 1}], "abc": [0.7499374, 0.28713573, 0.22219258], "xyz": [9.46255482450586, 3.78117672262092, 10.17572092395074], "label": "Na", "properties": {}}, {"species": [{"element": "Na", "occu": 1}], "abc": [0.24992911, 0.2872014, 0.25851307], "xyz": [4.82657364495196, 3.7820415048456, 11.83908506536871], "label": "Na", "properties": {}}, {"species": [{"element": "Na", "occu": 1}], "abc": [0.57286194, 0.10456476, 0.31689048000000003], "xyz": [6.225601516184161, 1.37697191679504, 14.512586729659441], "label": "Na", "properties": {}}, {"species": [{"element": "Na", "occu": 1}], "abc": [0.92654345, 0.46944279, 0.31671871], "xyz": [12.692849796263781, 6.18190620216516, 14.50472020421963], "label": "Na", "properties": {}}, {"species": [{"element": "Na", "occu": 1}], "abc": [0.24968143, 0.78740449, 0.36960749000000004], "xyz": [9.19405211385606, 10.369017916631961, 16.92685988722897], "label": "Na", "properties": {}}, {"species": [{"element": "Zr", "occu": 1}], "abc": [0.90821226, 0.90556483, 0.08457703], "xyz": [16.33282849165022, 11.92502464259732, 3.87336181008659], "label": "Zr", "properties": {}}, {"species": [{"element": "Zr", "occu": 1}], "abc": [0.03883225, 0.19454731, 0.09156014], "xyz": [2.0596554348856198, 2.56191648465524, 4.19316627223942], "label": "Zr", "properties": {}}, {"species": [{"element": "Zr", "occu": 1}], "abc": [0.59171431, 0.6693246, 0.08462188], "xyz": [11.334161805449561, 8.8140706048584, 3.8754157989436395], "label": "Zr", "properties": {}}, {"species": [{"element": "Zr", "occu": 1}], "abc": [0.46106046, 0.38026929, 0.09160679000000001], "xyz": [7.597426636898339, 5.00761569337116, 4.19530269543187], "label": "Zr", "properties": {}}, {"species": [{"element": "Zr", "occu": 1}], "abc": [0.94175701, 0.3904026, 0.19089299999999998], "xyz": [12.14342921082676, 5.1410572399704, 8.742298659728998], "label": "Zr", "properties": {}}, {"species": [{"element": "Zr", "occu": 1}], "abc": [0.05824368, 0.68386233, 0.17873311], "xyz": [6.514313764522739, 9.00551221428732, 8.18541396490283], "label": "Zr", "properties": {}}, {"species": [{"element": "Zr", "occu": 1}], "abc": [0.55844004, 0.18382912, 0.19096321], "xyz": [6.78432147953648, 2.42077288494848, 8.745514056778129], "label": "Zr", "properties": {}}, {"species": [{"element": "Zr", "occu": 1}], "abc": [0.44198176, 0.89048132, 0.17870814], "xyz": [11.877724005765199, 11.72639587247728, 8.18427041748342], "label": "Zr", "properties": {}}, {"species": [{"element": "Zr", "occu": 1}], "abc": [0.96105351, 0.88014066, 0.27802377], "xyz": [16.60071747791688, 11.590223815838641, 12.73261372519581], "label": "Zr", "properties": {}}, {"species": [{"element": "Zr", "occu": 1}], "abc": [0.09193316, 0.16900103, 0.28510392], "xyz": [2.32888548370302, 2.22550763966212, 13.05686231396376], "label": "Zr", "properties": {}}, {"species": [{"element": "Zr", "occu": 1}], "abc": [0.53909799, 0.69429002, 0.27807654000000004], "xyz": [11.064350944258479, 9.14283033453208, 12.735030425128622], "label": "Zr", "properties": {}}, {"species": [{"element": "Zr", "occu": 1}], "abc": [0.40795133, 0.4053351, 0.28507765], "xyz": [7.32392297750168, 5.3376974192004, 13.05565923063545], "label": "Zr", "properties": {}}, {"species": [{"element": "Si", "occu": 1}], "abc": [0.73201455, 0.15824018, 0.055192000000000005], "xyz": [8.170325242470161, 2.08380226730872, 2.527619910776], "label": "Si", "properties": {}}, {"species": [{"element": "Si", "occu": 1}], "abc": [0.76788735, 0.41665591, 0.05530339000000001], "xyz": [10.76049247257842, 5.486776683049641, 2.5327212222316704], "label": "Si", "properties": {}}, {"species": [{"element": "Si", "occu": 1}], "abc": [0.26740716, 0.92918938, 0.10594019], "xyz": [10.597055110823717, 12.23612698622552, 4.85172730822207], "label": "Si", "properties": {}}, {"species": [{"element": "Si", "occu": 1}], "abc": [0.7373417, 0.64126647, 0.1567924], "xyz": [12.43944230551814, 8.444584201907881, 7.180598494317199], "label": "Si", "properties": {}}, {"species": [{"element": "Si", "occu": 1}], "abc": [0.2323594, 0.64571216, 0.10586884], "xyz": [7.79560121357072, 8.50312773302464, 4.84845970276052], "label": "Si", "properties": {}}, {"species": [{"element": "Si", "occu": 1}], "abc": [0.76250034, 0.93320302, 0.15672348], "xyz": [15.22309555193108, 12.28898102198408, 7.17744217520844], "label": "Si", "properties": {}}, {"species": [{"element": "Si", "occu": 1}], "abc": [0.26235995, 0.43312331, 0.21289806], "xyz": [6.21661837491882, 5.70362935255924, 9.75006115780518], "label": "Si", "properties": {}}, {"species": [{"element": "Si", "occu": 1}], "abc": [0.73259281, 0.14550066, 0.2638345], "xyz": [8.064394949807681, 1.91604057327864, 12.082789812828501], "label": "Si", "properties": {}}, {"species": [{"element": "Si", "occu": 1}], "abc": [0.23795386, 0.14115788, 0.21294211999999998], "xyz": [3.43969119580592, 1.8588522231995201, 9.752078967148359], "label": "Si", "properties": {}}, {"species": [{"element": "Si", "occu": 1}], "abc": [0.76734199, 0.42872545, 0.26372017000000003], "xyz": [10.860874898873341, 5.6457156757718, 12.077553858625011], "label": "Si", "properties": {}}, {"species": [{"element": "Si", "occu": 1}], "abc": [0.26811987, 0.91623329, 0.31441306], "xyz": [10.4904796111423, 12.06551336762716, 14.39912869010018], "label": "Si", "properties": {}}, {"species": [{"element": "Si", "occu": 1}], "abc": [0.23197853, 0.65817487, 0.31432803000000004], "xyz": [7.900943682304419, 8.667244225781479, 14.395234583689591], "label": "Si", "properties": {}}, {"species": [{"element": "P", "occu": 1}], "abc": [0.74984703, 0.78725045, 0.042969560000000004], "xyz": [13.83072002162158, 10.3669894248718, 1.96787062279468], "label": "P", "properties": {}}, {"species": [{"element": "P", "occu": 1}], "abc": [0.75008213, 0.28706846, 0.15058095], "xyz": [9.4633092285732, 3.7802908706298406, 6.89613363175035], "label": "P", "properties": {}}, {"species": [{"element": "P", "occu": 1}], "abc": [0.25009549, 0.28715218, 0.13192163999999998], "xyz": [4.827686493352799, 3.7813933461567197, 6.041595954598919], "label": "P", "properties": {}}, {"species": [{"element": "P", "occu": 1}], "abc": [0.75020112, 0.78717128, 0.23775865], "xyz": [13.833311853333282, 10.36594686649312, 10.888597943528449], "label": "P", "properties": {}}, {"species": [{"element": "P", "occu": 1}], "abc": [0.24976589, 0.78743308, 0.21905228999999998], "xyz": [9.195085070016999, 10.36939440702032, 10.031905524443369], "label": "P", "properties": {}}, {"species": [{"element": "P", "occu": 1}], "abc": [0.24972847, 0.28733889, 0.32674353], "xyz": [4.8259142319751005, 3.78385205620956, 14.96382541211109], "label": "P", "properties": {}}, {"species": [{"element": "O", "occu": 1}], "abc": [0.54945724, 0.24420906, 0.07414501], "xyz": [7.22850364697956, 3.2158924043522403, 3.39560812365353], "label": "O", "properties": {}}, {"species": [{"element": "O", "occu": 1}], "abc": [0.95049822, 0.330849, 0.07425307], "xyz": [11.70422569783632, 4.356819464796, 3.40055693158871], "label": "O", "properties": {}}, {"species": [{"element": "O", "occu": 1}], "abc": [0.91831899, 0.73917994, 0.026470419999999998], "xyz": [14.973009022434319, 9.73396791460376, 1.2122619335882598], "label": "O", "properties": {}}, {"species": [{"element": "O", "occu": 1}], "abc": [0.58056258, 0.83525784, 0.02670772], "xyz": [12.68034542034216, 10.99917973285536, 1.22312952680516], "label": "O", "properties": {}}, {"species": [{"element": "O", "occu": 1}], "abc": [0.73664597, 0.87229823, 0.0652481], "xyz": [14.451284749263777, 11.48694996077092, 2.9881576442293], "label": "O", "properties": {}}, {"species": [{"element": "O", "occu": 1}], "abc": [0.76390223, 0.70224516, 0.06537518], "xyz": [13.2184468893422, 9.24758842295664, 2.9939775083085403], "label": "O", "properties": {}}, {"species": [{"element": "O", "occu": 1}], "abc": [0.88387448, 0.16964132, 0.07161264], "xyz": [9.678116073365521, 2.2339393651172803, 3.2796335470219202], "label": "O", "properties": {}}, {"species": [{"element": "O", "occu": 1}], "abc": [0.61631184, 0.40531501, 0.07184042], "xyz": [9.25586531258906, 5.33743286194604, 3.29006515419826], "label": "O", "properties": {}}, {"species": [{"element": "O", "occu": 1}], "abc": [0.77922135, 0.3987617, 0.02151585], "xyz": [10.709268301534001, 5.2511349176668, 0.98535821962005], "label": "O", "properties": {}}, {"species": [{"element": "O", "occu": 1}], "abc": [0.72030658, 0.17587268, 0.021390259999999998], "xyz": [8.21579530707584, 2.31599767733872, 0.9796065928517799], "label": "O", "properties": {}}, {"species": [{"element": "O", "occu": 1}], "abc": [0.77377639, 0.04663328, 0.06746745], "xyz": [7.5825828456554, 0.61409519754112, 3.08979688993485], "label": "O", "properties": {}}, {"species": [{"element": "O", "occu": 1}], "abc": [0.72621498, 0.52832018, 0.06748076], "xyz": [11.34956570520124, 6.9572392356287205, 3.09040644604828], "label": "O", "properties": {}}, {"species": [{"element": "O", "occu": 1}], "abc": [0.44995927, 0.82838419, 0.09453078000000001], "xyz": [11.4092184531105, 10.90866335797076, 4.329212235635341], "label": "O", "properties": {}}, {"species": [{"element": "O", "occu": 1}], "abc": [0.54920198, 0.73653329, 0.16839769999999998], "xyz": [11.52708209015946, 9.69911522882716, 7.712084712438099], "label": "O", "properties": {}}, {"species": [{"element": "O", "occu": 1}], "abc": [0.04999598, 0.74646369, 0.09441292], "xyz": [6.98471881148426, 9.829884733988761, 4.3238146185407595], "label": "O", "properties": {}}, {"species": [{"element": "O", "occu": 1}], "abc": [0.95057943, 0.83782843, 0.16833300999999998], "xyz": [16.133952069031942, 11.03303081461172, 7.709122114017529], "label": "O", "properties": {}}, {"species": [{"element": "O", "occu": 1}], "abc": [0.08287526, 0.34674089, 0.15057963], "xyz": [3.7976277479903398, 4.5660934710175605, 6.8960731799043895], "label": "O", "properties": {}}, {"species": [{"element": "O", "occu": 1}], "abc": [0.91552001, 0.23151825, 0.13124398999999998], "xyz": [10.512120664886062, 3.048772153023, 6.010561717163469], "label": "O", "properties": {}}, {"species": [{"element": "O", "occu": 1}], "abc": [0.41687616, 0.22765472, 0.15067481], "xyz": [5.8544663783584, 2.99789485641088, 6.900432124372929], "label": "O", "properties": {}}, {"species": [{"element": "O", "occu": 1}], "abc": [0.58444709, 0.34264168, 0.13130130999999998], "xyz": [8.412870551661399, 4.5121125978147205, 6.013186792777429], "label": "O", "properties": {}}, {"species": [{"element": "O", "occu": 1}], "abc": [0.74193072, 0.37047888, 0.16935819], "xyz": [10.11639515824608, 4.87868966108352, 7.75607213177607], "label": "O", "properties": {}}, {"species": [{"element": "O", "occu": 1}], "abc": [0.24461162, 0.20811131, 0.11251531], "xyz": [4.08633360973134, 2.74053542931124, 5.15284711231943], "label": "O", "properties": {}}, {"species": [{"element": "O", "occu": 1}], "abc": [0.75850421, 0.20367149, 0.16940118999999998], "xyz": [8.81285070912774, 2.6820691978999602, 7.758041396455069], "label": "O", "properties": {}}, {"species": [{"element": "O", "occu": 1}], "abc": [0.25583788, 0.3661113, 0.11252398000000001], "xyz": [5.57072245339588, 4.821174729625199, 5.15324417103494], "label": "O", "properties": {}}, {"species": [{"element": "O", "occu": 1}], "abc": [0.10953357, 0.91389522, 0.09827054], "xyz": [8.99949044484336, 12.03472424967288, 4.50048147461062], "label": "O", "properties": {}}, {"species": [{"element": "O", "occu": 1}], "abc": [0.88145111, 0.67062011, 0.15899559], "xyz": [14.03219598138138, 8.83113066302644, 7.2814976628782695], "label": "O", "properties": {}}, {"species": [{"element": "O", "occu": 1}], "abc": [0.39028266, 0.66098475, 0.09824552], "xyz": [9.39343803171246, 8.704246422789, 4.49933563734856], "label": "O", "properties": {}}, {"species": [{"element": "O", "occu": 1}], "abc": [0.61836863, 0.90384753, 0.15882696], "xyz": [13.63011892754534, 11.90241019894812, 7.273774939556879], "label": "O", "properties": {}}, {"species": [{"element": "O", "occu": 1}], "abc": [0.77124672, 0.9523364, 0.12150666], "xyz": [15.47134959477712, 12.5409409263856, 5.56462264654098], "label": "O", "properties": {}}, {"species": [{"element": "O", "occu": 1}], "abc": [0.22391959, 0.63953809, 0.14235951], "xyz": [7.663402538924219, 8.42182385012636, 6.519617552622029], "label": "O", "properties": {}}, {"species": [{"element": "O", "occu": 1}], "abc": [0.72869285, 0.62244727, 0.12155645], "xyz": [12.19483733117914, 8.19676160951108, 5.56690287185185], "label": "O", "properties": {}}, {"species": [{"element": "O", "occu": 1}], "abc": [0.27562823, 0.93532913, 0.14242221], "xyz": [10.726925599486139, 12.316978922634519, 6.52248901530513], "label": "O", "properties": {}}, {"species": [{"element": "O", "occu": 1}], "abc": [0.79170393, 0.53839948, 0.17486632], "xyz": [12.044894641996041, 7.08996954592592, 8.00832715169096], "label": "O", "properties": {}}, {"species": [{"element": "O", "occu": 1}], "abc": [0.23431468, 0.03595891, 0.09196147], "xyz": [2.4869268274719, 0.47352864606163997, 4.21154592325391], "label": "O", "properties": {}}, {"species": [{"element": "O", "occu": 1}], "abc": [0.70812112, 0.03592123, 0.17487616], "xyz": [6.880183925553181, 0.47303245306291997, 8.00877779272448], "label": "O", "properties": {}}, {"species": [{"element": "O", "occu": 1}], "abc": [0.26551853, 0.5388981, 0.09189013], "xyz": [7.16995652527088, 7.096535675252401, 4.20827877576089], "label": "O", "properties": {}}, {"species": [{"element": "O", "occu": 1}], "abc": [0.45065991, 0.33788024, 0.20130236999999998], "xyz": [7.13067196879444, 4.44941107998496, 9.219015047441609], "label": "O", "properties": {}}, {"species": [{"element": "O", "occu": 1}], "abc": [0.5500694, 0.24632472, 0.27524269], "xyz": [7.2526625897158405, 3.24375269309088, 12.60524901325457], "label": "O", "properties": {}}, {"species": [{"element": "O", "occu": 1}], "abc": [0.04979638, 0.23630782, 0.20126776], "xyz": [2.52614522883492, 3.1118441036832802, 9.217430018359279], "label": "O", "properties": {}}, {"species": [{"element": "O", "occu": 1}], "abc": [0.94967792, 0.32810437, 0.27525052], "xyz": [11.67264199886026, 4.32067651919948, 12.60560760261356], "label": "O", "properties": {}}, {"species": [{"element": "O", "occu": 1}], "abc": [0.08395796, 0.84311807, 0.23829815000000001], "xyz": [8.144019614685899, 11.102687989074282, 10.91330534572195], "label": "O", "properties": {}}, {"species": [{"element": "O", "occu": 1}], "abc": [0.91732558, 0.72760094, 0.21908683999999998], "xyz": [14.86264300805636, 9.58148864888776, 10.033487805714518], "label": "O", "properties": {}}, {"species": [{"element": "O", "occu": 1}], "abc": [0.41509626, 0.7321448, 0.23842288999999997], "xyz": [10.24518779183416, 9.641324941859201, 10.919018045165169], "label": "O", "properties": {}}, {"species": [{"element": "O", "occu": 1}], "abc": [0.5833677, 0.84647813, 0.21900688999999998], "xyz": [12.80437765055746, 11.146935288630521, 10.029826347317169], "label": "O", "properties": {}}, {"species": [{"element": "O", "occu": 1}], "abc": [0.75537547, 0.86637002, 0.25713019000000004], "xyz": [14.57317372424936, 11.408883710852079, 11.775753513292072], "label": "O", "properties": {}}, {"species": [{"element": "O", "occu": 1}], "abc": [0.25830135, 0.70385684, 0.20029687999999998], "xyz": [8.54411181524428, 9.26881199865136, 9.17296676971864], "label": "O", "properties": {}}, {"species": [{"element": "O", "occu": 1}], "abc": [0.74453392, 0.70819715, 0.25716017], "xyz": [13.09084199946182, 9.325967822278601, 11.777126502945011], "label": "O", "properties": {}}, {"species": [{"element": "O", "occu": 1}], "abc": [0.2416596, 0.8707105, 0.20021720999999998], "xyz": [9.8474275071986, 11.466041773142, 9.169318134440129], "label": "O", "properties": {}}, {"species": [{"element": "O", "occu": 1}], "abc": [0.11826901, 0.4037423, 0.21071451], "xyz": [4.62379686617816, 5.3167224667492, 9.65006143943703], "label": "O", "properties": {}}, {"species": [{"element": "O", "occu": 1}], "abc": [0.89058246, 0.16069845, 0.27144562], "xyz": [9.662193946548658, 2.1161742514638, 12.43135515663386], "label": "O", "properties": {}}, {"species": [{"element": "O", "occu": 1}], "abc": [0.38195089, 0.17058456, 0.21078908999999998], "xyz": [5.03204085445996, 2.24636051915424, 9.653476968733768], "label": "O", "properties": {}}, {"species": [{"element": "O", "occu": 1}], "abc": [0.60936433, 0.41352356, 0.27134810000000004], "xyz": [9.2631512672666, 5.44552800631024, 12.4268890475293], "label": "O", "properties": {}}, {"species": [{"element": "O", "occu": 1}], "abc": [0.7759317, 0.43465038, 0.22723517], "xyz": [10.99228710208596, 5.72373873266952, 10.406655676920009], "label": "O", "properties": {}}, {"species": [{"element": "O", "occu": 1}], "abc": [0.22898343, 0.12241571, 0.24817528999999997], "xyz": [3.1927771585105, 1.6120440083688399, 11.365647274362368], "label": "O", "properties": {}}, {"species": [{"element": "O", "occu": 1}], "abc": [0.72414295, 0.13951695, 0.22732957999999998], "xyz": [7.9337660672941, 1.8372434658378, 10.410979357811739], "label": "O", "properties": {}}, {"species": [{"element": "O", "occu": 1}], "abc": [0.27093231, 0.45198196, 0.24814296], "xyz": [6.46085869613228, 5.9519714463838405, 11.36416666210488], "label": "O", "properties": {}}, {"species": [{"element": "O", "occu": 1}], "abc": [0.76561633, 0.03879607, 0.27784318], "xyz": [7.43844908608362, 0.51089008258628, 12.724343271512542], "label": "O", "properties": {}}, {"species": [{"element": "O", "occu": 1}], "abc": [0.2080413, 0.53597582, 0.19483257999999998], "xyz": [6.61144365655444, 7.05805332715528, 8.92271902587074], "label": "O", "properties": {}}, {"species": [{"element": "O", "occu": 1}], "abc": [0.73412505, 0.53559595, 0.27764934], "xyz": [11.486476577539701, 7.053050969553801, 12.71546600952702], "label": "O", "properties": {}}, {"species": [{"element": "O", "occu": 1}], "abc": [0.29262474, 0.03819059, 0.19492009], "xyz": [3.04712940915262, 0.50291675623636, 8.92672670847677], "label": "O", "properties": {}}, {"species": [{"element": "O", "occu": 1}], "abc": [0.45124588, 0.83012695, 0.29562575], "xyz": [11.436373885875181, 10.9316130742778, 13.538729015764751], "label": "O", "properties": {}}, {"species": [{"element": "O", "occu": 1}], "abc": [0.04957823, 0.74382272, 0.29529762000000004], "xyz": [6.9577735149133195, 9.79510684588288, 13.523701694389862], "label": "O", "properties": {}}, {"species": [{"element": "O", "occu": 1}], "abc": [0.08102712, 0.33529438, 0.34318035], "xyz": [3.6804932928354797, 4.4153589136455205, 15.71658004143855], "label": "O", "properties": {}}, {"species": [{"element": "O", "occu": 1}], "abc": [0.41870401, 0.23931423, 0.34310161], "xyz": [5.97327345366202, 3.15143432643492, 15.71297399723333], "label": "O", "properties": {}}, {"species": [{"element": "O", "occu": 1}], "abc": [0.26329713, 0.20230948, 0.30442322], "xyz": [4.20891872331524, 2.66413342756592, 13.94162545612666], "label": "O", "properties": {}}, {"species": [{"element": "O", "occu": 1}], "abc": [0.23592274, 0.37233253, 0.30438527000000004], "xyz": [5.4403989141645, 4.90309964388812, 13.939887465555312], "label": "O", "properties": {}}, {"species": [{"element": "O", "occu": 1}], "abc": [0.11683097, 0.90467388, 0.29783813000000003], "xyz": [8.98660126927508, 11.91329207486352, 13.640049057404891], "label": "O", "properties": {}}, {"species": [{"element": "O", "occu": 1}], "abc": [0.38400309, 0.66932049, 0.29791852], "xyz": [9.40802889671502, 8.81401648189596, 13.64373066641756], "label": "O", "properties": {}}, {"species": [{"element": "O", "occu": 1}], "abc": [0.2198574, 0.67633265, 0.3481108], "xyz": [7.9471713795397, 8.9063568401206, 15.9423791353124], "label": "O", "properties": {}}, {"species": [{"element": "O", "occu": 1}], "abc": [0.27850627, 0.89910714, 0.34823475000000004], "xyz": [10.4371781606884, 11.839985880232561, 15.94805565524175], "label": "O", "properties": {}}, {"species": [{"element": "O", "occu": 1}], "abc": [0.22661862, 0.02774209, 0.30209155000000004], "xyz": [2.3437794457648997, 0.36532459734236, 13.834842307892151], "label": "O", "properties": {}}, {"species": [{"element": "O", "occu": 1}], "abc": [0.27390772, 0.54641199, 0.30216729000000003], "xyz": [7.3133904730843, 7.1954831171619595, 13.83831096153837], "label": "O", "properties": {}}]}, "formula": "(Na3Zr2Si2PO12)6.0", "bandgap": 2.9728, "slab_thickness": 16.92228020192897}