{"miller": "100_0.31", "final_energy": -599.24470958, "gamma": 0.05977024549443669, "work_function": "Not calculated", "ionization_potentail": "Not calculated", "electron_affinity": "Not calculated", "is_stochiometric": true, "incar_parameters": {"SYSTEM": "unknown system", "LCOMPAT": false, "PREC": "normal", "ENMAX": 520.0, "ENAUG": 605.392, "EDIFF": 1e-05, "IALGO": 38, "IWAVPR": 11, "NBANDS": 312, "NBANDSLOW": -1, "NBANDSHIGH": -1, "NELECT": 520.0, "TURBO": 0, "IRESTART": 0, "NREBOOT": 0, "NMIN": 0, "EREF": 0.0, "ISMEAR": 0, "SIGMA": 0.05, "KSPACING": 0.5, "KGAMMA": true, "KBLOWUP": true, "LREAL": true, "ROPT": [-0.0005, -0.0005, -0.0005, -0.0005, -0.0005], "LMAXPAW": -100, "LMAXMIX": 4, "NLSPLINE": false, "ISTART": 0, "ICHARG": 2, "INIWAV": 1, "ISPIN": 1, "LNONCOLLINEAR": false, "MAGMOM": [0.6, 0.6, 0.6, 0.6, 0.6, 0.6, 0.6, 0.6, 0.6, 0.6, 0.6, 0.6, 0.6, 0.6, 0.6, 0.6, 0.6, 0.6, 0.6, 0.6, 0.6, 0.6, 0.6, 0.6, 0.6, 0.6, 0.6, 0.6, 0.6, 0.6, 0.6, 0.6, 0.6, 0.6, 0.6, 0.6, 0.6, 0.6, 0.6, 0.6, 0.6, 0.6, 0.6, 0.6, 0.6, 0.6, 0.6, 0.6, 0.6, 0.6, 0.6, 0.6, 0.6, 0.6, 0.6, 0.6, 0.6, 0.6, 0.6, 0.6, 0.6, 0.6, 0.6, 0.6, 0.6, 0.6, 0.6, 0.6, 0.6, 0.6, 0.6, 0.6, 0.6, 0.6, 0.6, 0.6, 0.6, 0.6, 0.6, 0.6], "NUPDOWN": -1.0, "LSORBIT": false, "SAXIS": [0.0, 0.0, 1.0], "LSPIRAL": false, "QSPIRAL": [0.0, 0.0, 0.0], "LZEROZ": false, "LASPH": false, "LMETAGGA": false, "NELM": 100, "NELMDL": -5, "NELMIN": 6, "ENINI": 520.0, "LDIAG": true, "LSUBROT": false, "WEIMIN": 0.001, "EBREAK": 1e-08, "DEPER": 0.3, "NRMM": 4, "TIME": 0.4, "AMIX": 0.4, "BMIX": 1.0, "AMIN": 0.1, "AMIX_MAG": 1.6, "BMIX_MAG": 1.0, "IMIX": 4, "MIXFIRST": false, "MAXMIX": -45, "WC": 100.0, "INIMIX": 1, "MIXPRE": 1, "MREMOVE": 5, "LDIPOL": false, "LMONO": false, "IDIPOL": 0, "EPSILON": 1.0, "DIPOL": [-100.0, -100.0, -100.0], "EFIELD": 0.0, "NGX": 54, "NGY": 54, "NGZ": 252, "NGXF": 108, "NGYF": 108, "NGZF": 504, "ADDGRID": false, "NSW": 150, "IBRION": 2, "MDALGO": 0, "ISIF": 2, "PSTRESS": 0.0, "EDIFFG": -0.01, "NFREE": 1, "POTIM": 0.5, "SMASS": -3.0, "SCALEE": 1.0, "TEBEG": 0.0001, "TEEND": 0.0001, "NBLOCK": 1, "KBLOCK": 150, "NPACO": 256, "APACO": 10.0, "ISYM": 0, "SYMPREC": 1e-05, "LORBIT": 11, "RWIGS": [-1.0, -1.0, -1.0, -1.0, -1.0], "NEDOS": 301, "EMIN": 10.0, "EMAX": -10.0, "EFERMI": 0.0, "NWRITE": 2, "LWAVE": false, "LDOWNSAMPLE": false, "LCHARG": false, "LPARD": false, "LVTOT": false, "LVHAR": false, "LELF": false, "LOPTICS": false, "STM": [0.0, 0.0, 0.0, 0.0, 0.0, 0.0, 0.0], "NPAR": 2, "NSIM": 4, "NBLK": -1, "LPLANE": true, "LSCALAPACK": true, "LSCAAWARE": false, "LSCALU": false, "LASYNC": false, "LORBITALREAL": false, "IDIOT": 3, "PHON_NSTRUCT": -1, "LMUSIC": false, "POMASS": [22.99, 91.224, 28.085, 30.974, 16.0], "DARWINR": [0.0, 0.0, 0.0, 0.0, 0.0], "DARWINV": [1.0, 1.0, 1.0, 1.0, 1.0], "LCORR": true, "GGA_COMPAT": true, "LBERRY": false, "ICORELEVEL": 0, "LDAU": false, "I_CONSTRAINED_M": 0, "GGA": "--", "VOSKOWN": 0, "LHFCALC": false, "PRECFOCK": "", "LSYMGRAD": false, "LHFONE": false, "LRHFCALC": false, "LTHOMAS": false, "LMODELHF": false, "LFOCKACE": false, "ENCUT4O": -1.0, "EXXOEP": 0, "FOURORBIT": 0, "AEXX": 0.0, "HFALPHA": 0.0, "MCALPHA": 0.0, "ALDAX": 1.0, "AGGAX": 1.0, "ALDAC": 1.0, "AGGAC": 1.0, "NKREDX": 1, "NKREDY": 1, "NKREDZ": 1, "SHIFTRED": false, "ODDONLY": false, "EVENONLY": false, "LMAXFOCK": 0, "NMAXFOCKAE": 0, "LFOCKAEDFT": false, "HFSCREEN": 0.0, "HFSCREENC": 0.0, "NBANDSGWLOW": 0, "LUSE_VDW": false, "Zab_VDW": -0.8491, "PARAM1": 0.1234, "PARAM2": 1.0, "PARAM3": 0.0, "MODEL_GW": 0, "MODEL_EPS0": 25.16553134, "MODEL_ALPHA": 1.0, "LEPSILON": false, "LRPA": false, "LNABLA": false, "LVEL": false, "CSHIFT": 0.1, "OMEGAMAX": -1.0, "DEG_THRESHOLD": 0.002, "RTIME": -0.1, "WPLASMAI": 0.0, "DFIELD": [0.0, 0.0, 0.0], "WPLASMA": [0.0, 0.0, 0.0, 0.0, 0.0, 0.0, 0.0, 0.0, 0.0], "NUCIND": false, "MAGPOS": [0.0, 0.0, 0.0], "LNICSALL": true, "ORBITALMAG": false, "LMAGBLOCH": false, "LCHIMAG": false, "LGAUGE": true, "MAGATOM": 0, "MAGDIPOL": [0.0, 0.0, 0.0], "AVECCONST": [0.0, 0.0, 0.0], "LFINITE_TEMPERATURE": false, "LADDER": false, "LRPAFORCE": false, "LFXC": false, "LHARTREE": true, "IBSE": 0, "KPOINT": [-1, 0, 0, 0], "LTCTC": false, "LTCTE": false, "LTETE": false, "LTRIPLET": false, "LFXCEPS": false, "LFXHEG": false, "NATURALO": 2, "LHOLEGF": false, "L2ORDER": false, "LDMP1": false, "LMP2LT": false, "LSMP2LT": false, "LGWLF": false, "ENCUTGW": -2.0, "ENCUTGWSOFT": -2.0, "ENCUTLF": -1.0, "LESF_SPLINES": false, "LMAXMP2": -1, "SCISSOR": 0.0, "NOMEGA": 0, "NOMEGAR": 0, "NBANDSGW": -1, "NBANDSO": -1, "NBANDSV": -1, "NELMGW": 1, "NELMHF": 1, "DIM": 3, "IESPILON": 4, "ANTIRES": 0, "OMEGAMIN": -30.0, "OMEGATL": -200.0, "OMEGAGRID": 0, "LSELFENERGY": false, "LSPECTRAL": false, "LSPECTRALGW": false, "LSINGLES": false, "LFERMIGW": false, "ODDONLYGW": false, "EVENONLYGW": false, "NKREDLFX": 1, "NKREDLFY": 1, "NKREDLFZ": 1, "MAXMEM": 2800, "TELESCOPE": 0, "NTAUPAR": -1, "NOMEGAPAR": -1, "DAMP_NEWTON": 0.80000001, "LAMBDA": 1.0, "OFIELD_KAPPA": 0.0, "OFIELD_K": [0.0, 0.0, 0.0], "OFIELD_Q6_NEAR": 0.0, "OFIELD_Q6_FAR": 0.0, "OFIELD_A": 0.0, "KPOINTS_OPT_MODE": 1, "LKPOINTS_OPT": false, "@module": "pymatgen.io.vasp.inputs", "@class": "Incar"}, "relaxed_structures": {"@module": "pymatgen.core.structure", "@class": "Structure", "charge": 0, "lattice": {"matrix": [[9.132688, 0.0, 0.0], [4.435089, 8.143568, 0.0], [0.0, 0.0, 45.116094]], "a": 9.132688, "b": 9.27295606635473, "c": 45.116094, "alpha": 90.0, "beta": 90.0, "gamma": 61.42673605530538, "volume": 3355.404179042951}, "sites": [{"species": [{"element": "Na", "occu": 1}], "abc": [0.17654767, 0.76959083, 0.00010000000000000026], "xyz": [5.02555861187083, 6.26721525628144, 0.004511609400000011], "label": "Na", "properties": {}}, {"species": [{"element": "Na", "occu": 1}], "abc": [0.76601012, 0.31256438, 0.13628276], "xyz": [8.38198227433238, 2.54538928290784, 6.1485458107394395], "label": "Na", "properties": {}}, {"species": [{"element": "Na", "occu": 1}], "abc": [0.74996011, 0.07369296, 0.051382170000000005], "xyz": [7.1759865333491195, 0.6001236308812801, 2.31816281164398], "label": "Na", "properties": {}}, {"species": [{"element": "Na", "occu": 1}], "abc": [0.19873217, 0.95421813, 0.13101839], "xyz": [6.04700123613653, 7.77074022848784, 5.91103799896866], "label": "Na", "properties": {}}, {"species": [{"element": "Na", "occu": 1}], "abc": [0.12494072, 0.58602207, 0.05849009000000001], "xyz": [3.74010465066959, 4.77231057654576, 2.63884439850846], "label": "Na", "properties": {}}, {"species": [{"element": "Na", "occu": 1}], "abc": [0.22080985, 0.78571966, 0.20557668], "xyz": [5.501324088526539, 6.39856148014688, 9.27481681908792], "label": "Na", "properties": {}}, {"species": [{"element": "Na", "occu": 1}], "abc": [0.60519413, 0.94210911, 0.17804214000000002], "xyz": [9.70538691928223, 7.67212960070448, 8.03256592420116], "label": "Na", "properties": {}}, {"species": [{"element": "Na", "occu": 1}], "abc": [0.07658654, 0.65815757, 0.33178023999999995], "xyz": [3.6184283737932494, 5.3597509260097596, 14.968628495182557], "label": "Na", "properties": {}}, {"species": [{"element": "Na", "occu": 1}], "abc": [0.05929062, 0.41696823, 0.24751076000000002], "xyz": [2.39077394400903, 3.39560913484464, 11.16671871417144], "label": "Na", "properties": {}}, {"species": [{"element": "Na", "occu": 1}], "abc": [0.69998505, 0.14347566, 0.32505229999999996], "xyz": [7.02907238774814, 1.16840379355488, 14.665090121716197], "label": "Na", "properties": {}}, {"species": [{"element": "Na", "occu": 1}], "abc": [0.626887, 0.7750197, 0.25249948], "xyz": [9.1624447285093, 6.3114256282896, 11.39179027463112], "label": "Na", "properties": {}}, {"species": [{"element": "Na", "occu": 1}], "abc": [0.6476341, 0.96126123, 0.38325956], "xyz": [10.17791928076027, 7.82809619226864, 17.29117433535864], "label": "Na", "properties": {}}, {"species": [{"element": "Zr", "occu": 1}], "abc": [0.26705853, 0.18414703, 0.05676294], "xyz": [3.25567069936431, 1.49961386080304, 2.5609221367563597], "label": "Zr", "properties": {}}, {"species": [{"element": "Zr", "occu": 1}], "abc": [0.9409749, 0.82497186, 0.13023026000000001], "xyz": [12.252453799126739, 6.71821443999648, 5.87548065180444], "label": "Zr", "properties": {}}, {"species": [{"element": "Zr", "occu": 1}], "abc": [0.52009391, 0.58519549, 0.08739262], "xyz": [7.34524949127869, 4.76557926610832, 3.94281365882628], "label": "Zr", "properties": {}}, {"species": [{"element": "Zr", "occu": 1}], "abc": [0.21031051, 0.25682063, 0.16682351], "xyz": [3.05972262203695, 2.09143626420784, 7.52642515856994], "label": "Zr", "properties": {}}, {"species": [{"element": "Zr", "occu": 1}], "abc": [0.61580301, 0.47189941, 0.21674124], "xyz": [7.71685264218837, 3.8429449344948803, 9.77851815751656], "label": "Zr", "properties": {}}, {"species": [{"element": "Zr", "occu": 1}], "abc": [0.30577824, 0.14404237, 0.29614732], "xyz": [3.43141799383005, 1.17301883497616, 13.36101032696808], "label": "Zr", "properties": {}}, {"species": [{"element": "Zr", "occu": 1}], "abc": [0.88491528, 0.90384751, 0.25337818999999995], "xyz": [12.090299307951028, 7.36054365931568, 11.431434237589857], "label": "Zr", "properties": {}}, {"species": [{"element": "Zr", "occu": 1}], "abc": [0.55915386, 0.54505983, 0.32684544], "xyz": [7.52396660375055, 4.43873178967344, 14.745989594511359], "label": "Zr", "properties": {}}, {"species": [{"element": "Si", "occu": 1}], "abc": [0.35228947, 0.54708921, 0.15236965], "xyz": [5.64373915248505, 4.45525818370128, 6.8743234521471], "label": "Si", "properties": {}}, {"species": [{"element": "Si", "occu": 1}], "abc": [0.1133815, 0.89273533, 0.06508438], "xyz": [4.99483850646637, 7.27005086585744, 2.9363530060117196], "label": "Si", "properties": {}}, {"species": [{"element": "Si", "occu": 1}], "abc": [0.95719088, 0.45621365, 0.10459305], "xyz": [10.765073804250289, 3.7152068813032004, 4.7188298755467], "label": "Si", "properties": {}}, {"species": [{"element": "Si", "occu": 1}], "abc": [0.50895941, 0.96735796, 0.11280382], "xyz": [8.938486143652518, 7.877745327601279, 5.08926774667908], "label": "Si", "properties": {}}, {"species": [{"element": "Si", "occu": 1}], "abc": [0.71263484, 0.83615097, 0.31851882], "xyz": [10.216675621036249, 6.80925228246096, 14.370325023889079], "label": "Si", "properties": {}}, {"species": [{"element": "Si", "occu": 1}], "abc": [0.47361514, 0.1817944, 0.23114948], "xyz": [5.1316536493979195, 1.4804550584192, 10.428561667731119], "label": "Si", "properties": {}}, {"species": [{"element": "Si", "occu": 1}], "abc": [0.31701974, 0.76183361, 0.27075583999999997], "xyz": [6.27404223880241, 6.20404380772048, 12.215445928488958], "label": "Si", "properties": {}}, {"species": [{"element": "Si", "occu": 1}], "abc": [0.86872891, 0.27243794, 0.27905338999999996], "xyz": [9.14211660248674, 2.21861689016992, 12.589798974258658], "label": "Si", "properties": {}}, {"species": [{"element": "P", "occu": 1}], "abc": [0.4768457, 0.37623415, 0.02387183], "xyz": [6.02351494233095, 3.0638883844472, 1.07700372623202], "label": "P", "properties": {}}, {"species": [{"element": "P", "occu": 1}], "abc": [0.934315, 0.10379812, 0.18605285], "xyz": [8.99316128895268, 0.84528704849216, 8.393977869567898], "label": "P", "properties": {}}, {"species": [{"element": "P", "occu": 1}], "abc": [0.89212351, 0.62437492, 0.19757254], "xyz": [10.91664401386276, 5.084639618514561, 8.913701286458759], "label": "P", "properties": {}}, {"species": [{"element": "P", "occu": 1}], "abc": [0.34841811, 0.35426872, 0.35953949999999996], "xyz": [4.75320719529576, 2.8850114115929597, 16.221017878712995], "label": "P", "properties": {}}, {"species": [{"element": "O", "occu": 1}], "abc": [0.18717698, 0.72500435, 0.14642568], "xyz": [4.924887776759389, 5.904122224520799, 6.60615474289392], "label": "O", "properties": {}}, {"species": [{"element": "O", "occu": 1}], "abc": [0.2827277, 0.72037334, 0.07275075], "xyz": [5.7769837491848595, 5.86640927967712, 3.2822296755705], "label": "O", "properties": {}}, {"species": [{"element": "O", "occu": 1}], "abc": [0.02341575, 0.33586681, 0.13340996], "xyz": [1.70344793353209, 2.73515420617808, 6.018936295896239], "label": "O", "properties": {}}, {"species": [{"element": "O", "occu": 1}], "abc": [0.46008419, 0.08606516, 0.08275649], "xyz": [4.5835120054019605, 0.70087748289088, 3.73364958195006], "label": "O", "properties": {}}, {"species": [{"element": "O", "occu": 1}], "abc": [0.61954274, 0.22312659, 0.011176159999999997], "xyz": [6.64767683200163, 1.8170465582731201, 0.5042246851190398], "label": "O", "properties": {}}, {"species": [{"element": "O", "occu": 1}], "abc": [0.39241391, 0.53193233, 0.00563091], "xyz": [5.942961032417449, 4.33182710075344, 0.25404466486554], "label": "O", "properties": {}}, {"species": [{"element": "O", "occu": 1}], "abc": [0.32904522, 0.32814176, 0.03218424], "xyz": [4.460405242368, 2.67224473619968, 1.45202719715856], "label": "O", "properties": {}}, {"species": [{"element": "O", "occu": 1}], "abc": [0.89220962, 0.03912674, 0.15709624], "xyz": [8.32180266423842, 0.31863126780832, 7.087568730886559], "label": "O", "properties": {}}, {"species": [{"element": "O", "occu": 1}], "abc": [0.53408888, 0.4134185, 0.05539597], "xyz": [6.7112149470559395, 3.3667016672080003, 2.49924978974118], "label": "O", "properties": {}}, {"species": [{"element": "O", "occu": 1}], "abc": [0.29796466, 0.40452877, 0.15500471], "xyz": [4.51533937281661, 3.29430754645136, 6.993207066802739], "label": "O", "properties": {}}, {"species": [{"element": "O", "occu": 1}], "abc": [0.17614531, 0.02691287, 0.05388229], "xyz": [1.72804113258871, 0.21916678692015998, 2.4309584605752597], "label": "O", "properties": {}}, {"species": [{"element": "O", "occu": 1}], "abc": [0.96937706, 0.62671566, 0.10728135], "xyz": [11.63255797313102, 5.10370159387488, 4.840115471046899], "label": "O", "properties": {}}, {"species": [{"element": "O", "occu": 1}], "abc": [0.49593675, 0.80420607, 0.10325247], "xyz": [8.095961100274229, 6.54910681705776, 4.65834814225218], "label": "O", "properties": {}}, {"species": [{"element": "O", "occu": 1}], "abc": [0.37419805, 0.05995611, 0.13975539], "xyz": [3.6833447248021898, 0.48825665880048, 6.3052173122466595], "label": "O", "properties": {}}, {"species": [{"element": "O", "occu": 1}], "abc": [0.08553769, 0.36583506, 0.07623685000000001], "xyz": [2.4037000854310597, 2.97920268789408, 3.4395088908639], "label": "O", "properties": {}}, {"species": [{"element": "O", "occu": 1}], "abc": [0.00126159, 0.94734976, 0.09634978], "xyz": [4.213102207582559, 7.714807190343681, 4.3469257313593195], "label": "O", "properties": {}}, {"species": [{"element": "O", "occu": 1}], "abc": [0.48542341, 0.49288495, 0.12429541999999999], "xyz": [6.61920917143663, 4.0138421065016, 5.607723852489479], "label": "O", "properties": {}}, {"species": [{"element": "O", "occu": 1}], "abc": [0.00941859, 0.86006227, 0.039441260000000006], "xyz": [3.9004697568619497, 7.00397557997936, 1.77943559363844], "label": "O", "properties": {}}, {"species": [{"element": "O", "occu": 1}], "abc": [0.6897298, 0.93751223, 0.12401266999999999], "xyz": [10.45703724634087, 7.63469459583664, 5.594967276910979], "label": "O", "properties": {}}, {"species": [{"element": "O", "occu": 1}], "abc": [0.77415426, 0.48116925, 0.09481456], "xyz": [9.204137768264129, 3.918434506884, 4.27766260152864], "label": "O", "properties": {}}, {"species": [{"element": "O", "occu": 1}], "abc": [0.54275312, 0.0082246, 0.31089432], "xyz": [4.9932717389759596, 0.0669775893728, 14.026337365186079], "label": "O", "properties": {}}, {"species": [{"element": "O", "occu": 1}], "abc": [0.63881057, 0.00399088, 0.23715479], "xyz": [5.8517575349004805, 0.032500002659839995, 10.69949779819026], "label": "O", "properties": {}}, {"species": [{"element": "O", "occu": 1}], "abc": [0.3662025, 0.64336524, 0.30084203], "xyz": [6.197795276226359, 5.23928858077632, 13.572817304630819], "label": "O", "properties": {}}, {"species": [{"element": "O", "occu": 1}], "abc": [0.80232785, 0.39291314, 0.25024158999999996], "xyz": [9.07001467293026, 3.19971487368352, 11.289923097149458], "label": "O", "properties": {}}, {"species": [{"element": "O", "occu": 1}], "abc": [0.02832906, 0.44304861, 0.19483672], "xyz": [2.22368048298957, 3.60799648284048, 8.790271774171678], "label": "O", "properties": {}}, {"species": [{"element": "O", "occu": 1}], "abc": [0.7981658, 0.2851269, 0.18885984], "xyz": [8.5539624014645, 2.3219502987792002, 8.52061829426496], "label": "O", "properties": {}}, {"species": [{"element": "O", "occu": 1}], "abc": [0.88605414, 0.72997928, 0.17082034000000001], "xyz": [11.329579086684241, 5.94463590527104, 7.70674651655196], "label": "O", "properties": {}}, {"species": [{"element": "O", "occu": 1}], "abc": [0.94086863, 0.99809684, 0.21282558000000001], "xyz": [13.0193079627962, 8.12806948712512, 9.60185887288452], "label": "O", "properties": {}}, {"species": [{"element": "O", "occu": 1}], "abc": [0.11004972, 0.08938157, 0.18168995], "xyz": [1.40146497515709, 0.72788489324176, 8.1971408630553], "label": "O", "properties": {}}, {"species": [{"element": "O", "occu": 1}], "abc": [0.71629296, 0.63884881, 0.20181102], "xyz": [9.37503145017057, 5.202508725954081, 9.10492494855588], "label": "O", "properties": {}}, {"species": [{"element": "O", "occu": 1}], "abc": [0.29269416, 0.31626862, 0.32794239], "xyz": [4.075763920309259, 2.57555501323616, 14.795479693824658], "label": "O", "properties": {}}, {"species": [{"element": "O", "occu": 1}], "abc": [0.9334938, 0.68941686, 0.22656273], "xyz": [11.582932757534941, 5.614313079756481, 10.221625423576619], "label": "O", "properties": {}}, {"species": [{"element": "O", "occu": 1}], "abc": [0.65055618, 0.70170032, 0.32981234], "xyz": [9.05342998894032, 5.71434427154176, 14.879844533799957], "label": "O", "properties": {}}, {"species": [{"element": "O", "occu": 1}], "abc": [0.52797343, 0.32432219, 0.22849207], "xyz": [6.260214385804749, 2.64113980817392, 10.308669708374579], "label": "O", "properties": {}}, {"species": [{"element": "O", "occu": 1}], "abc": [0.32996506, 0.92504604, 0.28021541], "xyz": [7.11612946037884, 7.53317532987072, 12.642224777808538], "label": "O", "properties": {}}, {"species": [{"element": "O", "occu": 1}], "abc": [0.85634861, 0.10206918, 0.27635873], "xyz": [8.2734505718207, 0.8312073080342399, 12.468226440400619], "label": "O", "properties": {}}, {"species": [{"element": "O", "occu": 1}], "abc": [0.74048062, 0.36299883, 0.30740709], "xyz": [8.37251059045243, 2.95610565602544, 13.869007168706458], "label": "O", "properties": {}}, {"species": [{"element": "O", "occu": 1}], "abc": [0.45154252, 0.66916616, 0.24376803], "xyz": [7.091608429281999, 5.44940012725888, 10.99786135567482], "label": "O", "properties": {}}, {"species": [{"element": "O", "occu": 1}], "abc": [0.34037042, 0.23606991, 0.25920089999999996], "xyz": [4.15548791136095, 1.92245136483888, 11.694132169284597], "label": "O", "properties": {}}, {"species": [{"element": "O", "occu": 1}], "abc": [0.82442443, 0.78166605, 0.28722833], "xyz": [10.99596959879629, 6.3655506314664, 12.958620335743017], "label": "O", "properties": {}}, {"species": [{"element": "O", "occu": 1}], "abc": [0.38009815, 0.16380268, 0.2015353], "xyz": [4.19779727756572, 1.33393826316224, 9.092485539118199], "label": "O", "properties": {}}, {"species": [{"element": "O", "occu": 1}], "abc": [0.44633118, 0.56467925, 0.18195152], "xyz": [6.58060614181509, 4.598503870564, 8.208941879762879], "label": "O", "properties": {}}, {"species": [{"element": "O", "occu": 1}], "abc": [0.05169052, 0.24764989, 0.28882550999999995], "xyz": [1.57042269470797, 2.0167537194075202, 13.030678858757938], "label": "O", "properties": {}}, {"species": [{"element": "O", "occu": 1}], "abc": [0.13606719, 0.79102818, 0.25974739999999996], "xyz": [4.7509395731147395, 6.44179177374624, 11.718788114655597], "label": "O", "properties": {}}, {"species": [{"element": "O", "occu": 1}], "abc": [0.20546432, 0.50800695, 0.371978], "xyz": [4.129497565560709, 4.1369891417976, 16.782194413931997], "label": "O", "properties": {}}, {"species": [{"element": "O", "occu": 1}], "abc": [0.4314795, 0.19912058, 0.37795977999999997], "xyz": [4.8236851459276195, 1.62155198342944, 17.052068962699316], "label": "O", "properties": {}}, {"species": [{"element": "O", "occu": 1}], "abc": [0.49715687, 0.40137171, 0.35147113999999996], "xyz": [6.32049783669875, 3.26859781366128, 15.857004990527157], "label": "O", "properties": {}}, {"species": [{"element": "O", "occu": 1}], "abc": [0.81635798, 0.86968151, 0.34407954999999996], "xyz": [11.31265762615463, 7.082310515027681, 15.523525321277697], "label": "O", "properties": {}}]}, "formula": "(Na3Zr2Si2PO12)4.0", "bandgap": 3.319, "slab_thickness": 17.28666272595864}