{"miller": "100_0.05", "final_energy": -599.24402598, "gamma": 0.059774841268926564, "work_function": "Not calculated", "ionization_potentail": "Not calculated", "electron_affinity": "Not calculated", "is_stochiometric": true, "incar_parameters": {"SYSTEM": "unknown system", "LCOMPAT": false, "PREC": "normal", "ENMAX": 520.0, "ENAUG": 605.392, "EDIFF": 1e-05, "IALGO": 38, "IWAVPR": 11, "NBANDS": 312, "NBANDSLOW": -1, "NBANDSHIGH": -1, "NELECT": 520.0, "TURBO": 0, "IRESTART": 0, "NREBOOT": 0, "NMIN": 0, "EREF": 0.0, "ISMEAR": 0, "SIGMA": 0.05, "KSPACING": 0.5, "KGAMMA": true, "KBLOWUP": true, "LREAL": true, "ROPT": [-0.0005, -0.0005, -0.0005, -0.0005, -0.0005], "LMAXPAW": -100, "LMAXMIX": 4, "NLSPLINE": false, "ISTART": 0, "ICHARG": 2, "INIWAV": 1, "ISPIN": 1, "LNONCOLLINEAR": false, "MAGMOM": [0.6, 0.6, 0.6, 0.6, 0.6, 0.6, 0.6, 0.6, 0.6, 0.6, 0.6, 0.6, 0.6, 0.6, 0.6, 0.6, 0.6, 0.6, 0.6, 0.6, 0.6, 0.6, 0.6, 0.6, 0.6, 0.6, 0.6, 0.6, 0.6, 0.6, 0.6, 0.6, 0.6, 0.6, 0.6, 0.6, 0.6, 0.6, 0.6, 0.6, 0.6, 0.6, 0.6, 0.6, 0.6, 0.6, 0.6, 0.6, 0.6, 0.6, 0.6, 0.6, 0.6, 0.6, 0.6, 0.6, 0.6, 0.6, 0.6, 0.6, 0.6, 0.6, 0.6, 0.6, 0.6, 0.6, 0.6, 0.6, 0.6, 0.6, 0.6, 0.6, 0.6, 0.6, 0.6, 0.6, 0.6, 0.6, 0.6, 0.6], "NUPDOWN": -1.0, "LSORBIT": false, "SAXIS": [0.0, 0.0, 1.0], "LSPIRAL": false, "QSPIRAL": [0.0, 0.0, 0.0], "LZEROZ": false, "LASPH": false, "LMETAGGA": false, "NELM": 100, "NELMDL": -5, "NELMIN": 6, "ENINI": 520.0, "LDIAG": true, "LSUBROT": false, "WEIMIN": 0.001, "EBREAK": 1e-08, "DEPER": 0.3, "NRMM": 4, "TIME": 0.4, "AMIX": 0.4, "BMIX": 1.0, "AMIN": 0.1, "AMIX_MAG": 1.6, "BMIX_MAG": 1.0, "IMIX": 4, "MIXFIRST": false, "MAXMIX": -45, "WC": 100.0, "INIMIX": 1, "MIXPRE": 1, "MREMOVE": 5, "LDIPOL": false, "LMONO": false, "IDIPOL": 0, "EPSILON": 1.0, "DIPOL": [-100.0, -100.0, -100.0], "EFIELD": 0.0, "NGX": 54, "NGY": 54, "NGZ": 252, "NGXF": 108, "NGYF": 108, "NGZF": 504, "ADDGRID": false, "NSW": 150, "IBRION": 2, "MDALGO": 0, "ISIF": 2, "PSTRESS": 0.0, "EDIFFG": -0.01, "NFREE": 1, "POTIM": 0.5, "SMASS": -3.0, "SCALEE": 1.0, "TEBEG": 0.0001, "TEEND": 0.0001, "NBLOCK": 1, "KBLOCK": 150, "NPACO": 256, "APACO": 10.0, "ISYM": 0, "SYMPREC": 1e-05, "LORBIT": 11, "RWIGS": [-1.0, -1.0, -1.0, -1.0, -1.0], "NEDOS": 301, "EMIN": 10.0, "EMAX": -10.0, "EFERMI": 0.0, "NWRITE": 2, "LWAVE": false, "LDOWNSAMPLE": false, "LCHARG": false, "LPARD": false, "LVTOT": false, "LVHAR": false, "LELF": false, "LOPTICS": false, "STM": [0.0, 0.0, 0.0, 0.0, 0.0, 0.0, 0.0], "NPAR": 2, "NSIM": 4, "NBLK": -1, "LPLANE": true, "LSCALAPACK": true, "LSCAAWARE": false, "LSCALU": false, "LASYNC": false, "LORBITALREAL": false, "IDIOT": 3, "PHON_NSTRUCT": -1, "LMUSIC": false, "POMASS": [22.99, 91.224, 28.085, 30.974, 16.0], "DARWINR": [0.0, 0.0, 0.0, 0.0, 0.0], "DARWINV": [1.0, 1.0, 1.0, 1.0, 1.0], "LCORR": true, "GGA_COMPAT": true, "LBERRY": false, "ICORELEVEL": 0, "LDAU": false, "I_CONSTRAINED_M": 0, "GGA": "--", "VOSKOWN": 0, "LHFCALC": false, "PRECFOCK": "", "LSYMGRAD": false, "LHFONE": false, "LRHFCALC": false, "LTHOMAS": false, "LMODELHF": false, "LFOCKACE": false, "ENCUT4O": -1.0, "EXXOEP": 0, "FOURORBIT": 0, "AEXX": 0.0, "HFALPHA": 0.0, "MCALPHA": 0.0, "ALDAX": 1.0, "AGGAX": 1.0, "ALDAC": 1.0, "AGGAC": 1.0, "NKREDX": 1, "NKREDY": 1, "NKREDZ": 1, "SHIFTRED": false, "ODDONLY": false, "EVENONLY": false, "LMAXFOCK": 0, "NMAXFOCKAE": 0, "LFOCKAEDFT": false, "HFSCREEN": 0.0, "HFSCREENC": 0.0, "NBANDSGWLOW": 0, "LUSE_VDW": false, "Zab_VDW": -0.8491, "PARAM1": 0.1234, "PARAM2": 1.0, "PARAM3": 0.0, "MODEL_GW": 0, "MODEL_EPS0": 25.16553134, "MODEL_ALPHA": 1.0, "LEPSILON": false, "LRPA": false, "LNABLA": false, "LVEL": false, "CSHIFT": 0.1, "OMEGAMAX": -1.0, "DEG_THRESHOLD": 0.002, "RTIME": -0.1, "WPLASMAI": 0.0, "DFIELD": [0.0, 0.0, 0.0], "WPLASMA": [0.0, 0.0, 0.0, 0.0, 0.0, 0.0, 0.0, 0.0, 0.0], "NUCIND": false, "MAGPOS": [0.0, 0.0, 0.0], "LNICSALL": true, "ORBITALMAG": false, "LMAGBLOCH": false, "LCHIMAG": false, "LGAUGE": true, "MAGATOM": 0, "MAGDIPOL": [0.0, 0.0, 0.0], "AVECCONST": [0.0, 0.0, 0.0], "LFINITE_TEMPERATURE": false, "LADDER": false, "LRPAFORCE": false, "LFXC": false, "LHARTREE": true, "IBSE": 0, "KPOINT": [-1, 0, 0, 0], "LTCTC": false, "LTCTE": false, "LTETE": false, "LTRIPLET": false, "LFXCEPS": false, "LFXHEG": false, "NATURALO": 2, "LHOLEGF": false, "L2ORDER": false, "LDMP1": false, "LMP2LT": false, "LSMP2LT": false, "LGWLF": false, "ENCUTGW": -2.0, "ENCUTGWSOFT": -2.0, "ENCUTLF": -1.0, "LESF_SPLINES": false, "LMAXMP2": -1, "SCISSOR": 0.0, "NOMEGA": 0, "NOMEGAR": 0, "NBANDSGW": -1, "NBANDSO": -1, "NBANDSV": -1, "NELMGW": 1, "NELMHF": 1, "DIM": 3, "IESPILON": 4, "ANTIRES": 0, "OMEGAMIN": -30.0, "OMEGATL": -200.0, "OMEGAGRID": 0, "LSELFENERGY": false, "LSPECTRAL": false, "LSPECTRALGW": false, "LSINGLES": false, "LFERMIGW": false, "ODDONLYGW": false, "EVENONLYGW": false, "NKREDLFX": 1, "NKREDLFY": 1, "NKREDLFZ": 1, "MAXMEM": 2800, "TELESCOPE": 0, "NTAUPAR": -1, "NOMEGAPAR": -1, "DAMP_NEWTON": 0.80000001, "LAMBDA": 1.0, "OFIELD_KAPPA": 0.0, "OFIELD_K": [0.0, 0.0, 0.0], "OFIELD_Q6_NEAR": 0.0, "OFIELD_Q6_FAR": 0.0, "OFIELD_A": 0.0, "KPOINTS_OPT_MODE": 1, "LKPOINTS_OPT": false, "@module": "pymatgen.io.vasp.inputs", "@class": "Incar"}, "relaxed_structures": {"@module": "pymatgen.core.structure", "@class": "Structure", "charge": 0, "lattice": {"matrix": [[9.132688, 0.0, 0.0], [4.435089, 8.143568, 0.0], [0.0, 0.0, 45.116094]], "a": 9.132688, "b": 9.27295606635473, "c": 45.116094, "alpha": 90.0, "beta": 90.0, "gamma": 61.42673605530538, "volume": 3355.404179042951}, "sites": [{"species": [{"element": "Na", "occu": 1}], "abc": [0.27006104, 0.84788956, 0.00010000000000000286], "xyz": [6.22684888004636, 6.904846288350081, 0.004511609400000129], "label": "Na", "properties": {}}, {"species": [{"element": "Na", "occu": 1}], "abc": [0.84229987, 0.15126804, 0.05166851], "xyz": [8.36334913540612, 1.23186156996672, 2.3310813539999398], "label": "Na", "properties": {}}, {"species": [{"element": "Na", "occu": 1}], "abc": [0.21781191, 0.66713297, 0.05879466], "xyz": [4.94800231349841, 5.43284270623696, 2.65258540725804], "label": "Na", "properties": {}}, {"species": [{"element": "Na", "occu": 1}], "abc": [0.31271462, 0.86778235, 0.20556462000000003], "xyz": [6.70461701237771, 7.0668445764248, 9.27427271899428], "label": "Na", "properties": {}}, {"species": [{"element": "Na", "occu": 1}], "abc": [0.69571548, 0.02177465, 0.178185], "xyz": [6.4503249263040905, 0.1773233429512, 8.039011209389999], "label": "Na", "properties": {}}, {"species": [{"element": "Na", "occu": 1}], "abc": [0.85823358, 0.39306832, 0.13623607000000001], "xyz": [9.58127249954352, 3.20097859256576, 6.146439340310581], "label": "Na", "properties": {}}, {"species": [{"element": "Na", "occu": 1}], "abc": [0.15048587, 0.49784288, 0.24754288000000002], "xyz": [3.5823179799348797, 4.0542173465958395, 11.16816784311072], "label": "Na", "properties": {}}, {"species": [{"element": "Na", "occu": 1}], "abc": [0.28997152, 0.03597173, 0.13091586], "xyz": [2.8077572450797295, 0.29293822933264, 5.90641224585084], "label": "Na", "properties": {}}, {"species": [{"element": "Na", "occu": 1}], "abc": [0.71817643, 0.85510231, 0.25268849], "xyz": [10.351336113099428, 6.96358380844208, 11.400317667558058], "label": "Na", "properties": {}}, {"species": [{"element": "Na", "occu": 1}], "abc": [0.73862625, 0.04316015, 0.38335929], "xyz": [6.9370621963633505, 0.35147761641520003, 17.29567376341326], "label": "Na", "properties": {}}, {"species": [{"element": "Na", "occu": 1}], "abc": [0.16760797, 0.7400462, 0.33166569], "xyz": [4.81288205743516, 6.0266165528416, 14.96346044661486], "label": "Na", "properties": {}}, {"species": [{"element": "Na", "occu": 1}], "abc": [0.79120088, 0.22382621, 0.32488622], "xyz": [8.21847994424813, 1.82274396131728, 14.657597240824678], "label": "Na", "properties": {}}, {"species": [{"element": "Zr", "occu": 1}], "abc": [0.35879525, 0.26575197, 0.05685941], "xyz": [4.45539871300733, 2.16416923882896, 2.56527448634454], "label": "Zr", "properties": {}}, {"species": [{"element": "Zr", "occu": 1}], "abc": [0.61205635, 0.66632426, 0.08754642000000001], "xyz": [8.544927078927941, 5.4262569213596805, 3.9497525140834804], "label": "Zr", "properties": {}}, {"species": [{"element": "Zr", "occu": 1}], "abc": [0.3016713, 0.33806716, 0.16688179], "xyz": [4.254427804031639, 2.7530729060268797, 7.529054524528259], "label": "Zr", "properties": {}}, {"species": [{"element": "Zr", "occu": 1}], "abc": [0.70706752, 0.55245396, 0.21679382000000003], "xyz": [8.9076095360962, 4.49894639012928, 9.78089036173908], "label": "Zr", "properties": {}}, {"species": [{"element": "Zr", "occu": 1}], "abc": [0.03260788, 0.90635664, 0.13035166], "xyz": [4.3175699585224, 7.380976930091521, 5.88095774561604], "label": "Zr", "properties": {}}, {"species": [{"element": "Zr", "occu": 1}], "abc": [0.97612406, 0.98438278, 0.25336719], "xyz": [13.280461728640699, 8.01638810695904, 11.43093796055586], "label": "Zr", "properties": {}}, {"species": [{"element": "Zr", "occu": 1}], "abc": [0.65032399, 0.62513023, 0.32690499], "xyz": [8.71171430622559, 5.0907905368606405, 14.74867625790906], "label": "Zr", "properties": {}}, {"species": [{"element": "Zr", "occu": 1}], "abc": [0.39688276, 0.22437841, 0.29613196], "xyz": [4.61974463768737, 1.82724083956688, 13.36031734376424], "label": "Zr", "properties": {}}, {"species": [{"element": "Si", "occu": 1}], "abc": [0.20537014, 0.97422539, 0.06511873], "xyz": [6.19635772384603, 7.93367071079152, 2.9379027438406196], "label": "Si", "properties": {}}, {"species": [{"element": "Si", "occu": 1}], "abc": [0.04904794, 0.53766912, 0.10466576], "xyz": [2.8325499328143997, 4.3785450402201604, 4.722110266741439], "label": "Si", "properties": {}}, {"species": [{"element": "Si", "occu": 1}], "abc": [0.6007684, 0.04854485, 0.11293937000000001], "xyz": [5.70193108770085, 0.3953282870248, 5.0953832332207805], "label": "Si", "properties": {}}, {"species": [{"element": "Si", "occu": 1}], "abc": [0.44356952, 0.62822704, 0.152422], "xyz": [6.837224867076319, 5.11600961967872, 6.876685279668], "label": "Si", "properties": {}}, {"species": [{"element": "Si", "occu": 1}], "abc": [0.56517095, 0.262258, 0.23121040999999998], "xyz": [6.324667523975599, 2.135715856544, 10.431310591338539], "label": "Si", "properties": {}}, {"species": [{"element": "Si", "occu": 1}], "abc": [0.40819908, 0.8420123, 0.27082692], "xyz": [7.462354329121739, 6.8569844218864, 12.21865278045048], "label": "Si", "properties": {}}, {"species": [{"element": "Si", "occu": 1}], "abc": [0.95976443, 0.35313567, 0.2790293], "xyz": [10.331417218212469, 2.87578434187056, 12.588712127554198], "label": "Si", "properties": {}}, {"species": [{"element": "Si", "occu": 1}], "abc": [0.80367601, 0.91662447, 0.31856434], "xyz": [11.40503335644271, 7.46459370190896, 14.37237870848796], "label": "Si", "properties": {}}, {"species": [{"element": "P", "occu": 1}], "abc": [0.56951665, 0.45612109, 0.024062650000000005], "xyz": [7.224155504182209, 3.71445311264912, 1.0856127792891002], "label": "P", "properties": {}}, {"species": [{"element": "P", "occu": 1}], "abc": [0.02600642, 0.18506268, 0.1861191], "xyz": [1.05827797623548, 1.5070705188422402, 8.3969668107954], "label": "P", "properties": {}}, {"species": [{"element": "P", "occu": 1}], "abc": [0.98311233, 0.70551114, 0.19761916000000002], "xyz": [12.1074628752345, 5.7453779433475205, 8.91580459876104], "label": "P", "properties": {}}, {"species": [{"element": "P", "occu": 1}], "abc": [0.43929517, 0.4347411, 0.35958764], "xyz": [5.94006119797486, 3.5403437102448, 16.223189767478157], "label": "P", "properties": {}}, {"species": [{"element": "O", "occu": 1}], "abc": [0.37493928, 0.80237147, 0.07292889000000001], "xyz": [6.982792343695469, 6.53416662720496, 3.2902666565556604], "label": "O", "properties": {}}, {"species": [{"element": "O", "occu": 1}], "abc": [0.55169715, 0.16721381, 0.08287276000000002], "xyz": [5.78008607081829, 1.36171703227408, 3.7388952301994407], "label": "O", "properties": {}}, {"species": [{"element": "O", "occu": 1}], "abc": [0.7119389, 0.30161719, 0.011704390000000002], "xyz": [7.83961493034311, 2.4562400967339197, 0.52805635945266], "label": "O", "properties": {}}, {"species": [{"element": "O", "occu": 1}], "abc": [0.48694013, 0.61065197, 0.005475850000000004], "xyz": [7.15536811694477, 4.97288584202896, 0.24704896332990017], "label": "O", "properties": {}}, {"species": [{"element": "O", "occu": 1}], "abc": [0.42021756, 0.41012021, 0.03229117000000001], "xyz": [5.65663549964997, 3.3398418183092797, 1.4568514610899803], "label": "O", "properties": {}}, {"species": [{"element": "O", "occu": 1}], "abc": [0.62560577, 0.49476919, 0.05556728000000001], "xyz": [7.90780770051767, 4.02918654306992, 2.5069786278043202], "label": "O", "properties": {}}, {"species": [{"element": "O", "occu": 1}], "abc": [0.26745079, 0.10900047, 0.05407149], "xyz": [2.92597140591535, 0.88765273947696, 2.43949442556006], "label": "O", "properties": {}}, {"species": [{"element": "O", "occu": 1}], "abc": [0.06134215, 0.70804487, 0.1074048], "xyz": [3.7004607316426297, 5.76601154589616, 4.845685052851199], "label": "O", "properties": {}}, {"species": [{"element": "O", "occu": 1}], "abc": [0.58816023, 0.88527868, 0.1034111], "xyz": [9.297773610200759, 7.20932712953024, 4.6655049082434], "label": "O", "properties": {}}, {"species": [{"element": "O", "occu": 1}], "abc": [0.17737739, 0.44754229, 0.07632306999999999], "xyz": [3.60482224853813, 3.64459107149072, 3.4433988004885796], "label": "O", "properties": {}}, {"species": [{"element": "O", "occu": 1}], "abc": [0.09231766, 0.02844671, 0.09629372], "xyz": [0.96927207627727, 0.23165771726128, 4.34439652312968], "label": "O", "properties": {}}, {"species": [{"element": "O", "occu": 1}], "abc": [0.10270349, 0.94049717, 0.03936969], "xyz": [5.109147583879249, 7.65900265770256, 1.7762066347908598], "label": "O", "properties": {}}, {"species": [{"element": "O", "occu": 1}], "abc": [0.86600364, 0.5627481, 0.09487936], "xyz": [10.404778959065219, 4.5827774192207995, 4.280586124419839], "label": "O", "properties": {}}, {"species": [{"element": "O", "occu": 1}], "abc": [0.2790386, 0.80659661, 0.14646215], "xyz": [6.12570022620509, 6.568574342104481, 6.6078001268421005], "label": "O", "properties": {}}, {"species": [{"element": "O", "occu": 1}], "abc": [0.72989709, 0.08408877, 0.23720321], "xyz": [7.03886357392845, 0.68478261653136, 10.701682319461739], "label": "O", "properties": {}}, {"species": [{"element": "O", "occu": 1}], "abc": [0.11505707, 0.41676787, 0.13342758000000002], "xyz": [2.8991829182945894, 3.39397748956016, 6.01973124147252], "label": "O", "properties": {}}, {"species": [{"element": "O", "occu": 1}], "abc": [0.89354283, 0.47401446, 0.25027423], "xyz": [10.26274419841398, 3.8601689879932803, 11.29139568645762], "label": "O", "properties": {}}, {"species": [{"element": "O", "occu": 1}], "abc": [0.11930751, 0.52416327, 0.19490038], "xyz": [3.4143090178679096, 4.26855923234736, 8.79314386471572], "label": "O", "properties": {}}, {"species": [{"element": "O", "occu": 1}], "abc": [0.88963333, 0.36630162, 0.18886234000000002], "xyz": [9.74932392283522, 2.98300215098016, 8.52073108449996], "label": "O", "properties": {}}, {"species": [{"element": "O", "occu": 1}], "abc": [0.97726011, 0.81121779, 0.17089089000000002], "xyz": [12.52283477650899, 6.60620723567472, 7.7099294569836605], "label": "O", "properties": {}}, {"species": [{"element": "O", "occu": 1}], "abc": [0.03186462, 0.07920878, 0.21282096], "xyz": [0.64230762157998, 0.6450420861270401, 9.601650436530239], "label": "O", "properties": {}}, {"species": [{"element": "O", "occu": 1}], "abc": [0.20174416, 0.17084732, 0.181941], "xyz": [2.60018953871356, 1.39130676803776, 8.208467258453998], "label": "O", "properties": {}}, {"species": [{"element": "O", "occu": 1}], "abc": [0.80716554, 0.72009771, 0.20180861], "xyz": [10.56528847371771, 5.8641646680292805, 9.10481621876934], "label": "O", "properties": {}}, {"species": [{"element": "O", "occu": 1}], "abc": [0.98500209, 0.12025727, 0.1570665], "xyz": [9.52906846266495, 0.97932325573936, 7.086226978250999], "label": "O", "properties": {}}, {"species": [{"element": "O", "occu": 1}], "abc": [0.02437578, 0.77032292, 0.22664323000000003], "xyz": [3.63906710243652, 6.27317708097856, 10.22525726914362], "label": "O", "properties": {}}, {"species": [{"element": "O", "occu": 1}], "abc": [0.38815872, 0.4864352, 0.15494107000000001], "xyz": [5.70231588897216, 3.9613181287936, 6.99033587858058], "label": "O", "properties": {}}, {"species": [{"element": "O", "occu": 1}], "abc": [0.62041233, 0.4041425, 0.22862247000000002], "xyz": [7.458440197425539, 3.2911619304400004, 10.31455284703218], "label": "O", "properties": {}}, {"species": [{"element": "O", "occu": 1}], "abc": [0.42125657, 0.00524174, 0.28022165], "xyz": [3.87045240517502, 0.04268646612832, 12.642506302235098], "label": "O", "properties": {}}, {"species": [{"element": "O", "occu": 1}], "abc": [0.94717921, 0.18292696, 0.27630094], "xyz": [9.461589553115921, 1.48967813779328, 12.465619181328359], "label": "O", "properties": {}}, {"species": [{"element": "O", "occu": 1}], "abc": [0.46576171, 0.1410147, 0.13986490000000001], "xyz": [4.87906912458478, 1.1483627984495999, 6.3101579757006006], "label": "O", "properties": {}}, {"species": [{"element": "O", "occu": 1}], "abc": [0.54273373, 0.74923643, 0.24385405999999998], "xyz": [8.27954807225851, 6.10145781578224, 11.001742693241638], "label": "O", "properties": {}}, {"species": [{"element": "O", "occu": 1}], "abc": [0.43165043, 0.31685388, 0.2592278], "xyz": [5.347403860051159, 2.5803211178438397, 11.6953457922132], "label": "O", "properties": {}}, {"species": [{"element": "O", "occu": 1}], "abc": [0.57722456, 0.5737728, 0.12443304], "xyz": [7.81634524619648, 4.6725578133504, 5.613932729345759], "label": "O", "properties": {}}, {"species": [{"element": "O", "occu": 1}], "abc": [0.47160181, 0.24500002, 0.20154495], "xyz": [5.39358908466706, 1.99517432287136, 9.092920909425299], "label": "O", "properties": {}}, {"species": [{"element": "O", "occu": 1}], "abc": [0.53726678, 0.64507071, 0.18211112000000002], "xyz": [7.767635884647831, 5.253177191693281, 8.21614240836528], "label": "O", "properties": {}}, {"species": [{"element": "O", "occu": 1}], "abc": [0.7813595, 0.01926515, 0.12413645000000001], "xyz": [7.22135518418435, 0.1568870590552, 5.6005517470263], "label": "O", "properties": {}}, {"species": [{"element": "O", "occu": 1}], "abc": [0.22717751, 0.87175228, 0.25976467000000003], "xyz": [5.941040267199799, 7.09917397133504, 11.719567269598981], "label": "O", "properties": {}}, {"species": [{"element": "O", "occu": 1}], "abc": [0.63390508, 0.08856939, 0.3108586], "xyz": [6.18207044458075, 0.72127085018352, 14.024725818308399], "label": "O", "properties": {}}, {"species": [{"element": "O", "occu": 1}], "abc": [0.45704866, 0.72371518, 0.30093933], "xyz": [7.383824046549099, 5.8936237809622405, 13.57720710057702], "label": "O", "properties": {}}, {"species": [{"element": "O", "occu": 1}], "abc": [0.29668556, 0.58952103, 0.37180293000000003], "xyz": [5.32411488900695, 4.80080459523504, 16.77429593935542], "label": "O", "properties": {}}, {"species": [{"element": "O", "occu": 1}], "abc": [0.52122833, 0.28035755, 0.3782213], "xyz": [6.0036264007229905, 2.2831107727384, 17.063867723602197], "label": "O", "properties": {}}, {"species": [{"element": "O", "occu": 1}], "abc": [0.58898291, 0.48054432, 0.35143787], "xyz": [7.51025398200656, 3.9133453469337605, 15.855503978079778], "label": "O", "properties": {}}, {"species": [{"element": "O", "occu": 1}], "abc": [0.38374345, 0.39599566, 0.32803612], "xyz": [5.26088519660734, 3.2248175849148804, 14.799708425315279], "label": "O", "properties": {}}, {"species": [{"element": "O", "occu": 1}], "abc": [0.74148958, 0.78206802, 0.32974039], "xyz": [10.24033426214482, 6.36882410149536, 14.876598430836658], "label": "O", "properties": {}}, {"species": [{"element": "O", "occu": 1}], "abc": [0.8318048, 0.44356284, 0.30741399], "xyz": [9.56385438779516, 3.61218414981312, 13.86931846975506], "label": "O", "properties": {}}, {"species": [{"element": "O", "occu": 1}], "abc": [0.91601855, 0.86223603, 0.28732106], "xyz": [12.18980515141907, 7.02167774235504, 12.96280395113964], "label": "O", "properties": {}}, {"species": [{"element": "O", "occu": 1}], "abc": [0.90693162, 0.95051253, 0.3441751], "xyz": [12.49833118895973, 7.74056342290704, 15.5278361640594], "label": "O", "properties": {}}, {"species": [{"element": "O", "occu": 1}], "abc": [0.14291215, 0.32793593, 0.28875363], "xyz": [2.7595971132069694, 2.6705685455982398, 13.027435913921218], "label": "O", "properties": {}}]}, "formula": "(Na3Zr2Si2PO12)4.0", "bandgap": 3.3134, "slab_thickness": 17.291162154013257}