{"miller": "100_0.00", "final_energy": -297.43542573, "gamma": 0.044587628284186415, "work_function": "Not calculated", "ionization_potentail": "Not calculated", "electron_affinity": "Not calculated", "is_stochiometric": true, "incar_parameters": {"SYSTEM": "unknown system", "LCOMPAT": false, "PREC": "normal", "ENMAX": 520.0, "ENAUG": 605.392, "EDIFF": 1e-05, "IALGO": 38, "IWAVPR": 11, "NBANDS": 156, "NBANDSLOW": -1, "NBANDSHIGH": -1, "NELECT": 260.0, "TURBO": 0, "IRESTART": 0, "NREBOOT": 0, "NMIN": 0, "EREF": 0.0, "ISMEAR": 0, "SIGMA": 0.05, "KSPACING": 0.5, "KGAMMA": true, "KBLOWUP": true, "LREAL": true, "ROPT": [-0.0005, -0.0005, -0.0005, -0.0005, -0.0005], "LMAXPAW": -100, "LMAXMIX": 4, "NLSPLINE": false, "ISTART": 0, "ICHARG": 2, "INIWAV": 1, "ISPIN": 1, "LNONCOLLINEAR": false, "MAGMOM": [0.6, 0.6, 0.6, 0.6, 0.6, 0.6, 0.6, 0.6, 0.6, 0.6, 0.6, 0.6, 0.6, 0.6, 0.6, 0.6, 0.6, 0.6, 0.6, 0.6, 0.6, 0.6, 0.6, 0.6, 0.6, 0.6, 0.6, 0.6, 0.6, 0.6, 0.6, 0.6, 0.6, 0.6, 0.6, 0.6, 0.6, 0.6, 0.6, 0.6], "NUPDOWN": -1.0, "LSORBIT": false, "SAXIS": [0.0, 0.0, 1.0], "LSPIRAL": false, "QSPIRAL": [0.0, 0.0, 0.0], "LZEROZ": false, "LASPH": false, "LMETAGGA": false, "NELM": 100, "NELMDL": -5, "NELMIN": 6, "ENINI": 520.0, "LDIAG": true, "LSUBROT": false, "WEIMIN": 0.001, "EBREAK": 2e-08, "DEPER": 0.3, "NRMM": 4, "TIME": 0.4, "AMIX": 0.4, "BMIX": 1.0, "AMIN": 0.1, "AMIX_MAG": 1.6, "BMIX_MAG": 1.0, "IMIX": 4, "MIXFIRST": false, "MAXMIX": -45, "WC": 100.0, "INIMIX": 1, "MIXPRE": 1, "MREMOVE": 5, "LDIPOL": false, "LMONO": false, "IDIPOL": 0, "EPSILON": 1.0, "DIPOL": [-100.0, -100.0, -100.0], "EFIELD": 0.0, "NGX": 54, "NGY": 54, "NGZ": 252, "NGXF": 108, "NGYF": 108, "NGZF": 504, "ADDGRID": false, "NSW": 150, "IBRION": 2, "MDALGO": 0, "ISIF": 2, "PSTRESS": 0.0, "EDIFFG": -0.01, "NFREE": 1, "POTIM": 0.5, "SMASS": -3.0, "SCALEE": 1.0, "TEBEG": 0.0001, "TEEND": 0.0001, "NBLOCK": 1, "KBLOCK": 150, "NPACO": 256, "APACO": 10.0, "ISYM": 0, "SYMPREC": 1e-05, "LORBIT": 11, "RWIGS": [-1.0, -1.0, -1.0, -1.0, -1.0], "NEDOS": 301, "EMIN": 10.0, "EMAX": -10.0, "EFERMI": 0.0, "NWRITE": 2, "LWAVE": false, "LDOWNSAMPLE": false, "LCHARG": false, "LPARD": false, "LVTOT": false, "LVHAR": false, "LELF": false, "LOPTICS": false, "STM": [0.0, 0.0, 0.0, 0.0, 0.0, 0.0, 0.0], "NPAR": 2, "NSIM": 4, "NBLK": -1, "LPLANE": true, "LSCALAPACK": true, "LSCAAWARE": false, "LSCALU": false, "LASYNC": false, "LORBITALREAL": false, "IDIOT": 3, "PHON_NSTRUCT": -1, "LMUSIC": false, "POMASS": [22.99, 91.224, 28.085, 30.974, 16.0], "DARWINR": [0.0, 0.0, 0.0, 0.0, 0.0], "DARWINV": [1.0, 1.0, 1.0, 1.0, 1.0], "LCORR": true, "GGA_COMPAT": true, "LBERRY": false, "ICORELEVEL": 0, "LDAU": false, "I_CONSTRAINED_M": 0, "GGA": "--", "VOSKOWN": 0, "LHFCALC": false, "PRECFOCK": "", "LSYMGRAD": false, "LHFONE": false, "LRHFCALC": false, "LTHOMAS": false, "LMODELHF": false, "LFOCKACE": false, "ENCUT4O": -1.0, "EXXOEP": 0, "FOURORBIT": 0, "AEXX": 0.0, "HFALPHA": 0.0, "MCALPHA": 0.0, "ALDAX": 1.0, "AGGAX": 1.0, "ALDAC": 1.0, "AGGAC": 1.0, "NKREDX": 1, "NKREDY": 1, "NKREDZ": 1, "SHIFTRED": false, "ODDONLY": false, "EVENONLY": false, "LMAXFOCK": 0, "NMAXFOCKAE": 0, "LFOCKAEDFT": false, "HFSCREEN": 0.0, "HFSCREENC": 0.0, "NBANDSGWLOW": 0, "LUSE_VDW": false, "Zab_VDW": -0.8491, "PARAM1": 0.1234, "PARAM2": 1.0, "PARAM3": 0.0, "MODEL_GW": 0, "MODEL_EPS0": 50.33106269, "MODEL_ALPHA": 1.0, "LEPSILON": false, "LRPA": false, "LNABLA": false, "LVEL": false, "CSHIFT": 0.1, "OMEGAMAX": -1.0, "DEG_THRESHOLD": 0.002, "RTIME": -0.1, "WPLASMAI": 0.0, "DFIELD": [0.0, 0.0, 0.0], "WPLASMA": [0.0, 0.0, 0.0, 0.0, 0.0, 0.0, 0.0, 0.0, 0.0], "NUCIND": false, "MAGPOS": [0.0, 0.0, 0.0], "LNICSALL": true, "ORBITALMAG": false, "LMAGBLOCH": false, "LCHIMAG": false, "LGAUGE": true, "MAGATOM": 0, "MAGDIPOL": [0.0, 0.0, 0.0], "AVECCONST": [0.0, 0.0, 0.0], "LFINITE_TEMPERATURE": false, "LADDER": false, "LRPAFORCE": false, "LFXC": false, "LHARTREE": true, "IBSE": 0, "KPOINT": [-1, 0, 0, 0], "LTCTC": false, "LTCTE": false, "LTETE": false, "LTRIPLET": false, "LFXCEPS": false, "LFXHEG": false, "NATURALO": 2, "LHOLEGF": false, "L2ORDER": false, "LDMP1": false, "LMP2LT": false, "LSMP2LT": false, "LGWLF": false, "ENCUTGW": -2.0, "ENCUTGWSOFT": -2.0, "ENCUTLF": -1.0, "LESF_SPLINES": false, "LMAXMP2": -1, "SCISSOR": 0.0, "NOMEGA": 0, "NOMEGAR": 0, "NBANDSGW": -1, "NBANDSO": -1, "NBANDSV": -1, "NELMGW": 1, "NELMHF": 1, "DIM": 3, "IESPILON": 4, "ANTIRES": 0, "OMEGAMIN": -30.0, "OMEGATL": -200.0, "OMEGAGRID": 0, "LSELFENERGY": false, "LSPECTRAL": false, "LSPECTRALGW": false, "LSINGLES": false, "LFERMIGW": false, "ODDONLYGW": false, "EVENONLYGW": false, "NKREDLFX": 1, "NKREDLFY": 1, "NKREDLFZ": 1, "MAXMEM": 2800, "TELESCOPE": 0, "NTAUPAR": -1, "NOMEGAPAR": -1, "DAMP_NEWTON": 0.80000001, "LAMBDA": 1.0, "OFIELD_KAPPA": 0.0, "OFIELD_K": [0.0, 0.0, 0.0], "OFIELD_Q6_NEAR": 0.0, "OFIELD_Q6_FAR": 0.0, "OFIELD_A": 0.0, "KPOINTS_OPT_MODE": 1, "LKPOINTS_OPT": false, "@module": "pymatgen.io.vasp.inputs", "@class": "Incar"}, "relaxed_structures": {"@module": "pymatgen.core.structure", "@class": "Structure", "charge": 0, "lattice": {"matrix": [[9.132688, 0.0, 0.0], [4.435089, 8.143568, 0.0], [0.0, 0.0, 45.116094]], "a": 9.132688, "b": 9.27295606635473, "c": 45.116094, "alpha": 90.0, "beta": 90.0, "gamma": 61.42673605530538, "volume": 3355.404179042951}, "sites": [{"species": [{"element": "Na", "occu": 1}], "abc": [0.33802378, 0.84299628, 0.00010000000000000286], "xyz": [6.82582924778956, 6.864997529927041, 0.004511609400000129], "label": "Na", "properties": {}}, {"species": [{"element": "Na", "occu": 1}], "abc": [0.88071261, 0.0870706, 0.04953038], "xyz": [8.42943934507908, 0.7090653519008, 2.2346172799357196], "label": "Na", "properties": {}}, {"species": [{"element": "Na", "occu": 1}], "abc": [0.25235265, 0.68064349, 0.056308399999999995], "xyz": [5.3233724738438095, 5.542866544572321, 2.5404150673895995], "label": "Na", "properties": {}}, {"species": [{"element": "Na", "occu": 1}], "abc": [0.35660471, 0.7718652, 0.2191206], "xyz": [6.680050413763279, 6.2857367430336, 9.885865586936399], "label": "Na", "properties": {}}, {"species": [{"element": "Na", "occu": 1}], "abc": [0.81448103, 0.52700703, 0.16955150000000002], "xyz": [9.77572421058431, 4.29171758528304, 7.649501411841], "label": "Na", "properties": {}}, {"species": [{"element": "Na", "occu": 1}], "abc": [0.44406593, 0.93298256, 0.16288801000000003], "xyz": [8.19337627916768, 7.59780692017408, 7.34887077063294], "label": "Na", "properties": {}}, {"species": [{"element": "Zr", "occu": 1}], "abc": [0.41410708, 0.24373464, 0.07361077], "xyz": [4.862895581014, 1.98486961479552, 3.3210304187323803], "label": "Zr", "properties": {}}, {"species": [{"element": "Zr", "occu": 1}], "abc": [0.63566412, 0.66515818, 0.09277779000000001], "xyz": [8.75535780813258, 5.41676086958624, 4.18577149475226], "label": "Zr", "properties": {}}, {"species": [{"element": "Zr", "occu": 1}], "abc": [0.28182784, 0.37023411, 0.14538090999999997], "xyz": [4.21586696111971, 3.0150266507044803, 6.559018801365538], "label": "Zr", "properties": {}}, {"species": [{"element": "Zr", "occu": 1}], "abc": [0.05992273, 0.94933513, 0.12644509999999998], "xyz": [4.75764138957481, 7.730975185943841, 5.704709017439399], "label": "Zr", "properties": {}}, {"species": [{"element": "Si", "occu": 1}], "abc": [0.24228354, 0.9941686, 0.06449741], "xyz": [6.621926200360919, 8.096079597564799, 2.9098712123165402], "label": "Si", "properties": {}}, {"species": [{"element": "Si", "occu": 1}], "abc": [0.03447591, 0.60011848, 0.10556006], "xyz": [2.9764365988907997, 4.8871056499366405, 4.762457589605639], "label": "Si", "properties": {}}, {"species": [{"element": "Si", "occu": 1}], "abc": [0.45302405, 0.62002514, 0.15478107000000002], "xyz": [6.88719398328386, 5.04921688929952, 6.98311730354058], "label": "Si", "properties": {}}, {"species": [{"element": "Si", "occu": 1}], "abc": [0.6614343, 0.01433812, 0.11351297], "xyz": [6.10426393269108, 0.11676345521216, 5.12126182473918], "label": "Si", "properties": {}}, {"species": [{"element": "P", "occu": 1}], "abc": [0.58284756, 0.4448291, 0.032501749999999996], "xyz": [7.295821565331179, 3.6224960242288, 1.4663520081644996], "label": "P", "properties": {}}, {"species": [{"element": "P", "occu": 1}], "abc": [0.11357257, 0.16970977, 0.18659262], "xyz": [1.78990078128769, 1.38204305225936, 8.41833018362628], "label": "P", "properties": {}}, {"species": [{"element": "O", "occu": 1}], "abc": [0.41497298, 0.83327089, 0.07594949999999999], "xyz": [7.4854493130294495, 6.78579815513552, 3.4265447812529994], "label": "O", "properties": {}}, {"species": [{"element": "O", "occu": 1}], "abc": [0.65563156, 0.05897122, 0.07751166999999999], "xyz": [6.24922108957186, 0.48023614011296, 3.4970237898169794], "label": "O", "properties": {}}, {"species": [{"element": "O", "occu": 1}], "abc": [0.72186988, 0.29234919, 0.01924365], "xyz": [7.88920706736535, 2.3807655085099197, 0.8681983223031], "label": "O", "properties": {}}, {"species": [{"element": "O", "occu": 1}], "abc": [0.47754876, 0.59076212, 0.012767310000000004], "xyz": [6.98138640989556, 4.8109114960441595, 0.5760111580871401], "label": "O", "properties": {}}, {"species": [{"element": "O", "occu": 1}], "abc": [0.44630205, 0.39607427, 0.04702418], "xyz": [5.83256201447043, 3.22545775079536, 2.1215473251529198], "label": "O", "properties": {}}, {"species": [{"element": "O", "occu": 1}], "abc": [0.64283189, 0.50334998, 0.060827969999999995], "xyz": [8.10318504726854, 4.09906478992864, 2.74432041234918], "label": "O", "properties": {}}, {"species": [{"element": "O", "occu": 1}], "abc": [0.29284612, 0.1394994, 0.05624482], "xyz": [3.2931645004171597, 1.1360228498592, 2.5375465861330797], "label": "O", "properties": {}}, {"species": [{"element": "O", "occu": 1}], "abc": [0.63558008, 0.85582324, 0.12038119000000001], "xyz": [9.6002068073234, 6.96945475092032, 5.43112908387186], "label": "O", "properties": {}}, {"species": [{"element": "O", "occu": 1}], "abc": [0.22297033, 0.43328601, 0.09804413999999999], "xyz": [3.9579804739519298, 3.52849408588368, 4.423368636389159], "label": "O", "properties": {}}, {"species": [{"element": "O", "occu": 1}], "abc": [0.10494926, 0.05637808, 0.09223137], "xyz": [1.20851064986, 0.45911872818944, 4.16111915866878], "label": "O", "properties": {}}, {"species": [{"element": "O", "occu": 1}], "abc": [0.16185434, 0.945171, 0.03712831], "xyz": [5.670082693884919, 7.697064310128, 1.6750843240211397], "label": "O", "properties": {}}, {"species": [{"element": "O", "occu": 1}], "abc": [0.88408422, 0.59412095, 0.08776473], "xyz": [10.709044636997909, 4.8382643565496, 3.95960180856462], "label": "O", "properties": {}}, {"species": [{"element": "O", "occu": 1}], "abc": [0.28030459, 0.78098958, 0.14336037000000001], "xyz": [6.023692660810539, 6.36004175202144, 6.4678599287947804], "label": "O", "properties": {}}, {"species": [{"element": "O", "occu": 1}], "abc": [0.04038475, 0.55492257, 0.14153734], "xyz": [2.8299523077667295, 4.51904968352976, 6.38561193594996], "label": "O", "properties": {}}, {"species": [{"element": "O", "occu": 1}], "abc": [0.9756246, 0.3230801, 0.19980442000000004], "xyz": [10.3429640745537, 2.6310247637968, 9.01439499433548], "label": "O", "properties": {}}, {"species": [{"element": "O", "occu": 1}], "abc": [0.21825342, 0.0241033, 0.20643260000000002], "xyz": [2.10014067048666, 0.1962868625744, 9.313432586264401], "label": "O", "properties": {}}, {"species": [{"element": "O", "occu": 1}], "abc": [0.25085719, 0.21681334, 0.17186680999999998], "xyz": [3.25258690811398, 1.76563417759712, 7.753959155440139], "label": "O", "properties": {}}, {"species": [{"element": "O", "occu": 1}], "abc": [0.05246627, 0.11119313, 0.15842698], "xyz": [0.97230950217233, 0.90550881528784, 7.147606521816119], "label": "O", "properties": {}}, {"species": [{"element": "O", "occu": 1}], "abc": [0.40299266, 0.47423323, 0.1628537], "xyz": [5.783672811877549, 3.86195055636464, 7.347322837447799], "label": "O", "properties": {}}, {"species": [{"element": "O", "occu": 1}], "abc": [0.06025466, 0.75876718, 0.09877546], "xyz": [3.9154869839050996, 6.17907212649824, 4.45636293825324], "label": "O", "properties": {}}, {"species": [{"element": "O", "occu": 1}], "abc": [0.47291106, 0.18127474, 0.12089555], "xyz": [5.122918768081139, 1.47622317187232, 5.4543349979817], "label": "O", "properties": {}}, {"species": [{"element": "O", "occu": 1}], "abc": [0.59042786, 0.55865589, 0.12704991], "xyz": [7.86988202441189, 4.549452228815521, 5.731995682251539], "label": "O", "properties": {}}, {"species": [{"element": "O", "occu": 1}], "abc": [0.53344241, 0.66871065, 0.18218972], "xyz": [7.8375543444959295, 5.4456906505992, 8.219688533353679], "label": "O", "properties": {}}, {"species": [{"element": "O", "occu": 1}], "abc": [0.81142962, 0.02068856, 0.13136478000000001], "xyz": [7.5022891583004, 0.16847869518208003, 5.9266657627693204], "label": "O", "properties": {}}]}, "formula": "(Na3Zr2Si2PO12)2.0", "bandgap": 3.8714000000000004, "slab_thickness": 9.8813539775364}