{"miller": "101_0.00", "final_energy": -1208.44577388, "gamma": 0.045569918748181004, "work_function": 4.972867746100566, "ionization_potentail": -5.309867746100566, "electron_affinity": -2.1212677461005662, "is_stochiometric": true, "incar_parameters": {"SYSTEM": "unknown system", "LCOMPAT": false, "PREC": "normal", "ENMAX": 520.0, "ENAUG": 605.392, "EDIFF": 1e-05, "IALGO": 38, "IWAVPR": 11, "NBANDS": 624, "NBANDSLOW": -1, "NBANDSHIGH": -1, "NELECT": 1040.0, "TURBO": 0, "IRESTART": 0, "NREBOOT": 0, "NMIN": 0, "EREF": 0.0, "ISMEAR": 0, "SIGMA": 0.05, "KSPACING": 0.5, "KGAMMA": true, "KBLOWUP": true, "LREAL": true, "ROPT": [-0.0005, -0.0005, -0.0005, -0.0005, -0.0005], "LMAXPAW": -100, "LMAXMIX": 4, "NLSPLINE": false, "ISTART": 0, "ICHARG": 2, "INIWAV": 1, "ISPIN": 1, "LNONCOLLINEAR": false, "MAGMOM": [0.6, 0.6, 0.6, 0.6, 0.6, 0.6, 0.6, 0.6, 0.6, 0.6, 0.6, 0.6, 0.6, 0.6, 0.6, 0.6, 0.6, 0.6, 0.6, 0.6, 0.6, 0.6, 0.6, 0.6, 0.6, 0.6, 0.6, 0.6, 0.6, 0.6, 0.6, 0.6, 0.6, 0.6, 0.6, 0.6, 0.6, 0.6, 0.6, 0.6, 0.6, 0.6, 0.6, 0.6, 0.6, 0.6, 0.6, 0.6, 0.6, 0.6, 0.6, 0.6, 0.6, 0.6, 0.6, 0.6, 0.6, 0.6, 0.6, 0.6, 0.6, 0.6, 0.6, 0.6, 0.6, 0.6, 0.6, 0.6, 0.6, 0.6, 0.6, 0.6, 0.6, 0.6, 0.6, 0.6, 0.6, 0.6, 0.6, 0.6, 0.6, 0.6, 0.6, 0.6, 0.6, 0.6, 0.6, 0.6, 0.6, 0.6, 0.6, 0.6, 0.6, 0.6, 0.6, 0.6, 0.6, 0.6, 0.6, 0.6, 0.6, 0.6, 0.6, 0.6, 0.6, 0.6, 0.6, 0.6, 0.6, 0.6, 0.6, 0.6, 0.6, 0.6, 0.6, 0.6, 0.6, 0.6, 0.6, 0.6, 0.6, 0.6, 0.6, 0.6, 0.6, 0.6, 0.6, 0.6, 0.6, 0.6, 0.6, 0.6, 0.6, 0.6, 0.6, 0.6, 0.6, 0.6, 0.6, 0.6, 0.6, 0.6, 0.6, 0.6, 0.6, 0.6, 0.6, 0.6, 0.6, 0.6, 0.6, 0.6, 0.6, 0.6, 0.6, 0.6, 0.6, 0.6, 0.6, 0.6], "NUPDOWN": -1.0, "LSORBIT": false, "SAXIS": [0.0, 0.0, 1.0], "LSPIRAL": false, "QSPIRAL": [0.0, 0.0, 0.0], "LZEROZ": false, "LASPH": false, "LMETAGGA": false, "NELM": 100, "NELMDL": -5, "NELMIN": 6, "ENINI": 520.0, "LDIAG": true, "LSUBROT": false, "WEIMIN": 0.001, "EBREAK": 0.0, "DEPER": 0.3, "NRMM": 4, "TIME": 0.4, "AMIX": 0.4, "BMIX": 1.0, "AMIN": 0.1, "AMIX_MAG": 1.6, "BMIX_MAG": 1.0, "IMIX": 4, "MIXFIRST": false, "MAXMIX": -45, "WC": 100.0, "INIMIX": 1, "MIXPRE": 1, "MREMOVE": 5, "LDIPOL": false, "LMONO": false, "IDIPOL": 0, "EPSILON": 1.0, "DIPOL": [-100.0, -100.0, -100.0], "EFIELD": 0.0, "NGX": 54, "NGY": 54, "NGZ": 294, "NGXF": 108, "NGYF": 108, "NGZF": 588, "ADDGRID": false, "NSW": 150, "IBRION": 2, "MDALGO": 0, "ISIF": 2, "PSTRESS": 0.0, "EDIFFG": -0.01, "NFREE": 1, "POTIM": 0.5, "SMASS": -3.0, "SCALEE": 1.0, "TEBEG": 0.0001, "TEEND": 0.0001, "NBLOCK": 1, "KBLOCK": 150, "NPACO": 256, "APACO": 10.0, "ISYM": 0, "SYMPREC": 1e-05, "LORBIT": 11, "RWIGS": [-1.0, -1.0, -1.0, -1.0, -1.0], "NEDOS": 301, "EMIN": 10.0, "EMAX": -10.0, "EFERMI": 0.0, "NWRITE": 2, "LWAVE": false, "LDOWNSAMPLE": false, "LCHARG": false, "LPARD": false, "LVTOT": false, "LVHAR": false, "LELF": false, "LOPTICS": false, "STM": [0.0, 0.0, 0.0, 0.0, 0.0, 0.0, 0.0], "NPAR": 2, "NSIM": 4, "NBLK": -1, "LPLANE": true, "LSCALAPACK": true, "LSCAAWARE": false, "LSCALU": false, "LASYNC": false, "LORBITALREAL": false, "IDIOT": 3, "PHON_NSTRUCT": -1, "LMUSIC": false, "POMASS": [22.99, 91.224, 28.085, 30.974, 16.0], "DARWINR": [0.0, 0.0, 0.0, 0.0, 0.0], "DARWINV": [1.0, 1.0, 1.0, 1.0, 1.0], "LCORR": true, "GGA_COMPAT": true, "LBERRY": false, "ICORELEVEL": 0, "LDAU": false, "I_CONSTRAINED_M": 0, "GGA": "--", "VOSKOWN": 0, "LHFCALC": false, "PRECFOCK": "", "LSYMGRAD": false, "LHFONE": false, "LRHFCALC": false, "LTHOMAS": false, "LMODELHF": false, "LFOCKACE": false, "ENCUT4O": -1.0, "EXXOEP": 0, "FOURORBIT": 0, "AEXX": 0.0, "HFALPHA": 0.0, "MCALPHA": 0.0, "ALDAX": 1.0, "AGGAX": 1.0, "ALDAC": 1.0, "AGGAC": 1.0, "NKREDX": 1, "NKREDY": 1, "NKREDZ": 1, "SHIFTRED": false, "ODDONLY": false, "EVENONLY": false, "LMAXFOCK": 0, "NMAXFOCKAE": 0, "LFOCKAEDFT": false, "HFSCREEN": 0.0, "HFSCREENC": 0.0, "NBANDSGWLOW": 0, "LUSE_VDW": false, "Zab_VDW": -0.8491, "PARAM1": 0.1234, "PARAM2": 1.0, "PARAM3": 0.0, "MODEL_GW": 0, "MODEL_EPS0": 16.77702208, "MODEL_ALPHA": 1.0, "LEPSILON": false, "LRPA": false, "LNABLA": false, "LVEL": false, "CSHIFT": 0.1, "OMEGAMAX": -1.0, "DEG_THRESHOLD": 0.002, "RTIME": -0.1, "WPLASMAI": 0.0, "DFIELD": [0.0, 0.0, 0.0], "WPLASMA": [0.0, 0.0, 0.0, 0.0, 0.0, 0.0, 0.0, 0.0, 0.0], "NUCIND": false, "MAGPOS": [0.0, 0.0, 0.0], "LNICSALL": true, "ORBITALMAG": false, "LMAGBLOCH": false, "LCHIMAG": false, "LGAUGE": true, "MAGATOM": 0, "MAGDIPOL": [0.0, 0.0, 0.0], "AVECCONST": [0.0, 0.0, 0.0], "LFINITE_TEMPERATURE": false, "LADDER": false, "LRPAFORCE": false, "LFXC": false, "LHARTREE": true, "IBSE": 0, "KPOINT": [-1, 0, 0, 0], "LTCTC": false, "LTCTE": false, "LTETE": false, "LTRIPLET": false, "LFXCEPS": false, "LFXHEG": false, "NATURALO": 2, "LHOLEGF": false, "L2ORDER": false, "LDMP1": false, "LMP2LT": false, "LSMP2LT": false, "LGWLF": false, "ENCUTGW": -2.0, "ENCUTGWSOFT": -2.0, "ENCUTLF": -1.0, "LESF_SPLINES": false, "LMAXMP2": -1, "SCISSOR": 0.0, "NOMEGA": 0, "NOMEGAR": 0, "NBANDSGW": -1, "NBANDSO": -1, "NBANDSV": -1, "NELMGW": 1, "NELMHF": 1, "DIM": 3, "IESPILON": 4, "ANTIRES": 0, "OMEGAMIN": -30.0, "OMEGATL": -200.0, "OMEGAGRID": 0, "LSELFENERGY": false, "LSPECTRAL": false, "LSPECTRALGW": false, "LSINGLES": false, "LFERMIGW": false, "ODDONLYGW": false, "EVENONLYGW": false, "NKREDLFX": 1, "NKREDLFY": 1, "NKREDLFZ": 1, "MAXMEM": 2800, "TELESCOPE": 0, "NTAUPAR": -1, "NOMEGAPAR": -1, "DAMP_NEWTON": 0.80000001, "LAMBDA": 1.0, "OFIELD_KAPPA": 0.0, "OFIELD_K": [0.0, 0.0, 0.0], "OFIELD_Q6_NEAR": 0.0, "OFIELD_Q6_FAR": 0.0, "OFIELD_A": 0.0, "KPOINTS_OPT_MODE": 1, "LKPOINTS_OPT": false, "@module": "pymatgen.io.vasp.inputs", "@class": "Incar"}, "relaxed_structures": {"@module": "pymatgen.core.structure", "@class": "Structure", "charge": 0, "lattice": {"matrix": [[9.132688, 0.0, 0.0], [-0.104533, 9.400756, 0.0], [0.0, 0.0, 52.110136]], "a": 9.132688, "b": 9.40133716657503, "c": 52.110136, "alpha": 90.0, "beta": 90.0, "gamma": 90.63708204813403, "volume": 4473.872553664315}, "sites": [{"species": [{"element": "Na", "occu": 1}], "abc": [0.28507392, 0.95346166, 0.11831510000000003], "xyz": [2.50382296059218, 8.96326042101496, 6.165415951853602], "label": "Na", "properties": {}}, {"species": [{"element": "Na", "occu": 1}], "abc": [0.33451487, 0.60775644, 0.008685230000000032], "xyz": [2.99148933512804, 5.71336999986864, 0.4525885164912816], "label": "Na", "properties": {}}, {"species": [{"element": "Na", "occu": 1}], "abc": [0.57620964, 0.93629342, 0.025542200000000032], "xyz": [5.16446930463946, 8.80186598582552, 1.3310075157392016], "label": "Na", "properties": {}}, {"species": [{"element": "Na", "occu": 1}], "abc": [0.92082786, 0.55890925, 0.09573050000000002], "xyz": [8.35120908645743, 5.254169485393, 4.988529374348001], "label": "Na", "properties": {}}, {"species": [{"element": "Na", "occu": 1}], "abc": [0.3093989, 0.35455897, 0.10724887000000002], "xyz": [2.7885805084321897, 3.3331223645813197, 5.588753201546321], "label": "Na", "properties": {}}, {"species": [{"element": "Na", "occu": 1}], "abc": [0.15383755, 0.21046382, 0.01826999000000003], "xyz": [1.3829499323383398, 1.9785190186479198, 0.9520516636186416], "label": "Na", "properties": {}}, {"species": [{"element": "Na", "occu": 1}], "abc": [0.7748308, 0.46692178, 0.24655428000000001], "xyz": [7.0274792147616605, 4.389417724865679, 12.84797706218208], "label": "Na", "properties": {}}, {"species": [{"element": "Na", "occu": 1}], "abc": [0.71646352, 0.10047766, 0.13039015], "xyz": [6.53273456030898, 0.9445659651109599, 6.7946484495604], "label": "Na", "properties": {}}, {"species": [{"element": "Na", "occu": 1}], "abc": [0.07985478, 0.47372598, 0.16421978], "xyz": [0.6797687931813, 4.453382348840879, 8.55751506969008], "label": "Na", "properties": {}}, {"species": [{"element": "Na", "occu": 1}], "abc": [0.40366551, 0.08747333, 0.21572760000000002], "xyz": [3.6774073095859903, 0.82231543183748, 11.2415945749536], "label": "Na", "properties": {}}, {"species": [{"element": "Na", "occu": 1}], "abc": [0.80582761, 0.8562563, 0.23257290000000003], "xyz": [7.2698651041077795, 8.0494565497628, 12.119405448914401], "label": "Na", "properties": {}}, {"species": [{"element": "Na", "occu": 1}], "abc": [0.6643379, 0.70230028, 0.14297719], "xyz": [5.99377721210596, 6.602153571011679, 7.450560815797839], "label": "Na", "properties": {}}, {"species": [{"element": "Na", "occu": 1}], "abc": [0.24884741, 0.97849375, 0.37028766], "xyz": [2.17036086796933, 9.198580991275, 19.29574032172176], "label": "Na", "properties": {}}, {"species": [{"element": "Na", "occu": 1}], "abc": [0.19158782, 0.61329083, 0.25419068000000006], "xyz": [1.68560265432777, 5.765397449867479, 13.245910904732483], "label": "Na", "properties": {}}, {"species": [{"element": "Na", "occu": 1}], "abc": [0.56252739, 0.99254424, 0.28492338000000006], "xyz": [5.0336335172844, 9.330666219445439, 14.847396081379681], "label": "Na", "properties": {}}, {"species": [{"element": "Na", "occu": 1}], "abc": [0.8866318, 0.60608102, 0.3367338], "xyz": [8.03397613301474, 5.69761978525112, 17.5472441137968], "label": "Na", "properties": {}}, {"species": [{"element": "Na", "occu": 1}], "abc": [0.30214639, 0.37696215, 0.35767031000000005], "xyz": [2.72000372577037, 3.5437291933853996, 18.63824849726216], "label": "Na", "properties": {}}, {"species": [{"element": "Na", "occu": 1}], "abc": [0.16053568, 0.22349079, 0.26811012000000006], "xyz": [1.4427601155567698, 2.10098238503724, 13.971254816176323], "label": "Na", "properties": {}}, {"species": [{"element": "Na", "occu": 1}], "abc": [0.63240028, 0.47080606, 0.49179227000000003], "xyz": [5.72629967848266, 4.42593289338136, 25.62736207344872], "label": "Na", "properties": {}}, {"species": [{"element": "Na", "occu": 1}], "abc": [0.68053652, 0.12547399, 0.38237704000000006], "xyz": [6.202011537169089, 1.17955036433644, 19.925719557677443], "label": "Na", "properties": {}}, {"species": [{"element": "Na", "occu": 1}], "abc": [0.04571989, 0.52093305, 0.40483772000000007], "xyz": [0.36309079624867, 4.8971644953858, 21.096148647129922], "label": "Na", "properties": {}}, {"species": [{"element": "Na", "occu": 1}], "abc": [0.3902452, 0.14313713, 0.47503739000000006], "xyz": [3.54902510148731, 1.34559723367028, 24.75426299798504], "label": "Na", "properties": {}}, {"species": [{"element": "Na", "occu": 1}], "abc": [0.81261233, 0.86809587, 0.48236866000000006], "xyz": [7.330590209264329, 8.16075745847772, 25.13629647473776], "label": "Na", "properties": {}}, {"species": [{"element": "Na", "occu": 1}], "abc": [0.65693863, 0.72499644, 0.39338314], "xyz": [5.92382949007492, 6.81551463330864, 20.49924892550704], "label": "Na", "properties": {}}, {"species": [{"element": "Zr", "occu": 1}], "abc": [0.97385401, 0.79289353, 0.03890206000000004], "xyz": [8.811021291507389, 7.453798609508679, 2.0271916372801617], "label": "Zr", "properties": {}}, {"species": [{"element": "Zr", "occu": 1}], "abc": [0.49221653, 0.71191867, 0.08701848000000002], "xyz": [4.420841002601529, 6.692573708514519, 4.534544827313281], "label": "Zr", "properties": {}}, {"species": [{"element": "Zr", "occu": 1}], "abc": [0.99743374, 0.21551284, 0.08556619000000003], "xyz": [9.086722944389399, 2.02598362370704, 4.458865797901841], "label": "Zr", "properties": {}}, {"species": [{"element": "Zr", "occu": 1}], "abc": [0.50995869, 0.28828785, 0.03997745000000004], "xyz": [4.62715801483467, 2.7101237356145997, 2.083230356433202], "label": "Zr", "properties": {}}, {"species": [{"element": "Zr", "occu": 1}], "abc": [0.48748371, 0.3217279, 0.16182534], "xyz": [4.41840544594178, 3.0244854862924, 8.43274047564624], "label": "Zr", "properties": {}}, {"species": [{"element": "Zr", "occu": 1}], "abc": [0.98638589, 0.23478357, 0.21395527], "xyz": [8.98381195004951, 2.20714305437892, 11.14923821761672], "label": "Zr", "properties": {}}, {"species": [{"element": "Zr", "occu": 1}], "abc": [0.48957445, 0.73888006, 0.21255256], "xyz": [4.39389335530962, 6.9460311573253595, 11.076142808748159], "label": "Zr", "properties": {}}, {"species": [{"element": "Zr", "occu": 1}], "abc": [0.98561323, 0.81948472, 0.16282853000000003], "xyz": [8.915634922026479, 7.7037758984483204, 8.48501684298008], "label": "Zr", "properties": {}}, {"species": [{"element": "Zr", "occu": 1}], "abc": [0.97968847, 0.84510159, 0.28675939000000006], "xyz": [8.85884812919989, 7.944593842802039, 14.943070812177043], "label": "Zr", "properties": {}}, {"species": [{"element": "Zr", "occu": 1}], "abc": [0.47896284, 0.75805256, 0.33885182], "xyz": [4.29497667305944, 7.12626715173536, 17.65761442404752], "label": "Zr", "properties": {}}, {"species": [{"element": "Zr", "occu": 1}], "abc": [0.98081646, 0.26028438, 0.33791887000000004], "xyz": [8.93028240734994, 2.4468699469912796, 17.60899827266632], "label": "Zr", "properties": {}}, {"species": [{"element": "Zr", "occu": 1}], "abc": [0.47655071, 0.34085523, 0.28813336000000006], "xyz": [4.3165583308508895, 3.20429684855388, 15.014668575736962], "label": "Zr", "properties": {}}, {"species": [{"element": "Zr", "occu": 1}], "abc": [0.4740427, 0.36767904, 0.41363932000000003], "xyz": [4.2908494846892795, 3.4564609413542398, 21.55480122014752], "label": "Zr", "properties": {}}, {"species": [{"element": "Zr", "occu": 1}], "abc": [0.99253926, 0.28682706, 0.46178523000000005], "xyz": [9.0345684962679, 2.69639120525736, 24.063691138091283], "label": "Zr", "properties": {}}, {"species": [{"element": "Zr", "occu": 1}], "abc": [0.45636822, 0.79107844, 0.46068278000000007], "xyz": [4.08517476380684, 7.43673539130064, 24.00624231865808], "label": "Zr", "properties": {}}, {"species": [{"element": "Zr", "occu": 1}], "abc": [0.96885397, 0.86418353, 0.41506135000000005], "xyz": [8.75790532862987, 8.12397850474868, 21.6289033968436], "label": "Zr", "properties": {}}, {"species": [{"element": "Si", "occu": 1}], "abc": [0.27573296, 0.00463035, 0.060103940000000036], "xyz": [2.5176990706199303, 0.0435287905446, 3.132024487535842], "label": "Si", "properties": {}}, {"species": [{"element": "Si", "occu": 1}], "abc": [0.21235316, 0.49989542, 0.056570150000000034], "xyz": [1.88709958815522, 4.699394868937519, 2.9478782100404017], "label": "Si", "properties": {}}, {"species": [{"element": "Si", "occu": 1}], "abc": [0.84804085, 0.12708281, 0.023345690000000033], "xyz": [7.73160814692707, 1.1946744886043599, 1.2165470809138417], "label": "Si", "properties": {}}, {"species": [{"element": "Si", "occu": 1}], "abc": [0.64649217, 0.37850364, 0.10070830000000003], "xyz": [5.86464516205284, 3.5582203647518393, 5.2479232093288015], "label": "Si", "properties": {}}, {"species": [{"element": "Si", "occu": 1}], "abc": [0.77283263, 0.53418416, 0.18974643000000002], "xyz": [7.00219941321216, 5.02173494722496, 9.88771227281448], "label": "Si", "properties": {}}, {"species": [{"element": "Si", "occu": 1}], "abc": [0.70199602, 0.02399628, 0.18634222], "xyz": [6.408602224764521, 0.22558317318767998, 9.71031842674192], "label": "Si", "properties": {}}, {"species": [{"element": "Si", "occu": 1}], "abc": [0.34122423, 0.65818834, 0.15061029], "xyz": [3.0474920288850202, 6.18746798638504, 7.84832269489944], "label": "Si", "properties": {}}, {"species": [{"element": "Si", "occu": 1}], "abc": [0.13393529, 0.90322312, 0.22444725000000001], "xyz": [1.12877259335656, 8.490980164678719, 11.695976722326], "label": "Si", "properties": {}}, {"species": [{"element": "Si", "occu": 1}], "abc": [0.26429113, 0.05572687, 0.31438199000000006], "xyz": [2.40786313455573, 0.5238747075137199, 16.382488254850642], "label": "Si", "properties": {}}, {"species": [{"element": "Si", "occu": 1}], "abc": [0.19354472, 0.54563455, 0.31098245], "xyz": [1.71054672539221, 5.1293772697198, 16.2053377631132], "label": "Si", "properties": {}}, {"species": [{"element": "Si", "occu": 1}], "abc": [0.83220478, 0.17691981, 0.27627440000000003], "xyz": [7.58177264934991, 1.66317996537636, 14.396696557318402], "label": "Si", "properties": {}}, {"species": [{"element": "Si", "occu": 1}], "abc": [0.62516698, 0.42122785, 0.35010825000000007], "xyz": [5.66542276539819, 3.9598602382546, 18.244188522222004], "label": "Si", "properties": {}}, {"species": [{"element": "Si", "occu": 1}], "abc": [0.75402802, 0.57975749, 0.44392448000000007], "xyz": [6.82569886021559, 5.450158702662439, 23.13296502652928], "label": "Si", "properties": {}}, {"species": [{"element": "Si", "occu": 1}], "abc": [0.69053726, 0.07481593, 0.44063483000000003], "xyz": [6.29864061434419, 0.70332630284308, 22.96154091763688], "label": "Si", "properties": {}}, {"species": [{"element": "Si", "occu": 1}], "abc": [0.31991884, 0.70117701, 0.39988645000000006], "xyz": [2.84842281465559, 6.59159398381956, 20.8381372940572], "label": "Si", "properties": {}}, {"species": [{"element": "Si", "occu": 1}], "abc": [0.11824455, 0.95239491, 0.4772793], "xyz": [0.98033388572337, 8.95323216455196, 24.8710892329848], "label": "Si", "properties": {}}, {"species": [{"element": "P", "occu": 1}], "abc": [0.64646215, 0.63487095, 0.025637410000000034], "xyz": [5.83757215474285, 5.9682668924382, 1.3359689217877617], "label": "P", "properties": {}}, {"species": [{"element": "P", "occu": 1}], "abc": [0.84568028, 0.86488969, 0.10011212000000003], "xyz": [7.63292463102787, 8.13061694260564, 5.216856188448321], "label": "P", "properties": {}}, {"species": [{"element": "P", "occu": 1}], "abc": [0.1370019, 0.16773549, 0.15048948], "xyz": [1.23366171413103, 1.5768404140304397, 7.84202726936928], "label": "P", "properties": {}}, {"species": [{"element": "P", "occu": 1}], "abc": [0.33782435, 0.38973819, 0.22442047], "xyz": [3.04450388513753, 3.6638336280716395, 11.69458121288392], "label": "P", "properties": {}}, {"species": [{"element": "P", "occu": 1}], "abc": [0.62813933, 0.69022877, 0.27622647000000006], "xyz": [5.664448837404629, 6.4886722509501205, 14.394198918499923], "label": "P", "properties": {}}, {"species": [{"element": "P", "occu": 1}], "abc": [0.82933777, 0.91172954, 0.35021186000000004], "xyz": [7.47877727602094, 8.570946943532238, 18.249587653412963], "label": "P", "properties": {}}, {"species": [{"element": "P", "occu": 1}], "abc": [0.12105388, 0.21493234, 0.40064322], "xyz": [1.0830797949322202, 2.02052648484904, 20.87757268167792], "label": "P", "properties": {}}, {"species": [{"element": "P", "occu": 1}], "abc": [0.31999165, 0.44490142, 0.47507434000000004], "xyz": [2.87587702191834, 4.182409693473519, 24.756188467510242], "label": "P", "properties": {}}, {"species": [{"element": "O", "occu": 1}], "abc": [0.19578185, 0.10501222, 0.08197749000000003], "xyz": [1.7770373097195402, 0.98719425723832, 4.271858152838641], "label": "O", "properties": {}}, {"species": [{"element": "O", "occu": 1}], "abc": [0.30109766, 0.3977656, 0.03573430000000004], "xyz": [2.70825135484528, 3.7392973507935996, 1.862119232864802], "label": "O", "properties": {}}, {"species": [{"element": "O", "occu": 1}], "abc": [0.845155, 0.94817642, 0.026326250000000034], "xyz": [7.61942120092814, 8.91357516937352, 1.3718644678700016], "label": "O", "properties": {}}, {"species": [{"element": "O", "occu": 1}], "abc": [0.6359379, 0.55149065, 0.10200699000000003], "xyz": [5.750173455958749, 5.184429036931399, 5.315598121850641], "label": "O", "properties": {}}, {"species": [{"element": "O", "occu": 1}], "abc": [0.90764736, 0.78675863, 0.07577610000000003], "xyz": [8.207017913033889, 7.39612591152428, 3.9487028765496013], "label": "O", "properties": {}}, {"species": [{"element": "O", "occu": 1}], "abc": [0.60170258, 0.70093613, 0.052300660000000034], "xyz": [5.42189097545775, 6.58932952971428, 2.7253945054897617], "label": "O", "properties": {}}, {"species": [{"element": "O", "occu": 1}], "abc": [0.89380532, 0.0217427, 0.10071461000000002], "xyz": [8.16057229064106, 0.20439781748119998, 5.248252024286961], "label": "O", "properties": {}}, {"species": [{"element": "O", "occu": 1}], "abc": [0.60118967, 0.47427233, 0.025581420000000032], "xyz": [5.44090057546107, 4.4585184518814795, 1.3330512752731216], "label": "O", "properties": {}}, {"species": [{"element": "O", "occu": 1}], "abc": [0.81577335, 0.64882351, 0.02379249000000003], "xyz": [7.382380016293969, 6.09943150457356, 1.2398298896786415], "label": "O", "properties": {}}, {"species": [{"element": "O", "occu": 1}], "abc": [0.67705042, 0.85574327, 0.10100210000000003], "xyz": [6.0938368348860505, 8.044633679912119, 5.263233167285601], "label": "O", "properties": {}}, {"species": [{"element": "O", "occu": 1}], "abc": [0.56006847, 0.71394323, 0.005122010000000033], "xyz": [5.04029996748577, 6.71160610308188, 0.2669086376933617], "label": "O", "properties": {}}, {"species": [{"element": "O", "occu": 1}], "abc": [0.91076003, 0.77873935, 0.12268184000000003], "xyz": [8.236283236387091, 7.3207386169486, 6.392967367130241], "label": "O", "properties": {}}, {"species": [{"element": "O", "occu": 1}], "abc": [0.15090614, 0.92462491, 0.04220788000000004], "xyz": [1.2815248781872899, 8.69217317043196, 2.199458367071682], "label": "O", "properties": {}}, {"species": [{"element": "O", "occu": 1}], "abc": [0.33544531, 0.57220213, 0.07613674000000002], "xyz": [3.00370335203799, 5.37913260681028, 3.967495875996641], "label": "O", "properties": {}}, {"species": [{"element": "O", "occu": 1}], "abc": [0.92247244, 0.18063318, 0.051516330000000034], "xyz": [8.40577085491378, 1.6980884506840799, 2.6845229625208815], "label": "O", "properties": {}}, {"species": [{"element": "O", "occu": 1}], "abc": [0.55252909, 0.315383, 0.07590974000000003], "xyz": [5.013107858754919, 2.9648386295480003, 3.9556668751246415], "label": "O", "properties": {}}, {"species": [{"element": "O", "occu": 1}], "abc": [0.56419506, 0.29994434, 0.12497092000000003], "xyz": [5.12126337242806, 2.8197035539210398, 6.512251637245121], "label": "O", "properties": {}}, {"species": [{"element": "O", "occu": 1}], "abc": [0.94123087, 0.18392023, 9.999999999998899e-05], "xyz": [8.57674213827597, 1.7289892056938798, 0.005211013599999426], "label": "O", "properties": {}}, {"species": [{"element": "O", "occu": 1}], "abc": [0.10397846, 0.40782283, 0.07610035000000002], "xyz": [0.90697189001209, 3.83384291605948, 3.965599588147601], "label": "O", "properties": {}}, {"species": [{"element": "O", "occu": 1}], "abc": [0.37773058, 0.10331097, 0.04052230000000004], "xyz": [3.4388961295720297, 0.97120122109332, 2.111622564032802], "label": "O", "properties": {}}, {"species": [{"element": "O", "occu": 1}], "abc": [0.12532619, 0.62135403, 0.039985130000000035], "xyz": [1.07961299068073, 5.8411976256466795, 2.0836305622776816], "label": "O", "properties": {}}, {"species": [{"element": "O", "occu": 1}], "abc": [0.37804566, 0.89028543, 0.07578328000000002], "xyz": [3.35950885567989, 8.36935609778508, 3.949077027326081], "label": "O", "properties": {}}, {"species": [{"element": "O", "occu": 1}], "abc": [0.81719881, 0.32986947, 0.09938343000000002], "xyz": [7.42873952039377, 3.1010223993193198, 5.178884053446481], "label": "O", "properties": {}}, {"species": [{"element": "O", "occu": 1}], "abc": [0.66991529, 0.16921861, 0.025299370000000033], "xyz": [6.100438401040391, 1.5907828632691599, 1.3183536114143217], "label": "O", "properties": {}}, {"species": [{"element": "O", "occu": 1}], "abc": [0.69371079, 0.63319579, 0.21163178000000002], "xyz": [6.26925435178745, 5.95251912201724, 11.02816083772208], "label": "O", "properties": {}}, {"species": [{"element": "O", "occu": 1}], "abc": [0.78169011, 0.92647583, 0.16437839], "xyz": [7.04208458937829, 8.70957321772748, 8.56578025836104], "label": "O", "properties": {}}, {"species": [{"element": "O", "occu": 1}], "abc": [0.34273063, 0.48317089, 0.14886899], "xyz": [3.0795446091890697, 4.54217164319284, 7.75758331508264], "label": "O", "properties": {}}, {"species": [{"element": "O", "occu": 1}], "abc": [0.13520305, 0.07770807, 0.22659505000000002], "xyz": [1.22664421461709, 0.73051460530092, 11.8078988724268], "label": "O", "properties": {}}, {"species": [{"element": "O", "occu": 1}], "abc": [0.38847561, 0.32064453, 0.19907991000000003], "xyz": [3.5143086070851903, 3.0143009892646795, 10.37408118496776], "label": "O", "properties": {}}, {"species": [{"element": "O", "occu": 1}], "abc": [0.0785267, 0.23459912, 0.17569174], "xyz": [0.6926365009586399, 2.2054090849347197, 9.15532046547664], "label": "O", "properties": {}}, {"species": [{"element": "O", "occu": 1}], "abc": [0.38219773, 0.54890666, 0.22562977], "xyz": [3.43311376250846, 5.16013757743496, 11.75759800034872], "label": "O", "properties": {}}, {"species": [{"element": "O", "occu": 1}], "abc": [0.09293996, 0.00826727, 0.14877558000000002], "xyz": [0.8479274548775699, 0.07771858805612, 7.75271570727888], "label": "O", "properties": {}}, {"species": [{"element": "O", "occu": 1}], "abc": [0.30697328, 0.17580809, 0.14943677000000002], "xyz": [2.78511344350467, 1.65272895691604, 7.787170408100721], "label": "O", "properties": {}}, {"species": [{"element": "O", "occu": 1}], "abc": [0.16805001, 0.38241014, 0.22665147000000002], "xyz": [1.49477383056226, 3.59494441806584, 11.81083892629992], "label": "O", "properties": {}}, {"species": [{"element": "O", "occu": 1}], "abc": [0.07578285, 0.25235685, 0.12735798], "xyz": [0.66572150619975, 2.3723451717786, 6.6366416584852805], "label": "O", "properties": {}}, {"species": [{"element": "O", "occu": 1}], "abc": [0.40689049, 0.30462894, 0.24679183000000002], "xyz": [3.6841601183520996, 2.8637423354786398, 12.860355824988881], "label": "O", "properties": {}}, {"species": [{"element": "O", "occu": 1}], "abc": [0.64689981, 0.45771911, 0.17191851000000002], "xyz": [5.86008738026365, 4.30290566964716, 8.958696937017361], "label": "O", "properties": {}}, {"species": [{"element": "O", "occu": 1}], "abc": [0.8272238, 0.09879999, 0.20466663000000002], "xyz": [7.544449012219729, 0.92879459879244, 10.66520592396168], "label": "O", "properties": {}}, {"species": [{"element": "O", "occu": 1}], "abc": [0.44062884, 0.70947342, 0.17547109000000002], "xyz": [3.94996233450906, 6.669586509905519, 9.14382236396824], "label": "O", "properties": {}}, {"species": [{"element": "O", "occu": 1}], "abc": [0.03647543, 0.85354853, 0.19946899], "xyz": [0.24389473336935003, 8.024001464688679, 10.39435619668264], "label": "O", "properties": {}}, {"species": [{"element": "O", "occu": 1}], "abc": [0.05455901, 0.82569658, 0.24928993000000002], "xyz": [0.41195787532174, 7.76217207861448, 12.990532155730481], "label": "O", "properties": {}}, {"species": [{"element": "O", "occu": 1}], "abc": [0.41319911, 0.73423064, 0.12499624000000002], "xyz": [3.6968672220165595, 6.90232309436384, 6.513571065888641], "label": "O", "properties": {}}, {"species": [{"element": "O", "occu": 1}], "abc": [0.59869355, 0.92944382, 0.20602305], "xyz": [5.37052384892634, 8.73747456752792, 10.7358891546348], "label": "O", "properties": {}}, {"species": [{"element": "O", "occu": 1}], "abc": [0.8760168, 0.6289897, 0.17010752], "xyz": [7.9346379368483, 5.9129786962132, 8.86432600182272], "label": "O", "properties": {}}, {"species": [{"element": "O", "occu": 1}], "abc": [0.60112066, 0.14189492, 0.17191911], "xyz": [5.475014736461719, 1.33391952055952, 8.95872820309896], "label": "O", "properties": {}}, {"species": [{"element": "O", "occu": 1}], "abc": [0.87654792, 0.41823199, 0.20437793], "xyz": [7.9615196257982905, 3.93169688938444, 10.65016172769848], "label": "O", "properties": {}}, {"species": [{"element": "O", "occu": 1}], "abc": [0.3036662, 0.85012453, 0.22227781000000002], "xyz": [2.68442259325111, 7.991813276144679, 11.582926908882161], "label": "O", "properties": {}}, {"species": [{"element": "O", "occu": 1}], "abc": [0.17009815, 0.70579465, 0.15374922000000002], "xyz": [1.47967450117875, 6.6350032907553995, 8.01189276409392], "label": "O", "properties": {}}, {"species": [{"element": "O", "occu": 1}], "abc": [0.18496689, 0.15346737, 0.33635609000000005], "xyz": [1.67320249211211, 1.4427092993317199, 17.52756159432824], "label": "O", "properties": {}}, {"species": [{"element": "O", "occu": 1}], "abc": [0.27237662, 0.44647157, 0.28909483], "xyz": [2.44085967632775, 4.19717029050692, 15.06477090819688], "label": "O", "properties": {}}, {"species": [{"element": "O", "occu": 1}], "abc": [0.83101257, 0.00243462, 0.27416477000000006], "xyz": [7.5891240277557, 0.02288726857272, 14.286763451108722], "label": "O", "properties": {}}, {"species": [{"element": "O", "occu": 1}], "abc": [0.62335988, 0.59631288, 0.35182487000000007], "xyz": [5.6306169214724, 5.60579188453728, 18.333641823882324], "label": "O", "properties": {}}, {"species": [{"element": "O", "occu": 1}], "abc": [0.8874785, 0.84477447, 0.32499931000000004], "xyz": [8.01675743753549, 7.94151866749932, 16.935758244006163], "label": "O", "properties": {}}, {"species": [{"element": "O", "occu": 1}], "abc": [0.57763465, 0.75946503, 0.30156901], "xyz": [5.195967878458211, 7.1395454375626795, 15.714802124485361], "label": "O", "properties": {}}, {"species": [{"element": "O", "occu": 1}], "abc": [0.87417463, 0.07097189, 0.35201502000000007], "xyz": [7.97614524872807, 0.6671894207488399, 18.343550566242723], "label": "O", "properties": {}}, {"species": [{"element": "O", "occu": 1}], "abc": [0.58353741, 0.53113137, 0.27504714], "xyz": [5.27374434635787, 4.9930364133157195, 14.33274387181104], "label": "O", "properties": {}}, {"species": [{"element": "O", "occu": 1}], "abc": [0.79794074, 0.69747071, 0.27396747000000005], "xyz": [7.21443511518069, 6.55675196185676, 14.276482121275922], "label": "O", "properties": {}}, {"species": [{"element": "O", "occu": 1}], "abc": [0.65935971, 0.90425701, 0.35125472], "xyz": [5.92720181317415, 8.50069951229956, 18.30393122984192], "label": "O", "properties": {}}, {"species": [{"element": "O", "occu": 1}], "abc": [0.55901529, 0.7752986, 0.25385849000000005], "xyz": [5.024267942245721, 7.288392965741599, 13.228600438654642], "label": "O", "properties": {}}, {"species": [{"element": "O", "occu": 1}], "abc": [0.89011554, 0.82634821, 0.37329628000000004], "xyz": [8.042766853335591, 7.76829789324676, 19.45251991909408], "label": "O", "properties": {}}, {"species": [{"element": "O", "occu": 1}], "abc": [0.13863825, 0.98115887, 0.29612306000000005], "xyz": [1.16357640195829, 9.22363513410572, 15.43101292933616], "label": "O", "properties": {}}, {"species": [{"element": "O", "occu": 1}], "abc": [0.3195523, 0.6217864, 0.32884356000000003], "xyz": [2.8533742578312005, 5.845262230518399, 17.13608263432416], "label": "O", "properties": {}}, {"species": [{"element": "O", "occu": 1}], "abc": [0.92914613, 0.2267073, 0.30131153000000005], "xyz": [8.46190331750654, 2.1312200107188, 15.701384806668083], "label": "O", "properties": {}}, {"species": [{"element": "O", "occu": 1}], "abc": [0.52617281, 0.37002273, 0.32519060000000005], "xyz": [4.76669252177819, 3.47849339918388, 16.945726391921603], "label": "O", "properties": {}}, {"species": [{"element": "O", "occu": 1}], "abc": [0.55308563, 0.34497463, 0.37568163000000004], "xyz": [5.01509726307565, 3.2430223228202797, 19.57682083200168], "label": "O", "properties": {}}, {"species": [{"element": "O", "occu": 1}], "abc": [0.91184635, 0.25438941, 0.25145636000000005], "xyz": [8.30101613029327, 2.3914527723939596, 13.103425117664962], "label": "O", "properties": {}}, {"species": [{"element": "O", "occu": 1}], "abc": [0.09017431, 0.45095362, 0.33062666], "xyz": [0.77639430408582, 4.23930494893672, 17.22900021782576], "label": "O", "properties": {}}, {"species": [{"element": "O", "occu": 1}], "abc": [0.36754115, 0.15021274, 0.29466983], "xyz": [3.34093646176078, 1.41211331683144, 15.35528491639688], "label": "O", "properties": {}}, {"species": [{"element": "O", "occu": 1}], "abc": [0.0902571, 0.66203938, 0.29635526000000006], "xyz": [0.75508497157526, 6.223670673771279, 15.443112902915363], "label": "O", "properties": {}}, {"species": [{"element": "O", "occu": 1}], "abc": [0.36526109, 0.93786392, 0.32878183000000005], "xyz": [3.23777784436056, 8.816629873123519, 17.13286587562888], "label": "O", "properties": {}}, {"species": [{"element": "O", "occu": 1}], "abc": [0.79638753, 0.37378228, 0.34705887], "xyz": [7.2340862555053995, 3.51383601140368, 18.08528491570632], "label": "O", "properties": {}}, {"species": [{"element": "O", "occu": 1}], "abc": [0.66245643, 0.23000054, 0.27835657], "xyz": [6.02596524233602, 2.16217895640824, 14.50519871919352], "label": "O", "properties": {}}, {"species": [{"element": "O", "occu": 1}], "abc": [0.6651372, 0.68162976, 0.46477398000000003], "xyz": [6.003237721091519, 6.407835056098559, 24.219435307061282], "label": "O", "properties": {}}, {"species": [{"element": "O", "occu": 1}], "abc": [0.77015091, 0.97431844, 0.41871921000000006], "xyz": [6.93169954445756, 9.159329920740639, 21.81951497891256], "label": "O", "properties": {}}, {"species": [{"element": "O", "occu": 1}], "abc": [0.33023814, 0.52819019, 0.39850029000000003], "xyz": [2.96074859318905, 4.96538709778364, 20.76590430793944], "label": "O", "properties": {}}, {"species": [{"element": "O", "occu": 1}], "abc": [0.12099136, 0.1312872, 0.47430848000000003], "xyz": [1.09125249669808, 1.2341989331232, 24.71627939875328], "label": "O", "properties": {}}, {"species": [{"element": "O", "occu": 1}], "abc": [0.3648, 0.37990257, 0.44832783000000004], "xyz": [3.29189222705019, 3.57137136434292, 23.36242419388488], "label": "O", "properties": {}}, {"species": [{"element": "O", "occu": 1}], "abc": [0.05921042, 0.29334319, 0.42495845000000004], "xyz": [0.51008624852869, 2.7576477534516397, 22.1446426238492], "label": "O", "properties": {}}, {"species": [{"element": "O", "occu": 1}], "abc": [0.36519496, 0.60553479, 0.47527784000000006], "xyz": [3.27191326064941, 5.69248481030124, 24.76679288018624], "label": "O", "properties": {}}, {"species": [{"element": "O", "occu": 1}], "abc": [0.0725385, 0.05817631, 0.40007548000000004], "xyz": [0.65639014427477, 0.54690129529036, 20.84798767306528], "label": "O", "properties": {}}, {"species": [{"element": "O", "occu": 1}], "abc": [0.28961811, 0.22380795, 0.39976947], "xyz": [2.62159652134233, 2.1039639288102, 20.83204145034792], "label": "O", "properties": {}}, {"species": [{"element": "O", "occu": 1}], "abc": [0.15073168, 0.43067186, 0.47693699000000006], "xyz": [1.3315659836144602, 4.04864107192616, 24.853251412330643], "label": "O", "properties": {}}, {"species": [{"element": "O", "occu": 1}], "abc": [0.05599448, 0.30084814, 0.37805050000000007], "xyz": [0.47993155694361994, 2.82819995719384, 19.700262969868003], "label": "O", "properties": {}}, {"species": [{"element": "O", "occu": 1}], "abc": [0.40657498, 0.36514379, 0.49547061000000003], "xyz": [3.6749528651461696, 3.43262767470524, 25.81904087110296], "label": "O", "properties": {}}, {"species": [{"element": "O", "occu": 1}], "abc": [0.63090906, 0.50766887, 0.4243526], "xyz": [5.70882745136557, 4.7724711756657205, 22.1130716979536], "label": "O", "properties": {}}, {"species": [{"element": "O", "occu": 1}], "abc": [0.81541928, 0.15525227, 0.45845956000000004], "xyz": [7.430740887884729, 1.45948870871612, 23.89039002210016], "label": "O", "properties": {}}, {"species": [{"element": "O", "occu": 1}], "abc": [0.41356645, 0.76343047, 0.42478046], "xyz": [3.6971696777970897, 7.176823571435319, 22.13536754074256], "label": "O", "properties": {}}, {"species": [{"element": "O", "occu": 1}], "abc": [0.04377749, 0.89885601, 0.44911247000000004], "xyz": [0.30584604229978996, 8.44992602914356, 23.40331189099592], "label": "O", "properties": {}}, {"species": [{"element": "O", "occu": 1}], "abc": [0.0251015, 0.89549147, 0.5005294000000001], "xyz": [0.13563575799848998, 8.418296809551318, 26.082655105998406], "label": "O", "properties": {}}, {"species": [{"element": "O", "occu": 1}], "abc": [0.40259147, 0.7801609, 0.37571270000000007], "xyz": [3.59518972761166, 7.3341022616404, 19.578439893927204], "label": "O", "properties": {}}, {"species": [{"element": "O", "occu": 1}], "abc": [0.58886205, 0.97598105, 0.46023264], "xyz": [5.27587115059075, 9.1749597116738, 23.98278546203904], "label": "O", "properties": {}}, {"species": [{"element": "O", "occu": 1}], "abc": [0.86262745, 0.67158223, 0.42442129000000006], "xyz": [7.80790485583701, 6.3133806781658794, 22.11665114319544], "label": "O", "properties": {}}, {"species": [{"element": "O", "occu": 1}], "abc": [0.5877912, 0.18911837, 0.42501152000000003], "xyz": [5.3483445281743895, 1.77785565148772, 22.14740810876672], "label": "O", "properties": {}}, {"species": [{"element": "O", "occu": 1}], "abc": [0.84114719, 0.45844475, 0.46054262000000007], "xyz": [7.63401224329497, 4.309727234231, 23.998938561996322], "label": "O", "properties": {}}, {"species": [{"element": "O", "occu": 1}], "abc": [0.29637381, 0.9103374, 0.47531688000000005], "xyz": [2.6115292386670803, 8.5578597750744, 24.76882725989568], "label": "O", "properties": {}}, {"species": [{"element": "O", "occu": 1}], "abc": [0.14924382, 0.75029915, 0.40112380000000003], "xyz": [1.2845662229412098, 7.0533792361574, 20.9026157708368], "label": "O", "properties": {}}]}, "formula": "(Na3Zr2Si2PO12)8.0", "bandgap": 3.1173, "slab_thickness": 26.077444092398405}