{"miller": "110_0.22", "final_energy": -903.12333975, "gamma": 0.05345029432973451, "work_function": "Not calculated", "ionization_potentail": "Not calculated", "electron_affinity": "Not calculated", "is_stochiometric": true, "incar_parameters": {"SYSTEM": "unknown system", "LCOMPAT": false, "PREC": "normal", "ENMAX": 520.0, "ENAUG": 605.392, "EDIFF": 1e-05, "IALGO": 38, "IWAVPR": 11, "NBANDS": 468, "NBANDSLOW": -1, "NBANDSHIGH": -1, "NELECT": 780.0, "TURBO": 0, "IRESTART": 0, "NREBOOT": 0, "NMIN": 0, "EREF": 0.0, "ISMEAR": 0, "SIGMA": 0.05, "KSPACING": 0.5, "KGAMMA": true, "KBLOWUP": true, "LREAL": true, "ROPT": [-0.0005, -0.0005, -0.0005, -0.0005, -0.0005], "LMAXPAW": -100, "LMAXMIX": 4, "NLSPLINE": false, "ISTART": 0, "ICHARG": 2, "INIWAV": 1, "ISPIN": 1, "LNONCOLLINEAR": false, "MAGMOM": [0.6, 0.6, 0.6, 0.6, 0.6, 0.6, 0.6, 0.6, 0.6, 0.6, 0.6, 0.6, 0.6, 0.6, 0.6, 0.6, 0.6, 0.6, 0.6, 0.6, 0.6, 0.6, 0.6, 0.6, 0.6, 0.6, 0.6, 0.6, 0.6, 0.6, 0.6, 0.6, 0.6, 0.6, 0.6, 0.6, 0.6, 0.6, 0.6, 0.6, 0.6, 0.6, 0.6, 0.6, 0.6, 0.6, 0.6, 0.6, 0.6, 0.6, 0.6, 0.6, 0.6, 0.6, 0.6, 0.6, 0.6, 0.6, 0.6, 0.6, 0.6, 0.6, 0.6, 0.6, 0.6, 0.6, 0.6, 0.6, 0.6, 0.6, 0.6, 0.6, 0.6, 0.6, 0.6, 0.6, 0.6, 0.6, 0.6, 0.6, 0.6, 0.6, 0.6, 0.6, 0.6, 0.6, 0.6, 0.6, 0.6, 0.6, 0.6, 0.6, 0.6, 0.6, 0.6, 0.6, 0.6, 0.6, 0.6, 0.6, 0.6, 0.6, 0.6, 0.6, 0.6, 0.6, 0.6, 0.6, 0.6, 0.6, 0.6, 0.6, 0.6, 0.6, 0.6, 0.6, 0.6, 0.6, 0.6, 0.6], "NUPDOWN": -1.0, "LSORBIT": false, "SAXIS": [0.0, 0.0, 1.0], "LSPIRAL": false, "QSPIRAL": [0.0, 0.0, 0.0], "LZEROZ": false, "LASPH": false, "LMETAGGA": false, "NELM": 100, "NELMDL": -5, "NELMIN": 6, "ENINI": 520.0, "LDIAG": true, "LSUBROT": false, "WEIMIN": 0.001, "EBREAK": 1e-08, "DEPER": 0.3, "NRMM": 4, "TIME": 0.4, "AMIX": 0.4, "BMIX": 1.0, "AMIN": 0.1, "AMIX_MAG": 1.6, "BMIX_MAG": 1.0, "IMIX": 4, "MIXFIRST": false, "MAXMIX": -45, "WC": 100.0, "INIMIX": 1, "MIXPRE": 1, "MREMOVE": 5, "LDIPOL": false, "LMONO": false, "IDIPOL": 0, "EPSILON": 1.0, "DIPOL": [-100.0, -100.0, -100.0], "EFIELD": 0.0, "NGX": 54, "NGY": 54, "NGZ": 294, "NGXF": 108, "NGYF": 108, "NGZF": 588, "ADDGRID": false, "NSW": 150, "IBRION": 2, "MDALGO": 0, "ISIF": 2, "PSTRESS": 0.0, "EDIFFG": -0.01, "NFREE": 1, "POTIM": 0.5, "SMASS": -3.0, "SCALEE": 1.0, "TEBEG": 0.0001, "TEEND": 0.0001, "NBLOCK": 1, "KBLOCK": 150, "NPACO": 256, "APACO": 10.0, "ISYM": 0, "SYMPREC": 1e-05, "LORBIT": 11, "RWIGS": [-1.0, -1.0, -1.0, -1.0, -1.0], "NEDOS": 301, "EMIN": 10.0, "EMAX": -10.0, "EFERMI": 0.0, "NWRITE": 2, "LWAVE": false, "LDOWNSAMPLE": false, "LCHARG": false, "LPARD": false, "LVTOT": false, "LVHAR": false, "LELF": false, "LOPTICS": false, "STM": [0.0, 0.0, 0.0, 0.0, 0.0, 0.0, 0.0], "NPAR": 2, "NSIM": 4, "NBLK": -1, "LPLANE": true, "LSCALAPACK": true, "LSCAAWARE": false, "LSCALU": false, "LASYNC": false, "LORBITALREAL": false, "IDIOT": 3, "PHON_NSTRUCT": -1, "LMUSIC": false, "POMASS": [22.99, 91.224, 28.085, 30.974, 16.0], "DARWINR": [0.0, 0.0, 0.0, 0.0, 0.0], "DARWINV": [1.0, 1.0, 1.0, 1.0, 1.0], "LCORR": true, "GGA_COMPAT": true, "LBERRY": false, "ICORELEVEL": 0, "LDAU": false, "I_CONSTRAINED_M": 0, "GGA": "--", "VOSKOWN": 0, "LHFCALC": false, "PRECFOCK": "", "LSYMGRAD": false, "LHFONE": false, "LRHFCALC": false, "LTHOMAS": false, "LMODELHF": false, "LFOCKACE": false, "ENCUT4O": -1.0, "EXXOEP": 0, "FOURORBIT": 0, "AEXX": 0.0, "HFALPHA": 0.0, "MCALPHA": 0.0, "ALDAX": 1.0, "AGGAX": 1.0, "ALDAC": 1.0, "AGGAC": 1.0, "NKREDX": 1, "NKREDY": 1, "NKREDZ": 1, "SHIFTRED": false, "ODDONLY": false, "EVENONLY": false, "LMAXFOCK": 0, "NMAXFOCKAE": 0, "LFOCKAEDFT": false, "HFSCREEN": 0.0, "HFSCREENC": 0.0, "NBANDSGWLOW": 0, "LUSE_VDW": false, "Zab_VDW": -0.8491, "PARAM1": 0.1234, "PARAM2": 1.0, "PARAM3": 0.0, "MODEL_GW": 0, "MODEL_EPS0": 22.36936168, "MODEL_ALPHA": 1.0, "LEPSILON": false, "LRPA": false, "LNABLA": false, "LVEL": false, "CSHIFT": 0.1, "OMEGAMAX": -1.0, "DEG_THRESHOLD": 0.002, "RTIME": -0.1, "WPLASMAI": 0.0, "DFIELD": [0.0, 0.0, 0.0], "WPLASMA": [0.0, 0.0, 0.0, 0.0, 0.0, 0.0, 0.0, 0.0, 0.0], "NUCIND": false, "MAGPOS": [0.0, 0.0, 0.0], "LNICSALL": true, "ORBITALMAG": false, "LMAGBLOCH": false, "LCHIMAG": false, "LGAUGE": true, "MAGATOM": 0, "MAGDIPOL": [0.0, 0.0, 0.0], "AVECCONST": [0.0, 0.0, 0.0], "LFINITE_TEMPERATURE": false, "LADDER": false, "LRPAFORCE": false, "LFXC": false, "LHARTREE": true, "IBSE": 0, "KPOINT": [-1, 0, 0, 0], "LTCTC": false, "LTCTE": false, "LTETE": false, "LTRIPLET": false, "LFXCEPS": false, "LFXHEG": false, "NATURALO": 2, "LHOLEGF": false, "L2ORDER": false, "LDMP1": false, "LMP2LT": false, "LSMP2LT": false, "LGWLF": false, "ENCUTGW": -2.0, "ENCUTGWSOFT": -2.0, "ENCUTLF": -1.0, "LESF_SPLINES": false, "LMAXMP2": -1, "SCISSOR": 0.0, "NOMEGA": 0, "NOMEGAR": 0, "NBANDSGW": -1, "NBANDSO": -1, "NBANDSV": -1, "NELMGW": 1, "NELMHF": 1, "DIM": 3, "IESPILON": 4, "ANTIRES": 0, "OMEGAMIN": -30.0, "OMEGATL": -200.0, "OMEGAGRID": 0, "LSELFENERGY": false, "LSPECTRAL": false, "LSPECTRALGW": false, "LSINGLES": false, "LFERMIGW": false, "ODDONLYGW": false, "EVENONLYGW": false, "NKREDLFX": 1, "NKREDLFY": 1, "NKREDLFZ": 1, "MAXMEM": 2800, "TELESCOPE": 0, "NTAUPAR": -1, "NOMEGAPAR": -1, "DAMP_NEWTON": 0.80000001, "LAMBDA": 1.0, "OFIELD_KAPPA": 0.0, "OFIELD_K": [0.0, 0.0, 0.0], "OFIELD_Q6_NEAR": 0.0, "OFIELD_Q6_FAR": 0.0, "OFIELD_A": 0.0, "KPOINTS_OPT_MODE": 1, "LKPOINTS_OPT": false, "@module": "pymatgen.io.vasp.inputs", "@class": "Incar"}, "relaxed_structures": {"@module": "pymatgen.core.structure", "@class": "Structure", "charge": 0, "lattice": {"matrix": [[9.272956, 0.0, 0.0], [0.0, 9.159371, 0.0], [0.0, 0.0, 52.674417]], "a": 9.272956, "b": 9.159371, "c": 52.674417, "alpha": 90.0, "beta": 90.0, "gamma": 90.0, "volume": 4473.8723351768485}, "sites": [{"species": [{"element": "Na", "occu": 1}], "abc": [0.73187228, 0.71700109, 0.009158590000000008], "xyz": [6.786619450059681, 6.5672789907143905, 0.4824233887920304], "label": "Na", "properties": {}}, {"species": [{"element": "Na", "occu": 1}], "abc": [0.23119419, 0.06738439, 0.009047150000000004], "xyz": [2.1438535513256403, 0.61719862761869, 0.47655335176155017], "label": "Na", "properties": {}}, {"species": [{"element": "Na", "occu": 1}], "abc": [0.62633596, 0.48842581, 0.06008079], "xyz": [5.807985798297761, 4.473673199765511, 3.16472058614943], "label": "Na", "properties": {}}, {"species": [{"element": "Na", "occu": 1}], "abc": [0.12638983, 0.2953147, 0.060049120000000004], "xyz": [1.1720073324374802, 2.7048968990537, 3.1630523873630403], "label": "Na", "properties": {}}, {"species": [{"element": "Na", "occu": 1}], "abc": [0.25066119, 0.25694696, 0.14219596], "xyz": [2.32437018577764, 2.3534725339621603, 7.490089292755321], "label": "Na", "properties": {}}, {"species": [{"element": "Na", "occu": 1}], "abc": [0.95909607, 0.00973278, 0.10694773999999999], "xyz": [8.89365565688292, 0.08914614288138, 5.633409853967579], "label": "Na", "properties": {}}, {"species": [{"element": "Na", "occu": 1}], "abc": [0.45888406, 0.77413692, 0.10694064], "xyz": [4.25521169748136, 7.0906072550773205, 5.63303586560688], "label": "Na", "properties": {}}, {"species": [{"element": "Na", "occu": 1}], "abc": [0.75092731, 0.52679419, 0.14220652], "xyz": [6.96331590482836, 4.825103426854491, 7.49064553459884], "label": "Na", "properties": {}}, {"species": [{"element": "Na", "occu": 1}], "abc": [0.09070075, 0.99819646, 0.18709156999999998], "xyz": [0.8410640639170001, 9.14285170802666, 9.854939375364689], "label": "Na", "properties": {}}, {"species": [{"element": "Na", "occu": 1}], "abc": [0.59056121, 0.78577921, 0.18711189], "xyz": [5.47624811563676, 7.19724330847691, 9.85600971951813], "label": "Na", "properties": {}}, {"species": [{"element": "Na", "occu": 1}], "abc": [0.72156493, 0.77475947, 0.26730379000000004], "xyz": [6.69103984703308, 7.09630942149337, 14.080071300140432], "label": "Na", "properties": {}}, {"species": [{"element": "Na", "occu": 1}], "abc": [0.43001364, 0.52701006, 0.23212812000000002], "xyz": [3.98749756311984, 4.82708066027226, 12.22721339030604], "label": "Na", "properties": {}}, {"species": [{"element": "Na", "occu": 1}], "abc": [0.93048883, 0.25719132, 0.23210298999999998], "xyz": [8.628381979081482, 2.35571071785972, 12.225889682206828], "label": "Na", "properties": {}}, {"species": [{"element": "Na", "occu": 1}], "abc": [0.2213093, 0.01053203, 0.2673048], "xyz": [2.0521914012908, 0.09646677015313, 14.0801245013016], "label": "Na", "properties": {}}, {"species": [{"element": "Na", "occu": 1}], "abc": [0.55459692, 0.48921792, 0.31428926], "xyz": [5.142752836895521, 4.48092842912832, 16.55500353986142], "label": "Na", "properties": {}}, {"species": [{"element": "Na", "occu": 1}], "abc": [0.05500089, 0.29646898, 0.31422309000000004], "xyz": [0.51002083293084, 2.71546937781158, 16.55151807368853], "label": "Na", "properties": {}}, {"species": [{"element": "Na", "occu": 1}], "abc": [0.95038921, 0.0685079, 0.36525413], "xyz": [8.81291732720476, 0.6274892725309, 19.23954835459221], "label": "Na", "properties": {}}, {"species": [{"element": "Na", "occu": 1}], "abc": [0.44987094, 0.71742423, 0.36525192], "xyz": [4.17163343229864, 6.57115468695933, 19.23943194413064], "label": "Na", "properties": {}}, {"species": [{"element": "Zr", "occu": 1}], "abc": [0.32622597, 0.62306161, 0.04010147000000001], "xyz": [3.02507906586732, 5.70685244184731, 2.11232155309299], "label": "Zr", "properties": {}}, {"species": [{"element": "Zr", "occu": 1}], "abc": [0.40360838, 0.14632295, 0.08605164000000001], "xyz": [3.74264274897128, 1.34022618486445, 4.532719968893881], "label": "Zr", "properties": {}}, {"species": [{"element": "Zr", "occu": 1}], "abc": [0.90353036, 0.63761898, 0.08599920999999999], "xyz": [8.378397272944161, 5.84018879446158, 4.529958249210569], "label": "Zr", "properties": {}}, {"species": [{"element": "Zr", "occu": 1}], "abc": [0.8261815, 0.16087896, 0.0401587], "xyz": [7.6611446975140005, 1.47355008073416, 2.1153361099779], "label": "Zr", "properties": {}}, {"species": [{"element": "Zr", "occu": 1}], "abc": [0.80302419, 0.13778134, 0.16236443], "xyz": [7.446407980805641, 1.26199040993714, 8.55245169178731], "label": "Zr", "properties": {}}, {"species": [{"element": "Zr", "occu": 1}], "abc": [0.87819564, 0.64665677, 0.2119353], "xyz": [8.14346952911184, 5.92296926609167, 11.1635683692201], "label": "Zr", "properties": {}}, {"species": [{"element": "Zr", "occu": 1}], "abc": [0.37799903, 0.13804847, 0.21198415], "xyz": [3.50516837323268, 1.2644371527123701, 11.16614151449055], "label": "Zr", "properties": {}}, {"species": [{"element": "Zr", "occu": 1}], "abc": [0.30324318, 0.64641981, 0.16230234], "xyz": [2.8119606654400804, 5.92079886153951, 8.549181137235779], "label": "Zr", "properties": {}}, {"species": [{"element": "Zr", "occu": 1}], "abc": [0.27764124, 0.63807385, 0.28828978000000005], "xyz": [2.5745550023054404, 5.844355117548351, 15.185496088558262], "label": "Zr", "properties": {}}, {"species": [{"element": "Zr", "occu": 1}], "abc": [0.35498839, 0.16165851, 0.33417737000000003], "xyz": [3.2917917209808403, 1.48069026839721, 17.60259813934329], "label": "Zr", "properties": {}}, {"species": [{"element": "Zr", "occu": 1}], "abc": [0.85505557, 0.62373541, 0.33416982], "xyz": [7.92889267816492, 5.71302402602711, 17.60220044749494], "label": "Zr", "properties": {}}, {"species": [{"element": "Zr", "occu": 1}], "abc": [0.77767178, 0.14685439, 0.28829523], "xyz": [7.211316198381681, 1.3450938409886901, 15.18578316413091], "label": "Zr", "properties": {}}, {"species": [{"element": "Si", "occu": 1}], "abc": [0.96746493, 0.50035002, 0.024720100000000002], "xyz": [8.97125972743308, 4.58289146303742, 1.3021168556817], "label": "Si", "properties": {}}, {"species": [{"element": "Si", "occu": 1}], "abc": [0.46732948, 0.28349043, 0.024805900000000006], "xyz": [4.333525705542881, 2.5965940233195304, 1.3066363206603002], "label": "Si", "properties": {}}, {"species": [{"element": "Si", "occu": 1}], "abc": [0.4454124, 0.00247101, 0.15140721], "xyz": [4.1302895870544, 0.022632897334710002, 7.975286516346569], "label": "Si", "properties": {}}, {"species": [{"element": "Si", "occu": 1}], "abc": [0.75868725, 0.28458978, 0.09904492000000001], "xyz": [7.0352734870110005, 2.6066633778283803, 5.21713341781164], "label": "Si", "properties": {}}, {"species": [{"element": "Si", "occu": 1}], "abc": [0.2584037, 0.49907866, 0.09899971999999999], "xyz": [2.3961661403372, 4.57124660512286, 5.214752534163239], "label": "Si", "properties": {}}, {"species": [{"element": "Si", "occu": 1}], "abc": [0.94574279, 0.78168176, 0.15134498999999998], "xyz": [8.76983127898724, 7.15971324377296, 7.972009114120829], "label": "Si", "properties": {}}, {"species": [{"element": "Si", "occu": 1}], "abc": [0.9225947, 0.49989555, 0.27527699], "xyz": [8.5551800589332, 4.57872880369905, 14.50005496176483], "label": "Si", "properties": {}}, {"species": [{"element": "Si", "occu": 1}], "abc": [0.23568297, 0.78204489, 0.22289685], "xyz": [2.1854778107593202, 7.16303928616419, 11.74096162488645], "label": "Si", "properties": {}}, {"species": [{"element": "Si", "occu": 1}], "abc": [0.7356039, 0.00266121, 0.22294974999999997], "xyz": [6.821222598128401, 0.02437500969891, 11.743748101545748], "label": "Si", "properties": {}}, {"species": [{"element": "Si", "occu": 1}], "abc": [0.42248707, 0.28511316, 0.27528966000000005], "xyz": [3.9177040106789205, 2.61145720942236, 14.500722346628223], "label": "Si", "properties": {}}, {"species": [{"element": "Si", "occu": 1}], "abc": [0.71396735, 0.28425957, 0.34949989000000004], "xyz": [6.6205878219866, 2.6036388619304702, 18.40970294731413], "label": "Si", "properties": {}}, {"species": [{"element": "Si", "occu": 1}], "abc": [0.21390079, 0.50120627, 0.34962658], "xyz": [1.9834926140352402, 4.59073417445617, 18.41637626920386], "label": "Si", "properties": {}}, {"species": [{"element": "P", "occu": 1}], "abc": [0.61641776, 0.85394816, 0.05809427000000001], "xyz": [5.716014766098561, 7.82162801220736, 3.0600818032905903], "label": "P", "properties": {}}, {"species": [{"element": "P", "occu": 1}], "abc": [0.11649138, 0.93006202, 0.05805239], "xyz": [1.08021944111928, 8.51878309418942, 3.05787579870663], "label": "P", "properties": {}}, {"species": [{"element": "P", "occu": 1}], "abc": [0.09064789, 0.35059981, 0.18710866], "xyz": [0.84057389546284, 3.21127373231951, 9.855839581151221], "label": "P", "properties": {}}, {"species": [{"element": "P", "occu": 1}], "abc": [0.59070742, 0.43378845, 0.18719389], "xyz": [5.47760391453352, 3.97322934906495, 9.860329021712129], "label": "P", "properties": {}}, {"species": [{"element": "P", "occu": 1}], "abc": [0.5645816, 0.85464195, 0.31622469000000003], "xyz": [5.2353403352096, 7.82798269221345, 16.65695118675573], "label": "P", "properties": {}}, {"species": [{"element": "P", "occu": 1}], "abc": [0.06475774, 0.93069001, 0.31617976000000003], "xyz": [0.60049567367944, 8.52453508758371, 16.654584525199922], "label": "P", "properties": {}}, {"species": [{"element": "O", "occu": 1}], "abc": [0.87585804, 0.55476451, 0.05061252], "xyz": [8.12179306716624, 5.08129396472321, 2.66598498390084], "label": "O", "properties": {}}, {"species": [{"element": "O", "occu": 1}], "abc": [0.86068765, 0.20732497, 0.07653309], "xyz": [7.981118708193401, 1.89896631779387, 4.03133589695853], "label": "O", "properties": {}}, {"species": [{"element": "O", "occu": 1}], "abc": [0.36032103, 0.57621379, 0.07646828], "xyz": [3.34124105706468, 5.27775587792609, 4.02792206799276], "label": "O", "properties": {}}, {"species": [{"element": "O", "occu": 1}], "abc": [0.37565292, 0.22945089, 0.05069009], "xyz": [3.48341299843152, 2.10162582779019, 2.67007093842753], "label": "O", "properties": {}}, {"species": [{"element": "O", "occu": 1}], "abc": [0.2248741, 0.83825654, 0.042172430000000004], "xyz": [2.0852476348396003, 7.67790264303634, 2.2214081637233103], "label": "O", "properties": {}}, {"species": [{"element": "O", "occu": 1}], "abc": [0.50963103, 0.95046659, 0.07330764000000001], "xyz": [4.72578611742468, 8.705676120914891, 3.86143719864588], "label": "O", "properties": {}}, {"species": [{"element": "O", "occu": 1}], "abc": [0.00969075, 0.83351874, 0.07326709], "xyz": [0.08986189835700001, 7.63450737511254, 3.85930125103653], "label": "O", "properties": {}}, {"species": [{"element": "O", "occu": 1}], "abc": [0.7249832, 0.94573731, 0.04224907000000001], "xyz": [6.722737314339201, 8.66235889083201, 2.22544513104219], "label": "O", "properties": {}}, {"species": [{"element": "O", "occu": 1}], "abc": [0.5331433, 0.75254812, 0.03922235000000001], "xyz": [4.9438143625948, 6.89286742643252, 2.0660144196199504], "label": "O", "properties": {}}, {"species": [{"element": "O", "occu": 1}], "abc": [0.19461348, 0.02808643, 0.07795566000000001], "xyz": [1.8046422370468802, 0.25725403243553, 4.10626894235022], "label": "O", "properties": {}}, {"species": [{"element": "O", "occu": 1}], "abc": [0.6944725, 0.75578853, 0.07798369], "xyz": [6.439812935710001, 6.9225475438146304, 4.107745406258729], "label": "O", "properties": {}}, {"species": [{"element": "O", "occu": 1}], "abc": [0.03316523, 0.03160086, 0.03919799000000001], "xyz": [0.30753971851988, 0.28944400065906, 2.0647312708218304], "label": "O", "properties": {}}, {"species": [{"element": "O", "occu": 1}], "abc": [0.14266102, 0.52630379, 0.03286385000000001], "xyz": [1.32288936137512, 4.82061167131609, 1.7310841391254503], "label": "O", "properties": {}}, {"species": [{"element": "O", "occu": 1}], "abc": [0.64254899, 0.25759498, 0.032957560000000004], "xyz": [5.9583285121144405, 2.35940798955758, 1.7360202587425202], "label": "O", "properties": {}}, {"species": [{"element": "O", "occu": 1}], "abc": [0.45295304, 0.46773682, 0.02574747000000001], "xyz": [4.20021360998624, 4.28417506474022, 1.3562329714749903], "label": "O", "properties": {}}, {"species": [{"element": "O", "occu": 1}], "abc": [0.95292572, 0.31612432, 0.025742770000000005], "xyz": [8.836438272828321, 2.89549992900272, 1.3559854017150903], "label": "O", "properties": {}}, {"species": [{"element": "O", "occu": 1}], "abc": [0.91566409, 0.58176971, 0.00010000000000000286], "xyz": [8.490912817350042, 5.32864461045241, 0.005267441700000151], "label": "O", "properties": {}}, {"species": [{"element": "O", "occu": 1}], "abc": [0.41572011, 0.20191667, 0.00018878000000000644], "xyz": [3.85495428834516, 1.84942969161457, 0.00994387644126034], "label": "O", "properties": {}}, {"species": [{"element": "O", "occu": 1}], "abc": [0.34467168, 0.08135302, 0.17319484], "xyz": [3.19612532308608, 0.7451424921504199, 9.122937224408279], "label": "O", "properties": {}}, {"species": [{"element": "O", "occu": 1}], "abc": [0.33636895, 0.70304234, 0.20111189], "xyz": [3.1191344731162003, 6.43942562076814, 10.59345155751813], "label": "O", "properties": {}}, {"species": [{"element": "O", "occu": 1}], "abc": [0.83617345, 0.0817263, 0.20114853], "xyz": [7.7537996102182, 0.7485615021573, 10.59538154815701], "label": "O", "properties": {}}, {"species": [{"element": "O", "occu": 1}], "abc": [0.84523003, 0.70241409, 0.17313284], "xyz": [7.83778087806868, 6.43367124593739, 9.11967141055428], "label": "O", "properties": {}}, {"species": [{"element": "O", "occu": 1}], "abc": [0.70205848, 0.33932019, 0.17281992], "xyz": [6.510157394466881, 3.1079595080004903, 9.103188531986639], "label": "O", "properties": {}}, {"species": [{"element": "O", "occu": 1}], "abc": [0.97926208, 0.44497371, 0.2014939], "xyz": [9.08065418030848, 4.0756792951364105, 10.6135737115563], "label": "O", "properties": {}}, {"species": [{"element": "O", "occu": 1}], "abc": [0.47896491, 0.33962315, 0.20152685], "xyz": [4.44142053597396, 3.11073443103865, 10.61530933359645], "label": "O", "properties": {}}, {"species": [{"element": "O", "occu": 1}], "abc": [0.20227822, 0.44478949, 0.17273261], "xyz": [1.8757170338183202, 4.07399195581079, 9.098589528638371], "label": "O", "properties": {}}, {"species": [{"element": "O", "occu": 1}], "abc": [0.01578011, 0.25136385, 0.16714735], "xyz": [0.14632826570516, 2.30233475813835, 8.80438921434495], "label": "O", "properties": {}}, {"species": [{"element": "O", "occu": 1}], "abc": [0.66571152, 0.53274497, 0.20717601], "xyz": [6.17311363365312, 4.87960882861387, 10.912875543136169], "label": "O", "properties": {}}, {"species": [{"element": "O", "occu": 1}], "abc": [0.16543771, 0.25131694, 0.20706989], "xyz": [1.5340966055707599, 2.30190509204474, 10.90728573400413], "label": "O", "properties": {}}, {"species": [{"element": "O", "occu": 1}], "abc": [0.51609098, 0.53325728, 0.16723452], "xyz": [4.78568894953688, 4.88430126597088, 8.80898084327484], "label": "O", "properties": {}}, {"species": [{"element": "O", "occu": 1}], "abc": [0.61599786, 0.03371237, 0.15806785], "xyz": [5.712121051874161, 0.30878410411927, 8.32613184519345], "label": "O", "properties": {}}, {"species": [{"element": "O", "occu": 1}], "abc": [0.59110406, 0.25028932, 0.09191403000000001], "xyz": [5.48128193980136, 2.2924927392177197, 4.84151794437051], "label": "O", "properties": {}}, {"species": [{"element": "O", "occu": 1}], "abc": [0.09082282, 0.53319587, 0.09185325], "xyz": [0.84219601365592, 4.88373878899777, 4.8383163933052495], "label": "O", "properties": {}}, {"species": [{"element": "O", "occu": 1}], "abc": [0.11649161, 0.75100797, 0.15796827], "xyz": [1.08022157389916, 6.87876062118687, 8.32088652674859], "label": "O", "properties": {}}, {"species": [{"element": "O", "occu": 1}], "abc": [0.92870786, 0.96101871, 0.15179816], "xyz": [8.61186712263416, 8.80232690283141, 7.995879579672719], "label": "O", "properties": {}}, {"species": [{"element": "O", "occu": 1}], "abc": [0.27661763, 0.32104162, 0.09948218], "xyz": [2.5650631118142804, 2.94053930402102, 5.24016583338906], "label": "O", "properties": {}}, {"species": [{"element": "O", "occu": 1}], "abc": [0.77659932, 0.46271, 0.09945024], "xyz": [7.20137132398992, 4.23813255541, 5.23848341251008], "label": "O", "properties": {}}, {"species": [{"element": "O", "occu": 1}], "abc": [0.42902238, 0.82310364, 0.15178727], "xyz": [3.9783056527552803, 7.5391116102104405, 7.99530595527159], "label": "O", "properties": {}}, {"species": [{"element": "O", "occu": 1}], "abc": [0.81315995, 0.2116004, 0.12542849], "xyz": [7.5403964373122, 1.9381265673484, 6.60687258594033], "label": "O", "properties": {}}, {"species": [{"element": "O", "occu": 1}], "abc": [0.39703886, 0.06084167, 0.12331065999999999], "xyz": [3.68172387907016, 0.5572714277895701, 6.4953171253852195], "label": "O", "properties": {}}, {"species": [{"element": "O", "occu": 1}], "abc": [0.89736565, 0.72336493, 0.12324025], "xyz": [8.321232188361401, 6.62556776225903, 6.491608319684249], "label": "O", "properties": {}}, {"species": [{"element": "O", "occu": 1}], "abc": [0.31303597, 0.57253497, 0.12535131], "xyz": [2.90276877622732, 5.24406020070387, 6.602807174436269], "label": "O", "properties": {}}, {"species": [{"element": "O", "occu": 1}], "abc": [0.82063172, 0.57699374, 0.29780025000000004], "xyz": [7.60968183176432, 5.284899729337541, 15.686454551204251], "label": "O", "properties": {}}, {"species": [{"element": "O", "occu": 1}], "abc": [0.80572442, 0.23005385, 0.32364494000000005], "xyz": [7.47144709478552, 2.10714856212835, 17.04780852949998], "label": "O", "properties": {}}, {"species": [{"element": "O", "occu": 1}], "abc": [0.30537454, 0.55555693, 0.32371917], "xyz": [2.8317246729402403, 5.0885520334910295, 17.05171855147389], "label": "O", "properties": {}}, {"species": [{"element": "O", "occu": 1}], "abc": [0.32029706, 0.20832396, 0.29781445], "xyz": [2.97010054430936, 1.90811643782916, 15.687202527925649], "label": "O", "properties": {}}, {"species": [{"element": "O", "occu": 1}], "abc": [0.17131463, 0.83402947, 0.30094118000000003], "xyz": [1.5885930261462802, 7.639185340663371, 15.85190120779206], "label": "O", "properties": {}}, {"species": [{"element": "O", "occu": 1}], "abc": [0.45610937, 0.94629673, 0.33211728], "xyz": [4.22948211919772, 8.66748282615683, 17.49408409962576], "label": "O", "properties": {}}, {"species": [{"element": "O", "occu": 1}], "abc": [0.95631645, 0.83892896, 0.33205290000000004], "xyz": [8.8678803629262, 7.68406158728416, 17.490692920659303], "label": "O", "properties": {}}, {"species": [{"element": "O", "occu": 1}], "abc": [0.67152602, 0.95108435, 0.30103607000000004], "xyz": [6.22703123631512, 8.71133441394385, 15.856899483221191], "label": "O", "properties": {}}, {"species": [{"element": "O", "occu": 1}], "abc": [0.48647457, 0.75668768, 0.29630181], "xyz": [4.51105728272892, 6.9307831922492795, 15.607525097794769], "label": "O", "properties": {}}, {"species": [{"element": "O", "occu": 1}], "abc": [0.14819573, 0.03222601, 0.33502259], "xyz": [1.3742124836778802, 0.29516998143971, 17.64711961008003], "label": "O", "properties": {}}, {"species": [{"element": "O", "occu": 1}], "abc": [0.64798351, 0.7530208, 0.33505347], "xyz": [6.00872257695556, 6.897196877916801, 17.648746196076992], "label": "O", "properties": {}}, {"species": [{"element": "O", "occu": 1}], "abc": [0.9866892, 0.02894476, 0.29630206000000003], "xyz": [9.149525537275201, 0.26511579534596, 15.607538266399022], "label": "O", "properties": {}}, {"species": [{"element": "O", "occu": 1}], "abc": [0.09025325, 0.53351439, 0.28251514000000005], "xyz": [0.836914416107, 4.88665623184869, 14.881320293173383], "label": "O", "properties": {}}, {"species": [{"element": "O", "occu": 1}], "abc": [0.06510401, 0.75097842, 0.21615315], "xyz": [0.60370662015356, 6.878489961773821, 11.38574115896355], "label": "O", "properties": {}}, {"species": [{"element": "O", "occu": 1}], "abc": [0.56492973, 0.03410798, 0.21638302], "xyz": [5.2385685293818804, 0.31240764288058004, 11.39784942719934], "label": "O", "properties": {}}, {"species": [{"element": "O", "occu": 1}], "abc": [0.58996598, 0.25050713, 0.28243756000000003], "xyz": [5.4707285740368805, 2.2944877418152303, 14.87723381190252], "label": "O", "properties": {}}, {"species": [{"element": "O", "occu": 1}], "abc": [0.40480868, 0.46330012, 0.27487654], "xyz": [3.7537730780580802, 4.2435376834245195, 14.478961491477179], "label": "O", "properties": {}}, {"species": [{"element": "O", "occu": 1}], "abc": [0.75184295, 0.82329063, 0.22242547999999998], "xyz": [6.971806594260201, 7.54082432099373, 11.716132484945158], "label": "O", "properties": {}}, {"species": [{"element": "O", "occu": 1}], "abc": [0.25216389, 0.9614163, 0.22252671], "xyz": [2.33830465675884, 8.8059685771473, 11.721464716178069], "label": "O", "properties": {}}, {"species": [{"element": "O", "occu": 1}], "abc": [0.90415145, 0.32184843, 0.27478473000000003], "xyz": [8.3841566131862, 2.94792917613753, 14.47412545325241], "label": "O", "properties": {}}, {"species": [{"element": "O", "occu": 1}], "abc": [0.2837963, 0.72344528, 0.25100104], "xyz": [2.6316306028628, 6.62630371771888, 13.22133344839368], "label": "O", "properties": {}}, {"species": [{"element": "O", "occu": 1}], "abc": [0.86866418, 0.57356668, 0.24891488999999997], "xyz": [8.055084719916081, 5.25351001535828, 13.111446713369128], "label": "O", "properties": {}}, {"species": [{"element": "O", "occu": 1}], "abc": [0.3677411, 0.21232102, 0.24890157], "xyz": [3.4100470396916003, 1.9447269932784201, 13.110745090134689], "label": "O", "properties": {}}, {"species": [{"element": "O", "occu": 1}], "abc": [0.78429149, 0.0606648, 0.25105604000000004], "xyz": [7.27270047794444, 0.5556514098408, 13.224230541328682], "label": "O", "properties": {}}, {"species": [{"element": "O", "occu": 1}], "abc": [0.53870243, 0.25831548, 0.34136214000000004], "xyz": [4.99536393048308, 2.36600731636308, 17.98105171037238], "label": "O", "properties": {}}, {"species": [{"element": "O", "occu": 1}], "abc": [0.03861313, 0.52703517, 0.34148777], "xyz": [0.35805785551228003, 4.82731065207807, 17.98766919738009], "label": "O", "properties": {}}, {"species": [{"element": "O", "occu": 1}], "abc": [0.22838233, 0.31689534, 0.34863196], "xyz": [2.11777929726748, 2.9025619872311403, 18.36398524056732], "label": "O", "properties": {}}, {"species": [{"element": "O", "occu": 1}], "abc": [0.72823655, 0.46849663, 0.34856074000000004], "xyz": [6.752905485741801, 4.29113444641973, 18.360233768588582], "label": "O", "properties": {}}, {"species": [{"element": "O", "occu": 1}], "abc": [0.76554157, 0.20254722, 0.37411105], "xyz": [7.0988332947809205, 1.85520513299862, 19.70608145200785], "label": "O", "properties": {}}, {"species": [{"element": "O", "occu": 1}], "abc": [0.26559962, 0.58264115, 0.37425153], "xyz": [2.46289358987672, 5.336626452716651, 19.71348115410801], "label": "O", "properties": {}}]}, "formula": "(Na3Zr2Si2PO12)6.0", "bandgap": 3.3017000000000003, "slab_thickness": 19.70821371240801}