{"miller": "110_0.43", "final_energy": -903.12401349, "gamma": 0.053446328094328345, "work_function": 5.3426103793032835, "ionization_potentail": -5.680510379303284, "electron_affinity": -2.2949103793032837, "is_stochiometric": true, "incar_parameters": {"SYSTEM": "unknown system", "LCOMPAT": false, "PREC": "normal", "ENMAX": 520.0, "ENAUG": 605.392, "EDIFF": 1e-05, "IALGO": 38, "IWAVPR": 11, "NBANDS": 468, "NBANDSLOW": -1, "NBANDSHIGH": -1, "NELECT": 780.0, "TURBO": 0, "IRESTART": 0, "NREBOOT": 0, "NMIN": 0, "EREF": 0.0, "ISMEAR": 0, "SIGMA": 0.05, "KSPACING": 0.5, "KGAMMA": true, "KBLOWUP": true, "LREAL": true, "ROPT": [-0.0005, -0.0005, -0.0005, -0.0005, -0.0005], "LMAXPAW": -100, "LMAXMIX": 4, "NLSPLINE": false, "ISTART": 0, "ICHARG": 2, "INIWAV": 1, "ISPIN": 1, "LNONCOLLINEAR": false, "MAGMOM": [0.6, 0.6, 0.6, 0.6, 0.6, 0.6, 0.6, 0.6, 0.6, 0.6, 0.6, 0.6, 0.6, 0.6, 0.6, 0.6, 0.6, 0.6, 0.6, 0.6, 0.6, 0.6, 0.6, 0.6, 0.6, 0.6, 0.6, 0.6, 0.6, 0.6, 0.6, 0.6, 0.6, 0.6, 0.6, 0.6, 0.6, 0.6, 0.6, 0.6, 0.6, 0.6, 0.6, 0.6, 0.6, 0.6, 0.6, 0.6, 0.6, 0.6, 0.6, 0.6, 0.6, 0.6, 0.6, 0.6, 0.6, 0.6, 0.6, 0.6, 0.6, 0.6, 0.6, 0.6, 0.6, 0.6, 0.6, 0.6, 0.6, 0.6, 0.6, 0.6, 0.6, 0.6, 0.6, 0.6, 0.6, 0.6, 0.6, 0.6, 0.6, 0.6, 0.6, 0.6, 0.6, 0.6, 0.6, 0.6, 0.6, 0.6, 0.6, 0.6, 0.6, 0.6, 0.6, 0.6, 0.6, 0.6, 0.6, 0.6, 0.6, 0.6, 0.6, 0.6, 0.6, 0.6, 0.6, 0.6, 0.6, 0.6, 0.6, 0.6, 0.6, 0.6, 0.6, 0.6, 0.6, 0.6, 0.6, 0.6], "NUPDOWN": -1.0, "LSORBIT": false, "SAXIS": [0.0, 0.0, 1.0], "LSPIRAL": false, "QSPIRAL": [0.0, 0.0, 0.0], "LZEROZ": false, "LASPH": false, "LMETAGGA": false, "NELM": 100, "NELMDL": -5, "NELMIN": 6, "ENINI": 520.0, "LDIAG": true, "LSUBROT": false, "WEIMIN": 0.001, "EBREAK": 1e-08, "DEPER": 0.3, "NRMM": 4, "TIME": 0.4, "AMIX": 0.4, "BMIX": 1.0, "AMIN": 0.1, "AMIX_MAG": 1.6, "BMIX_MAG": 1.0, "IMIX": 4, "MIXFIRST": false, "MAXMIX": -45, "WC": 100.0, "INIMIX": 1, "MIXPRE": 1, "MREMOVE": 5, "LDIPOL": false, "LMONO": false, "IDIPOL": 0, "EPSILON": 1.0, "DIPOL": [-100.0, -100.0, -100.0], "EFIELD": 0.0, "NGX": 54, "NGY": 54, "NGZ": 294, "NGXF": 108, "NGYF": 108, "NGZF": 588, "ADDGRID": false, "NSW": 150, "IBRION": 2, "MDALGO": 0, "ISIF": 2, "PSTRESS": 0.0, "EDIFFG": -0.01, "NFREE": 1, "POTIM": 0.5, "SMASS": -3.0, "SCALEE": 1.0, "TEBEG": 0.0001, "TEEND": 0.0001, "NBLOCK": 1, "KBLOCK": 150, "NPACO": 256, "APACO": 10.0, "ISYM": 0, "SYMPREC": 1e-05, "LORBIT": 11, "RWIGS": [-1.0, -1.0, -1.0, -1.0, -1.0], "NEDOS": 301, "EMIN": 10.0, "EMAX": -10.0, "EFERMI": 0.0, "NWRITE": 2, "LWAVE": false, "LDOWNSAMPLE": false, "LCHARG": false, "LPARD": false, "LVTOT": false, "LVHAR": false, "LELF": false, "LOPTICS": false, "STM": [0.0, 0.0, 0.0, 0.0, 0.0, 0.0, 0.0], "NPAR": 2, "NSIM": 4, "NBLK": -1, "LPLANE": true, "LSCALAPACK": true, "LSCAAWARE": false, "LSCALU": false, "LASYNC": false, "LORBITALREAL": false, "IDIOT": 3, "PHON_NSTRUCT": -1, "LMUSIC": false, "POMASS": [22.99, 91.224, 28.085, 30.974, 16.0], "DARWINR": [0.0, 0.0, 0.0, 0.0, 0.0], "DARWINV": [1.0, 1.0, 1.0, 1.0, 1.0], "LCORR": true, "GGA_COMPAT": true, "LBERRY": false, "ICORELEVEL": 0, "LDAU": false, "I_CONSTRAINED_M": 0, "GGA": "--", "VOSKOWN": 0, "LHFCALC": false, "PRECFOCK": "", "LSYMGRAD": false, "LHFONE": false, "LRHFCALC": false, "LTHOMAS": false, "LMODELHF": false, "LFOCKACE": false, "ENCUT4O": -1.0, "EXXOEP": 0, "FOURORBIT": 0, "AEXX": 0.0, "HFALPHA": 0.0, "MCALPHA": 0.0, "ALDAX": 1.0, "AGGAX": 1.0, "ALDAC": 1.0, "AGGAC": 1.0, "NKREDX": 1, "NKREDY": 1, "NKREDZ": 1, "SHIFTRED": false, "ODDONLY": false, "EVENONLY": false, "LMAXFOCK": 0, "NMAXFOCKAE": 0, "LFOCKAEDFT": false, "HFSCREEN": 0.0, "HFSCREENC": 0.0, "NBANDSGWLOW": 0, "LUSE_VDW": false, "Zab_VDW": -0.8491, "PARAM1": 0.1234, "PARAM2": 1.0, "PARAM3": 0.0, "MODEL_GW": 0, "MODEL_EPS0": 22.36936168, "MODEL_ALPHA": 1.0, "LEPSILON": false, "LRPA": false, "LNABLA": false, "LVEL": false, "CSHIFT": 0.1, "OMEGAMAX": -1.0, "DEG_THRESHOLD": 0.002, "RTIME": -0.1, "WPLASMAI": 0.0, "DFIELD": [0.0, 0.0, 0.0], "WPLASMA": [0.0, 0.0, 0.0, 0.0, 0.0, 0.0, 0.0, 0.0, 0.0], "NUCIND": false, "MAGPOS": [0.0, 0.0, 0.0], "LNICSALL": true, "ORBITALMAG": false, "LMAGBLOCH": false, "LCHIMAG": false, "LGAUGE": true, "MAGATOM": 0, "MAGDIPOL": [0.0, 0.0, 0.0], "AVECCONST": [0.0, 0.0, 0.0], "LFINITE_TEMPERATURE": false, "LADDER": false, "LRPAFORCE": false, "LFXC": false, "LHARTREE": true, "IBSE": 0, "KPOINT": [-1, 0, 0, 0], "LTCTC": false, "LTCTE": false, "LTETE": false, "LTRIPLET": false, "LFXCEPS": false, "LFXHEG": false, "NATURALO": 2, "LHOLEGF": false, "L2ORDER": false, "LDMP1": false, "LMP2LT": false, "LSMP2LT": false, "LGWLF": false, "ENCUTGW": -2.0, "ENCUTGWSOFT": -2.0, "ENCUTLF": -1.0, "LESF_SPLINES": false, "LMAXMP2": -1, "SCISSOR": 0.0, "NOMEGA": 0, "NOMEGAR": 0, "NBANDSGW": -1, "NBANDSO": -1, "NBANDSV": -1, "NELMGW": 1, "NELMHF": 1, "DIM": 3, "IESPILON": 4, "ANTIRES": 0, "OMEGAMIN": -30.0, "OMEGATL": -200.0, "OMEGAGRID": 0, "LSELFENERGY": false, "LSPECTRAL": false, "LSPECTRALGW": false, "LSINGLES": false, "LFERMIGW": false, "ODDONLYGW": false, "EVENONLYGW": false, "NKREDLFX": 1, "NKREDLFY": 1, "NKREDLFZ": 1, "MAXMEM": 2800, "TELESCOPE": 0, "NTAUPAR": -1, "NOMEGAPAR": -1, "DAMP_NEWTON": 0.80000001, "LAMBDA": 1.0, "OFIELD_KAPPA": 0.0, "OFIELD_K": [0.0, 0.0, 0.0], "OFIELD_Q6_NEAR": 0.0, "OFIELD_Q6_FAR": 0.0, "OFIELD_A": 0.0, "KPOINTS_OPT_MODE": 1, "LKPOINTS_OPT": false, "@module": "pymatgen.io.vasp.inputs", "@class": "Incar"}, "relaxed_structures": {"@module": "pymatgen.core.structure", "@class": "Structure", "charge": 0, "lattice": {"matrix": [[9.272956, 0.0, 0.0], [0.0, 9.159371, 0.0], [0.0, 0.0, 52.674417]], "a": 9.272956, "b": 9.159371, "c": 52.674417, "alpha": 90.0, "beta": 90.0, "gamma": 90.0, "volume": 4473.8723351768485}, "sites": [{"species": [{"element": "Na", "occu": 1}], "abc": [0.62714172, 0.60833901, 0.00881184], "xyz": [5.815457575324321, 5.57200268636271, 0.46415853469727997], "label": "Na", "properties": {}}, {"species": [{"element": "Na", "occu": 1}], "abc": [0.8567841, 0.90111257, 0.10687458999999999], "xyz": [7.944921260799601, 8.25362434139347, 5.62955672036403], "label": "Na", "properties": {}}, {"species": [{"element": "Na", "occu": 1}], "abc": [0.35684882, 0.66607828, 0.10686087999999999], "xyz": [3.3090434065119205, 6.1008580815618805, 5.62883455410696], "label": "Na", "properties": {}}, {"species": [{"element": "Na", "occu": 1}], "abc": [0.12758465, 0.95965387, 0.008879759999999999], "xyz": [1.1830868457254, 8.78982582691577, 0.46773618109991993], "label": "Na", "properties": {}}, {"species": [{"element": "Na", "occu": 1}], "abc": [0.52311232, 0.38015233, 0.060102880000000004], "xyz": [4.85079752641792, 3.4819562269844297, 3.16588416402096], "label": "Na", "properties": {}}, {"species": [{"element": "Na", "occu": 1}], "abc": [0.02347936, 0.1876566, 0.06003516], "xyz": [0.21772307218816003, 1.7188164199986, 3.1623170525017197], "label": "Na", "properties": {}}, {"species": [{"element": "Na", "occu": 1}], "abc": [0.14813247, 0.14837699, 0.14214087], "xyz": [1.37362587648132, 1.35903989927329, 7.48718745912279], "label": "Na", "properties": {}}, {"species": [{"element": "Na", "occu": 1}], "abc": [0.32736253, 0.41827333, 0.23202425999999998], "xyz": [3.03561833673868, 3.83112060887543, 12.221742625356418], "label": "Na", "properties": {}}, {"species": [{"element": "Na", "occu": 1}], "abc": [0.82729094, 0.14935518, 0.23205614], "xyz": [7.671432485818641, 1.36799950439178, 12.22342188577038], "label": "Na", "properties": {}}, {"species": [{"element": "Na", "occu": 1}], "abc": [0.64813402, 0.41832852, 0.14211265], "xyz": [6.01011824956312, 3.83162611456092, 7.48570098707505], "label": "Na", "properties": {}}, {"species": [{"element": "Na", "occu": 1}], "abc": [0.98793242, 0.8898272, 0.18704853999999999], "xyz": [9.16105386163352, 8.1502574506912, 9.85267279520118], "label": "Na", "properties": {}}, {"species": [{"element": "Na", "occu": 1}], "abc": [0.48814933, 0.67748675, 0.18701512], "xyz": [4.526587258519481, 6.20535249083425, 9.85091241618504], "label": "Na", "properties": {}}, {"species": [{"element": "Na", "occu": 1}], "abc": [0.61826296, 0.66475517, 0.26721995], "xyz": [5.73312522450976, 6.0887392261980695, 14.07565507701915], "label": "Na", "properties": {}}, {"species": [{"element": "Na", "occu": 1}], "abc": [0.84787349, 0.95890447, 0.36522419], "xyz": [7.862293566336441, 8.78296179428837, 19.237971282547228], "label": "Na", "properties": {}}, {"species": [{"element": "Na", "occu": 1}], "abc": [0.34813144, 0.60832809, 0.36530448], "xyz": [3.2282075253366402, 5.57190266603139, 19.242200511488157], "label": "Na", "properties": {}}, {"species": [{"element": "Na", "occu": 1}], "abc": [0.11808577, 0.9020893, 0.26724715], "xyz": [1.0950041494361202, 8.2625705738303, 14.077087821161548], "label": "Na", "properties": {}}, {"species": [{"element": "Na", "occu": 1}], "abc": [0.45260708, 0.37971813, 0.31425667], "xyz": [4.19700553812848, 3.47797922809623, 16.55328688061139], "label": "Na", "properties": {}}, {"species": [{"element": "Na", "occu": 1}], "abc": [0.95249513, 0.18705144, 0.31426023], "xyz": [8.832445430704281, 1.71327353504424, 16.553474401535908], "label": "Na", "properties": {}}, {"species": [{"element": "Zr", "occu": 1}], "abc": [0.22329465, 0.5147721, 0.0399963], "xyz": [2.0706014644854003, 4.714988644349099, 2.1067817846571], "label": "Zr", "properties": {}}, {"species": [{"element": "Zr", "occu": 1}], "abc": [0.30114865, 0.03798714, 0.08594800999999999], "xyz": [2.7925381809094003, 0.34793830848894003, 4.52726131906017], "label": "Zr", "properties": {}}, {"species": [{"element": "Zr", "occu": 1}], "abc": [0.80103062, 0.52920104, 0.08591555999999999], "xyz": [7.427921693912721, 4.84714865894584, 4.525552034228519], "label": "Zr", "properties": {}}, {"species": [{"element": "Zr", "occu": 1}], "abc": [0.72353625, 0.05279798, 0.04001612], "xyz": [6.709319810655001, 0.48359628687058004, 2.10782579160204], "label": "Zr", "properties": {}}, {"species": [{"element": "Zr", "occu": 1}], "abc": [0.70044168, 0.02914253, 0.16227107999999998], "xyz": [6.49516487920608, 0.26692724414863, 8.54753453496036], "label": "Zr", "properties": {}}, {"species": [{"element": "Zr", "occu": 1}], "abc": [0.77554613, 0.53781545, 0.21190567999999999], "xyz": [7.19160513946028, 4.92605123608195, 11.162008152988559], "label": "Zr", "properties": {}}, {"species": [{"element": "Zr", "occu": 1}], "abc": [0.27567457, 0.02931017, 0.21187829], "xyz": [2.5563181579289203, 0.26846272110307, 11.160565400706929], "label": "Zr", "properties": {}}, {"species": [{"element": "Zr", "occu": 1}], "abc": [0.2004389, 0.53790711, 0.16225845], "xyz": [1.8586611003884002, 4.92689078402781, 8.54686925707365], "label": "Zr", "properties": {}}, {"species": [{"element": "Zr", "occu": 1}], "abc": [0.17568826, 0.52901737, 0.28821037], "xyz": [1.6291495046965603, 4.845466357274271, 15.18131321310429], "label": "Zr", "properties": {}}, {"species": [{"element": "Zr", "occu": 1}], "abc": [0.25294873, 0.05232661, 0.33411949], "xyz": [2.3455824435458803, 0.47927883416231004, 17.59954934408733], "label": "Zr", "properties": {}}, {"species": [{"element": "Zr", "occu": 1}], "abc": [0.75299881, 0.51430625, 0.33415264], "xyz": [6.982524833182361, 4.71072175136875, 17.60129550101088], "label": "Zr", "properties": {}}, {"species": [{"element": "Zr", "occu": 1}], "abc": [0.67564861, 0.03720957, 0.28826417], "xyz": [6.26525983199116, 0.34081625638047, 15.184147096738888], "label": "Zr", "properties": {}}, {"species": [{"element": "Si", "occu": 1}], "abc": [0.86408207, 0.39231605, 0.02466725], "xyz": [8.01259501549892, 3.5933682512045504, 1.29933301274325], "label": "Si", "properties": {}}, {"species": [{"element": "Si", "occu": 1}], "abc": [0.6565497, 0.17595652, 0.09894879999999999], "xyz": [6.0881564799132, 1.61165104654892, 5.212070352849599], "label": "Si", "properties": {}}, {"species": [{"element": "Si", "occu": 1}], "abc": [0.15644391, 0.39101284, 0.09893869999999999], "xyz": [1.45069749389796, 3.5814316673236397, 5.211538341237899], "label": "Si", "properties": {}}, {"species": [{"element": "Si", "occu": 1}], "abc": [0.36476878, 0.17534069, 0.0246908], "xyz": [3.3824848471136804, 1.60601043110599, 1.3005734952635999], "label": "Si", "properties": {}}, {"species": [{"element": "Si", "occu": 1}], "abc": [0.3428362, 0.89368667, 0.1513082], "xyz": [3.1791049978072, 8.185607768284571, 7.9700712223194], "label": "Si", "properties": {}}, {"species": [{"element": "Si", "occu": 1}], "abc": [0.13308308, 0.67349391, 0.22287693], "xyz": [1.23407354518448, 6.168780587930611, 11.739912350499809], "label": "Si", "properties": {}}, {"species": [{"element": "Si", "occu": 1}], "abc": [0.63342491, 0.89398514, 0.22283818], "xyz": [5.873721319733961, 8.18834156574694, 11.737871216841059], "label": "Si", "properties": {}}, {"species": [{"element": "Si", "occu": 1}], "abc": [0.8426791, 0.6729705, 0.15130414], "xyz": [7.8141262164196, 6.163986481555501, 7.96985736418638], "label": "Si", "properties": {}}, {"species": [{"element": "Si", "occu": 1}], "abc": [0.82051298, 0.39058212, 0.27523983], "xyz": [7.60858076096888, 3.5774865430465197, 14.49809758042911], "label": "Si", "properties": {}}, {"species": [{"element": "Si", "occu": 1}], "abc": [0.61182566, 0.17460514, 0.34954575], "xyz": [5.673432424850961, 1.59927325576694, 18.41211859607775], "label": "Si", "properties": {}}, {"species": [{"element": "Si", "occu": 1}], "abc": [0.11199075, 0.39211974, 0.34948492999999997], "xyz": [1.038485297157, 3.59157017508354, 18.408914938035807], "label": "Si", "properties": {}}, {"species": [{"element": "Si", "occu": 1}], "abc": [0.32068695, 0.17592631, 0.27521529], "xyz": [2.9737159771242005, 1.61137434195101, 14.49680495023593], "label": "Si", "properties": {}}, {"species": [{"element": "P", "occu": 1}], "abc": [0.51383717, 0.74570554, 0.057893030000000005], "xyz": [4.76478946857452, 6.83019369761534, 3.04948160361351], "label": "P", "properties": {}}, {"species": [{"element": "P", "occu": 1}], "abc": [0.01364916, 0.82175142, 0.05791026], "xyz": [0.12656806011696, 7.52672612555682, 3.0503891838184196], "label": "P", "properties": {}}, {"species": [{"element": "P", "occu": 1}], "abc": [0.98798432, 0.24195752, 0.18705175], "xyz": [9.161535128049922, 2.2161786919199202, 9.85284188007975], "label": "P", "properties": {}}, {"species": [{"element": "P", "occu": 1}], "abc": [0.48783278, 0.3252872, 0.18705844], "xyz": [4.52365190429768, 2.9794261463512, 9.85319427192948], "label": "P", "properties": {}}, {"species": [{"element": "P", "occu": 1}], "abc": [0.46291389, 0.74488827, 0.31622149], "xyz": [4.2925801337588405, 6.8227080184781705, 16.65678262862133], "label": "P", "properties": {}}, {"species": [{"element": "P", "occu": 1}], "abc": [0.96291145, 0.82123235, 0.31621192], "xyz": [8.929035507746201, 7.5219717708518505, 16.65627853445064], "label": "P", "properties": {}}, {"species": [{"element": "O", "occu": 1}], "abc": [0.77269802, 0.44573052, 0.050610180000000005], "xyz": [7.16519474074712, 4.08261119870292, 2.66586172576506], "label": "O", "properties": {}}, {"species": [{"element": "O", "occu": 1}], "abc": [0.75843603, 0.09895724, 0.07640037], "xyz": [7.032943935004681, 0.90638607429604, 4.0243449483342895], "label": "O", "properties": {}}, {"species": [{"element": "O", "occu": 1}], "abc": [0.25840515, 0.4675954, 0.07633996], "xyz": [2.3961795861234, 4.2828797464934, 4.02116288680332], "label": "O", "properties": {}}, {"species": [{"element": "O", "occu": 1}], "abc": [0.27349407, 0.12168848, 0.050651680000000004], "xyz": [2.53609847737092, 1.11458993474608, 2.66804771407056], "label": "O", "properties": {}}, {"species": [{"element": "O", "occu": 1}], "abc": [0.12206467, 0.72992513, 0.04205078], "xyz": [1.13190031406452, 6.68565506789323, 2.21500032089526], "label": "O", "properties": {}}, {"species": [{"element": "O", "occu": 1}], "abc": [0.40724899, 0.84214334, 0.07318218], "xyz": [3.77640196531444, 7.71350328623914, 3.85482866628906], "label": "O", "properties": {}}, {"species": [{"element": "O", "occu": 1}], "abc": [0.90678432, 0.72519167, 0.07310493], "xyz": [8.40857110084992, 6.64229955163957, 3.85075956757581], "label": "O", "properties": {}}, {"species": [{"element": "O", "occu": 1}], "abc": [0.6221785, 0.83757503, 0.042003940000000003], "xyz": [5.7694338546460004, 7.67166044010613, 2.21253305120298], "label": "O", "properties": {}}, {"species": [{"element": "O", "occu": 1}], "abc": [0.43003634, 0.64445419, 0.03905624], "xyz": [3.9877080592210405, 5.902795018714491, 2.0572646722120798], "label": "O", "properties": {}}, {"species": [{"element": "O", "occu": 1}], "abc": [0.09185069, 0.91990495, 0.07779245], "xyz": [0.85172740693964, 8.42575072178645, 4.09767195075165], "label": "O", "properties": {}}, {"species": [{"element": "O", "occu": 1}], "abc": [0.59211323, 0.64735891, 0.07772926], "xyz": [5.490639928807881, 5.92940042684561, 4.09434345434142], "label": "O", "properties": {}}, {"species": [{"element": "O", "occu": 1}], "abc": [0.93025244, 0.92325352, 0.03904942], "xyz": [8.62618994501264, 8.45642151673592, 2.05690543268814], "label": "O", "properties": {}}, {"species": [{"element": "O", "occu": 1}], "abc": [0.03942736, 0.41837901, 0.03277102], "xyz": [0.36560817447616006, 3.83208857120271, 1.7261943729953397], "label": "O", "properties": {}}, {"species": [{"element": "O", "occu": 1}], "abc": [0.48885308, 0.14178707, 0.09181455], "xyz": [4.5331131013044805, 1.2986803771329698, 4.83627789336735], "label": "O", "properties": {}}, {"species": [{"element": "O", "occu": 1}], "abc": [0.98882334, 0.42536181, 0.09175204999999999], "xyz": [9.169315323593041, 3.89604662702151, 4.8329857423048495], "label": "O", "properties": {}}, {"species": [{"element": "O", "occu": 1}], "abc": [0.53997741, 0.14970927, 0.03281924], "xyz": [5.0071867639239604, 1.37124274606917, 1.72873433338308], "label": "O", "properties": {}}, {"species": [{"element": "O", "occu": 1}], "abc": [0.34996343, 0.3595582, 0.025548710000000002], "xyz": [3.2451954879990805, 3.2933269498922, 1.34576340435207], "label": "O", "properties": {}}, {"species": [{"element": "O", "occu": 1}], "abc": [0.17438475, 0.2129141, 0.09949097999999999], "xyz": [1.6170621138210002, 1.9501592330311, 5.240629368258659], "label": "O", "properties": {}}, {"species": [{"element": "O", "occu": 1}], "abc": [0.67457339, 0.3540697, 0.0994023], "xyz": [6.2552893642408405, 3.2430557421587, 5.2359582009591], "label": "O", "properties": {}}, {"species": [{"element": "O", "occu": 1}], "abc": [0.85016461, 0.2079773, 0.025545570000000004], "xyz": [7.88353902128716, 1.9049412502783, 1.3455980066826903], "label": "O", "properties": {}}, {"species": [{"element": "O", "occu": 1}], "abc": [0.81196481, 0.47406755, 9.99999999999994e-05], "xyz": [7.529313956678361, 4.34216056951105, 0.005267441699999968], "label": "O", "properties": {}}, {"species": [{"element": "O", "occu": 1}], "abc": [0.31305706, 0.09308588, 0.00014751], "xyz": [2.9029643428693603, 0.8526081097814799, 0.00777000325167], "label": "O", "properties": {}}, {"species": [{"element": "O", "occu": 1}], "abc": [0.24221733, 0.97276062, 0.17309409], "xyz": [2.24607064352748, 8.90987541277002, 9.11763027689553], "label": "O", "properties": {}}, {"species": [{"element": "O", "occu": 1}], "abc": [0.23345457, 0.59427918, 0.20106253], "xyz": [2.16481395560892, 5.44322348719578, 10.590851548295008], "label": "O", "properties": {}}, {"species": [{"element": "O", "occu": 1}], "abc": [0.73420251, 0.97317298, 0.20108399], "xyz": [6.808227570319561, 8.91365237099558, 10.591981941283828], "label": "O", "properties": {}}, {"species": [{"element": "O", "occu": 1}], "abc": [0.74209307, 0.59395522, 0.17309426], "xyz": [6.881396386014921, 5.4402562173666205, 9.11763923154642], "label": "O", "properties": {}}, {"species": [{"element": "O", "occu": 1}], "abc": [0.59911317, 0.2306018, 0.17270822], "xyz": [5.55555006443052, 2.1121674394678, 9.09730479960774], "label": "O", "properties": {}}, {"species": [{"element": "O", "occu": 1}], "abc": [0.87639513, 0.33638633, 0.20137418999999998], "xyz": [8.126773479104282, 3.08108719579843, 10.607268057097228], "label": "O", "properties": {}}, {"species": [{"element": "O", "occu": 1}], "abc": [0.37594478, 0.23110619, 0.20136479], "xyz": [3.48611940336968, 2.11678733460649, 10.606772917577429], "label": "O", "properties": {}}, {"species": [{"element": "O", "occu": 1}], "abc": [0.09951665, 0.33630439, 0.17268412], "xyz": [0.9228135167174001, 3.08033667693869, 9.09603534615804], "label": "O", "properties": {}}, {"species": [{"element": "O", "occu": 1}], "abc": [0.91321804, 0.14265973, 0.1670894], "xyz": [8.46823070332624, 1.30667339382983, 8.8013367318798], "label": "O", "properties": {}}, {"species": [{"element": "O", "occu": 1}], "abc": [0.56286437, 0.42404182, 0.20707453], "xyz": [5.219416536977721, 3.8839563488952202, 10.90753014329901], "label": "O", "properties": {}}, {"species": [{"element": "O", "occu": 1}], "abc": [0.06288544, 0.1429962, 0.20704609999999998], "xyz": [0.5831339181606401, 1.3097552473901999, 10.906032609623699], "label": "O", "properties": {}}, {"species": [{"element": "O", "occu": 1}], "abc": [0.41342958, 0.42485804, 0.16710264], "xyz": [3.8337143044384803, 3.89143241069284, 8.80203414116088], "label": "O", "properties": {}}, {"species": [{"element": "O", "occu": 1}], "abc": [0.51351753, 0.9249969, 0.15793917], "xyz": [4.76182546091868, 8.4723897809499, 8.31935370121389], "label": "O", "properties": {}}, {"species": [{"element": "O", "occu": 1}], "abc": [0.96237806, 0.64232622, 0.21624325], "xyz": [8.924089405745361, 5.88330415200762, 11.39048712393525], "label": "O", "properties": {}}, {"species": [{"element": "O", "occu": 1}], "abc": [0.46282973, 0.92542102, 0.21613118], "xyz": [4.291799721781881, 8.476274453378421, 11.38458390202206], "label": "O", "properties": {}}, {"species": [{"element": "O", "occu": 1}], "abc": [0.013392, 0.64197371, 0.15792557999999998], "xyz": [0.124183426752, 5.88007538213641, 8.318637855886859], "label": "O", "properties": {}}, {"species": [{"element": "O", "occu": 1}], "abc": [0.82611268, 0.85233316, 0.15176798], "xyz": [7.660506532682081, 7.806835628042361, 7.9942898657676595], "label": "O", "properties": {}}, {"species": [{"element": "O", "occu": 1}], "abc": [0.64968021, 0.7146195, 0.22239905999999998], "xyz": [6.02445600140076, 6.5454651243345, 11.714740826848018], "label": "O", "properties": {}}, {"species": [{"element": "O", "occu": 1}], "abc": [0.14968368, 0.85281048, 0.22243842], "xyz": [1.3880101785580803, 7.81120757900808, 11.71681409190114], "label": "O", "properties": {}}, {"species": [{"element": "O", "occu": 1}], "abc": [0.32637134, 0.7144382, 0.15175907], "xyz": [3.0264270754810405, 6.5438045303722, 7.99382053671219], "label": "O", "properties": {}}, {"species": [{"element": "O", "occu": 1}], "abc": [0.7108691, 0.10269308, 0.12531952999999998], "xyz": [6.591857886059601, 0.9406040188526801, 6.601133181464009], "label": "O", "properties": {}}, {"species": [{"element": "O", "occu": 1}], "abc": [0.2945906, 0.95187716, 0.12318356999999999], "xyz": [2.7317256718136, 8.71859605486636, 6.48862273372869], "label": "O", "properties": {}}, {"species": [{"element": "O", "occu": 1}], "abc": [0.7942139, 0.61496143, 0.12318573999999999], "xyz": [7.364710549288401, 5.63265988806053, 6.488737037213579], "label": "O", "properties": {}}, {"species": [{"element": "O", "occu": 1}], "abc": [0.21091524, 0.46479077, 0.12526375], "xyz": [1.9558077402494403, 4.25719109980567, 6.598195002483751], "label": "O", "properties": {}}, {"species": [{"element": "O", "occu": 1}], "abc": [0.71864614, 0.4677899, 0.29776992], "xyz": [6.663974035789841, 4.2846612441528995, 15.68485693613664], "label": "O", "properties": {}}, {"species": [{"element": "O", "occu": 1}], "abc": [0.70345631, 0.12006263, 0.32366932], "xyz": [6.52311941055236, 1.0996981714057301, 17.049092731786438], "label": "O", "properties": {}}, {"species": [{"element": "O", "occu": 1}], "abc": [0.20338765, 0.44608225, 0.32357712], "xyz": [1.8860047293934001, 4.085832824264751, 17.04423615053904], "label": "O", "properties": {}}, {"species": [{"element": "O", "occu": 1}], "abc": [0.21850276, 0.0991327, 0.2977528], "xyz": [2.02616647935856, 0.9079931775317001, 15.6839551501176], "label": "O", "properties": {}}, {"species": [{"element": "O", "occu": 1}], "abc": [0.06983375, 0.7248417, 0.30100034], "xyz": [0.647565291065, 6.6390940465707, 15.855017426301778], "label": "O", "properties": {}}, {"species": [{"element": "O", "occu": 1}], "abc": [0.35431053, 0.83709798, 0.33198524], "xyz": [3.2855059550266805, 7.66729096217058, 17.48712896960508], "label": "O", "properties": {}}, {"species": [{"element": "O", "occu": 1}], "abc": [0.85434932, 0.72944348, 0.33205854], "xyz": [7.9223436529899205, 6.681243456851081, 17.49099000437118], "label": "O", "properties": {}}, {"species": [{"element": "O", "occu": 1}], "abc": [0.57024871, 0.84101166, 0.30103723], "xyz": [5.28789119688676, 7.7031378092658604, 15.85696058554491], "label": "O", "properties": {}}, {"species": [{"element": "O", "occu": 1}], "abc": [0.38500646, 0.64677674, 0.29630467], "xyz": [3.57014796329576, 5.92406811583054, 15.60767574662739], "label": "O", "properties": {}}, {"species": [{"element": "O", "occu": 1}], "abc": [0.04615516, 0.92278766, 0.33508279], "xyz": [0.42799476785296003, 8.45215453216186, 17.65029060998343], "label": "O", "properties": {}}, {"species": [{"element": "O", "occu": 1}], "abc": [0.54586264, 0.64350281, 0.33515721], "xyz": [5.06176024276384, 5.89408097633251, 17.65421064009657], "label": "O", "properties": {}}, {"species": [{"element": "O", "occu": 1}], "abc": [0.88497616, 0.91940485, 0.29630008], "xyz": [8.20634499272896, 8.42117012034935, 15.60743397105336], "label": "O", "properties": {}}, {"species": [{"element": "O", "occu": 1}], "abc": [0.98820654, 0.42486267, 0.28234134], "xyz": [9.163595764332241, 3.89147481858057, 14.87216547949878], "label": "O", "properties": {}}, {"species": [{"element": "O", "occu": 1}], "abc": [0.43664688, 0.14886826, 0.34137023], "xyz": [4.04900730577728, 1.3635396234644601, 17.98147784640591], "label": "O", "properties": {}}, {"species": [{"element": "O", "occu": 1}], "abc": [0.93661172, 0.41751775, 0.34135729], "xyz": [8.685159268644322, 3.82419997133525, 17.98079623944993], "label": "O", "properties": {}}, {"species": [{"element": "O", "occu": 1}], "abc": [0.4881009, 0.14117084, 0.28240571999999997], "xyz": [4.5261381692604, 1.29303609794164, 14.875556658465237], "label": "O", "properties": {}}, {"species": [{"element": "O", "occu": 1}], "abc": [0.30290014, 0.35413138, 0.27479587], "xyz": [2.80877967061384, 3.24362069216198, 14.47471224625779], "label": "O", "properties": {}}, {"species": [{"element": "O", "occu": 1}], "abc": [0.12670595, 0.20787281, 0.34854824], "xyz": [1.1749386992882003, 1.9039841876025099, 18.35957533837608], "label": "O", "properties": {}}, {"species": [{"element": "O", "occu": 1}], "abc": [0.62661342, 0.35881244, 0.3485552], "xyz": [5.81055867266952, 3.2864962573752403, 18.3599419523184], "label": "O", "properties": {}}, {"species": [{"element": "O", "occu": 1}], "abc": [0.80230934, 0.2124796, 0.27485782999999997], "xyz": [7.43977920820904, 1.9461794863316, 14.477975953135108], "label": "O", "properties": {}}, {"species": [{"element": "O", "occu": 1}], "abc": [0.18171024, 0.61501671, 0.25096613], "xyz": [1.68499106026944, 5.633166218089411, 13.21949458449621], "label": "O", "properties": {}}, {"species": [{"element": "O", "occu": 1}], "abc": [0.76592176, 0.46359231, 0.24884604], "xyz": [7.102358779922561, 4.24621396003701, 13.10782007975868], "label": "O", "properties": {}}, {"species": [{"element": "O", "occu": 1}], "abc": [0.26594918, 0.10307313, 0.24883133000000002], "xyz": [2.46613504437608, 0.94408503780123, 13.107045239084611], "label": "O", "properties": {}}, {"species": [{"element": "O", "occu": 1}], "abc": [0.68182254, 0.95214311, 0.25095449999999997], "xyz": [6.32251041322824, 8.72103198958381, 13.218881981026499], "label": "O", "properties": {}}, {"species": [{"element": "O", "occu": 1}], "abc": [0.66328731, 0.09325917, 0.37420111], "xyz": [6.15063404098836, 0.8541953371820701, 19.71082531000287], "label": "O", "properties": {}}, {"species": [{"element": "O", "occu": 1}], "abc": [0.16346485, 0.47392657, 0.37408944], "xyz": [1.5158023615966, 4.34086928138747, 19.70494315785648], "label": "O", "properties": {}}]}, "formula": "(Na3Zr2Si2PO12)6.0", "bandgap": 3.3015, "slab_thickness": 19.705557868302872}