{"miller": "110_0.06", "final_energy": -903.12187261, "gamma": 0.053458931226181707, "work_function": "Not calculated", "ionization_potentail": "Not calculated", "electron_affinity": "Not calculated", "is_stochiometric": true, "incar_parameters": {"SYSTEM": "unknown system", "LCOMPAT": false, "PREC": "normal", "ENMAX": 520.0, "ENAUG": 605.392, "EDIFF": 1e-05, "IALGO": 38, "IWAVPR": 11, "NBANDS": 468, "NBANDSLOW": -1, "NBANDSHIGH": -1, "NELECT": 780.0, "TURBO": 0, "IRESTART": 0, "NREBOOT": 0, "NMIN": 0, "EREF": 0.0, "ISMEAR": 0, "SIGMA": 0.05, "KSPACING": 0.5, "KGAMMA": true, "KBLOWUP": true, "LREAL": true, "ROPT": [-0.0005, -0.0005, -0.0005, -0.0005, -0.0005], "LMAXPAW": -100, "LMAXMIX": 4, "NLSPLINE": false, "ISTART": 0, "ICHARG": 2, "INIWAV": 1, "ISPIN": 1, "LNONCOLLINEAR": false, "MAGMOM": [0.6, 0.6, 0.6, 0.6, 0.6, 0.6, 0.6, 0.6, 0.6, 0.6, 0.6, 0.6, 0.6, 0.6, 0.6, 0.6, 0.6, 0.6, 0.6, 0.6, 0.6, 0.6, 0.6, 0.6, 0.6, 0.6, 0.6, 0.6, 0.6, 0.6, 0.6, 0.6, 0.6, 0.6, 0.6, 0.6, 0.6, 0.6, 0.6, 0.6, 0.6, 0.6, 0.6, 0.6, 0.6, 0.6, 0.6, 0.6, 0.6, 0.6, 0.6, 0.6, 0.6, 0.6, 0.6, 0.6, 0.6, 0.6, 0.6, 0.6, 0.6, 0.6, 0.6, 0.6, 0.6, 0.6, 0.6, 0.6, 0.6, 0.6, 0.6, 0.6, 0.6, 0.6, 0.6, 0.6, 0.6, 0.6, 0.6, 0.6, 0.6, 0.6, 0.6, 0.6, 0.6, 0.6, 0.6, 0.6, 0.6, 0.6, 0.6, 0.6, 0.6, 0.6, 0.6, 0.6, 0.6, 0.6, 0.6, 0.6, 0.6, 0.6, 0.6, 0.6, 0.6, 0.6, 0.6, 0.6, 0.6, 0.6, 0.6, 0.6, 0.6, 0.6, 0.6, 0.6, 0.6, 0.6, 0.6, 0.6], "NUPDOWN": -1.0, "LSORBIT": false, "SAXIS": [0.0, 0.0, 1.0], "LSPIRAL": false, "QSPIRAL": [0.0, 0.0, 0.0], "LZEROZ": false, "LASPH": false, "LMETAGGA": false, "NELM": 100, "NELMDL": -5, "NELMIN": 6, "ENINI": 520.0, "LDIAG": true, "LSUBROT": false, "WEIMIN": 0.001, "EBREAK": 1e-08, "DEPER": 0.3, "NRMM": 4, "TIME": 0.4, "AMIX": 0.4, "BMIX": 1.0, "AMIN": 0.1, "AMIX_MAG": 1.6, "BMIX_MAG": 1.0, "IMIX": 4, "MIXFIRST": false, "MAXMIX": -45, "WC": 100.0, "INIMIX": 1, "MIXPRE": 1, "MREMOVE": 5, "LDIPOL": false, "LMONO": false, "IDIPOL": 0, "EPSILON": 1.0, "DIPOL": [-100.0, -100.0, -100.0], "EFIELD": 0.0, "NGX": 54, "NGY": 54, "NGZ": 294, "NGXF": 108, "NGYF": 108, "NGZF": 588, "ADDGRID": false, "NSW": 150, "IBRION": 2, "MDALGO": 0, "ISIF": 2, "PSTRESS": 0.0, "EDIFFG": -0.01, "NFREE": 1, "POTIM": 0.5, "SMASS": -3.0, "SCALEE": 1.0, "TEBEG": 0.0001, "TEEND": 0.0001, "NBLOCK": 1, "KBLOCK": 150, "NPACO": 256, "APACO": 10.0, "ISYM": 0, "SYMPREC": 1e-05, "LORBIT": 11, "RWIGS": [-1.0, -1.0, -1.0, -1.0, -1.0], "NEDOS": 301, "EMIN": 10.0, "EMAX": -10.0, "EFERMI": 0.0, "NWRITE": 2, "LWAVE": false, "LDOWNSAMPLE": false, "LCHARG": false, "LPARD": false, "LVTOT": false, "LVHAR": false, "LELF": false, "LOPTICS": false, "STM": [0.0, 0.0, 0.0, 0.0, 0.0, 0.0, 0.0], "NPAR": 2, "NSIM": 4, "NBLK": -1, "LPLANE": true, "LSCALAPACK": true, "LSCAAWARE": false, "LSCALU": false, "LASYNC": false, "LORBITALREAL": false, "IDIOT": 3, "PHON_NSTRUCT": -1, "LMUSIC": false, "POMASS": [22.99, 91.224, 28.085, 30.974, 16.0], "DARWINR": [0.0, 0.0, 0.0, 0.0, 0.0], "DARWINV": [1.0, 1.0, 1.0, 1.0, 1.0], "LCORR": true, "GGA_COMPAT": true, "LBERRY": false, "ICORELEVEL": 0, "LDAU": false, "I_CONSTRAINED_M": 0, "GGA": "--", "VOSKOWN": 0, "LHFCALC": false, "PRECFOCK": "", "LSYMGRAD": false, "LHFONE": false, "LRHFCALC": false, "LTHOMAS": false, "LMODELHF": false, "LFOCKACE": false, "ENCUT4O": -1.0, "EXXOEP": 0, "FOURORBIT": 0, "AEXX": 0.0, "HFALPHA": 0.0, "MCALPHA": 0.0, "ALDAX": 1.0, "AGGAX": 1.0, "ALDAC": 1.0, "AGGAC": 1.0, "NKREDX": 1, "NKREDY": 1, "NKREDZ": 1, "SHIFTRED": false, "ODDONLY": false, "EVENONLY": false, "LMAXFOCK": 0, "NMAXFOCKAE": 0, "LFOCKAEDFT": false, "HFSCREEN": 0.0, "HFSCREENC": 0.0, "NBANDSGWLOW": 0, "LUSE_VDW": false, "Zab_VDW": -0.8491, "PARAM1": 0.1234, "PARAM2": 1.0, "PARAM3": 0.0, "MODEL_GW": 0, "MODEL_EPS0": 22.36936168, "MODEL_ALPHA": 1.0, "LEPSILON": false, "LRPA": false, "LNABLA": false, "LVEL": false, "CSHIFT": 0.1, "OMEGAMAX": -1.0, "DEG_THRESHOLD": 0.002, "RTIME": -0.1, "WPLASMAI": 0.0, "DFIELD": [0.0, 0.0, 0.0], "WPLASMA": [0.0, 0.0, 0.0, 0.0, 0.0, 0.0, 0.0, 0.0, 0.0], "NUCIND": false, "MAGPOS": [0.0, 0.0, 0.0], "LNICSALL": true, "ORBITALMAG": false, "LMAGBLOCH": false, "LCHIMAG": false, "LGAUGE": true, "MAGATOM": 0, "MAGDIPOL": [0.0, 0.0, 0.0], "AVECCONST": [0.0, 0.0, 0.0], "LFINITE_TEMPERATURE": false, "LADDER": false, "LRPAFORCE": false, "LFXC": false, "LHARTREE": true, "IBSE": 0, "KPOINT": [-1, 0, 0, 0], "LTCTC": false, "LTCTE": false, "LTETE": false, "LTRIPLET": false, "LFXCEPS": false, "LFXHEG": false, "NATURALO": 2, "LHOLEGF": false, "L2ORDER": false, "LDMP1": false, "LMP2LT": false, "LSMP2LT": false, "LGWLF": false, "ENCUTGW": -2.0, "ENCUTGWSOFT": -2.0, "ENCUTLF": -1.0, "LESF_SPLINES": false, "LMAXMP2": -1, "SCISSOR": 0.0, "NOMEGA": 0, "NOMEGAR": 0, "NBANDSGW": -1, "NBANDSO": -1, "NBANDSV": -1, "NELMGW": 1, "NELMHF": 1, "DIM": 3, "IESPILON": 4, "ANTIRES": 0, "OMEGAMIN": -30.0, "OMEGATL": -200.0, "OMEGAGRID": 0, "LSELFENERGY": false, "LSPECTRAL": false, "LSPECTRALGW": false, "LSINGLES": false, "LFERMIGW": false, "ODDONLYGW": false, "EVENONLYGW": false, "NKREDLFX": 1, "NKREDLFY": 1, "NKREDLFZ": 1, "MAXMEM": 2800, "TELESCOPE": 0, "NTAUPAR": -1, "NOMEGAPAR": -1, "DAMP_NEWTON": 0.80000001, "LAMBDA": 1.0, "OFIELD_KAPPA": 0.0, "OFIELD_K": [0.0, 0.0, 0.0], "OFIELD_Q6_NEAR": 0.0, "OFIELD_Q6_FAR": 0.0, "OFIELD_A": 0.0, "KPOINTS_OPT_MODE": 1, "LKPOINTS_OPT": false, "@module": "pymatgen.io.vasp.inputs", "@class": "Incar"}, "relaxed_structures": {"@module": "pymatgen.core.structure", "@class": "Structure", "charge": 0, "lattice": {"matrix": [[9.272956, 0.0, 0.0], [0.0, 9.159371, 0.0], [0.0, 0.0, 52.674417]], "a": 9.272956, "b": 9.159371, "c": 52.674417, "alpha": 90.0, "beta": 90.0, "gamma": 90.0, "volume": 4473.8723351768485}, "sites": [{"species": [{"element": "Na", "occu": 1}], "abc": [0.80626917, 0.79640743, 0.008934480000000009], "xyz": [7.4764985375665205, 7.29459111852653, 0.47061852519816044], "label": "Na", "properties": {}}, {"species": [{"element": "Na", "occu": 1}], "abc": [0.3060937, 0.1466184, 0.008903090000000002], "xyz": [2.8383934119772003, 1.3429323210264001, 0.4689650752485301], "label": "Na", "properties": {}}, {"species": [{"element": "Na", "occu": 1}], "abc": [0.70141908, 0.56809357, 0.05996321], "xyz": [6.50422826640048, 5.203379770344471, 3.15852712819857], "label": "Na", "properties": {}}, {"species": [{"element": "Na", "occu": 1}], "abc": [0.20155915, 0.37522045, 0.05996328000000001], "xyz": [1.8690491293474, 3.43678330833695, 3.1585308154077603], "label": "Na", "properties": {}}, {"species": [{"element": "Na", "occu": 1}], "abc": [0.32595062, 0.33691932, 0.14205127], "xyz": [3.0225257574327205, 3.08596904894772, 7.48246783135959], "label": "Na", "properties": {}}, {"species": [{"element": "Na", "occu": 1}], "abc": [0.03554108, 0.08999656, 0.10690242999999999], "xyz": [0.32957087103248006, 0.82431188176376, 5.63102317613331], "label": "Na", "properties": {}}, {"species": [{"element": "Na", "occu": 1}], "abc": [0.53573748, 0.85281002, 0.10692386000000001], "xyz": [4.96787007959088, 7.81120336569742, 5.63215198888962], "label": "Na", "properties": {}}, {"species": [{"element": "Na", "occu": 1}], "abc": [0.82624865, 0.60581252, 0.14208827000000002], "xyz": [7.661767376509401, 5.54886162712492, 7.484416784788591], "label": "Na", "properties": {}}, {"species": [{"element": "Na", "occu": 1}], "abc": [0.16516315, 0.0776252, 0.18702649], "xyz": [1.5315506227714002, 0.7109980057492, 9.85151132430633], "label": "Na", "properties": {}}, {"species": [{"element": "Na", "occu": 1}], "abc": [0.66510129, 0.86531364, 0.18705021], "xyz": [6.16745499771324, 7.92572866012044, 9.852760761477569], "label": "Na", "properties": {}}, {"species": [{"element": "Na", "occu": 1}], "abc": [0.79494494, 0.85351655, 0.2671834], "xyz": [7.371489451042641, 7.8176747360900505, 14.0737298270778], "label": "Na", "properties": {}}, {"species": [{"element": "Na", "occu": 1}], "abc": [0.50515375, 0.60640923, 0.23196135], "xyz": [4.684268496985, 5.55432711539433, 12.21842887778295], "label": "Na", "properties": {}}, {"species": [{"element": "Na", "occu": 1}], "abc": [0.0050282, 0.33668804, 0.23192829999999998], "xyz": [0.046626277359200004, 3.0838506696228403, 12.216687988301098], "label": "Na", "properties": {}}, {"species": [{"element": "Na", "occu": 1}], "abc": [0.29487176, 0.08955777, 0.26719559], "xyz": [2.73433285612256, 0.82029284136267, 14.074371928221028], "label": "Na", "properties": {}}, {"species": [{"element": "Na", "occu": 1}], "abc": [0.62904652, 0.56782626, 0.31402971], "xyz": [5.833120701913121, 5.20093137888246, 16.54133189492907], "label": "Na", "properties": {}}, {"species": [{"element": "Na", "occu": 1}], "abc": [0.12917493, 0.37527847, 0.31399781], "xyz": [1.19783344219308, 3.43731473504237, 16.539651581026767], "label": "Na", "properties": {}}, {"species": [{"element": "Na", "occu": 1}], "abc": [0.02469174, 0.14724963, 0.36513847], "xyz": [0.22896541858344002, 1.34871399078273, 19.23345603152199], "label": "Na", "properties": {}}, {"species": [{"element": "Na", "occu": 1}], "abc": [0.5241213, 0.7964121, 0.36510631], "xyz": [4.8601537535628, 7.2946338927891, 19.23176202227127], "label": "Na", "properties": {}}, {"species": [{"element": "Zr", "occu": 1}], "abc": [0.40139765, 0.70260426, 0.0400199], "xyz": [3.7221427469534003, 6.4354130835204595, 2.1080249008983], "label": "Zr", "properties": {}}, {"species": [{"element": "Zr", "occu": 1}], "abc": [0.90140507, 0.24053433, 0.040049810000000005], "xyz": [8.35868955228692, 2.20314316670643, 2.10960039271077], "label": "Zr", "properties": {}}, {"species": [{"element": "Zr", "occu": 1}], "abc": [0.87764185, 0.21703003, 0.16220519], "xyz": [8.1383342588086, 1.98785856291113, 8.54406381762423], "label": "Zr", "properties": {}}, {"species": [{"element": "Zr", "occu": 1}], "abc": [0.47845907, 0.22560051, 0.08594757], "xyz": [4.43672990391092, 2.06635876887921, 4.52723814231669], "label": "Zr", "properties": {}}, {"species": [{"element": "Zr", "occu": 1}], "abc": [0.97857865, 0.71719282, 0.08592789], "xyz": [9.074316763989401, 6.569035116916219, 4.5262015097901305], "label": "Zr", "properties": {}}, {"species": [{"element": "Zr", "occu": 1}], "abc": [0.3777438, 0.72588706, 0.16221527], "xyz": [3.5028016366728005, 6.6486688866392605, 8.544594775747589], "label": "Zr", "properties": {}}, {"species": [{"element": "Zr", "occu": 1}], "abc": [0.35187056, 0.71719805, 0.28815006], "xyz": [3.26288022057536, 6.56908302042655, 15.178136419015019], "label": "Zr", "properties": {}}, {"species": [{"element": "Zr", "occu": 1}], "abc": [0.95289917, 0.72588019, 0.21182176000000003], "xyz": [8.83619207584652, 6.648605961760491, 11.157587715913921], "label": "Zr", "properties": {}}, {"species": [{"element": "Zr", "occu": 1}], "abc": [0.45273827, 0.21715816, 0.2118488], "xyz": [4.19822205722612, 1.98903215311736, 11.1590120321496], "label": "Zr", "properties": {}}, {"species": [{"element": "Zr", "occu": 1}], "abc": [0.85189423, 0.22589234, 0.28812796], "xyz": [7.8995777114438805, 2.06903174811814, 15.17697231439932], "label": "Zr", "properties": {}}, {"species": [{"element": "Zr", "occu": 1}], "abc": [0.42909667, 0.24057682, 0.33410077], "xyz": [3.9789945406565206, 2.20353234838022, 17.598563279001088], "label": "Zr", "properties": {}}, {"species": [{"element": "Zr", "occu": 1}], "abc": [0.92902886, 0.70255946, 0.33405754], "xyz": [8.61484374151016, 6.43500274369966, 17.59628616395418], "label": "Zr", "properties": {}}, {"species": [{"element": "Si", "occu": 1}], "abc": [0.04247981, 0.5801723, 0.02469898000000001], "xyz": [0.39391340901836003, 5.3140133396233, 1.3010043719946605], "label": "Si", "properties": {}}, {"species": [{"element": "Si", "occu": 1}], "abc": [0.5426059, 0.36277524, 0.02471727], "xyz": [5.0315606360404, 3.32279301277404, 1.30196778708159], "label": "Si", "properties": {}}, {"species": [{"element": "Si", "occu": 1}], "abc": [0.51997206, 0.08185912, 0.15127802], "xyz": [4.82167803360936, 0.7497780498135199, 7.9684815084143406], "label": "Si", "properties": {}}, {"species": [{"element": "Si", "occu": 1}], "abc": [0.8335499, 0.36403491, 0.09892574000000001], "xyz": [7.7294715465044, 3.33433079764161, 5.21085568079358], "label": "Si", "properties": {}}, {"species": [{"element": "Si", "occu": 1}], "abc": [0.33363665, 0.57907221, 0.09889513999999999], "xyz": [3.0937979754374, 5.30393720717991, 5.209243843633379], "label": "Si", "properties": {}}, {"species": [{"element": "Si", "occu": 1}], "abc": [0.02010328, 0.86098125, 0.15128704], "xyz": [0.18641683089568004, 7.886046692793751, 7.96895663165568], "label": "Si", "properties": {}}, {"species": [{"element": "Si", "occu": 1}], "abc": [0.99663012, 0.57904142, 0.27510598], "xyz": [9.24170725103472, 5.30365519014682, 14.49104710971366], "label": "Si", "properties": {}}, {"species": [{"element": "Si", "occu": 1}], "abc": [0.31077893, 0.86113943, 0.2227927], "xyz": [2.8818393436170804, 7.88749552209853, 11.7354755843559], "label": "Si", "properties": {}}, {"species": [{"element": "Si", "occu": 1}], "abc": [0.8105642, 0.08186117, 0.22278336999999998], "xyz": [7.5163261617752, 0.74979682652407, 11.73498413204529], "label": "Si", "properties": {}}, {"species": [{"element": "Si", "occu": 1}], "abc": [0.49659695, 0.36403037, 0.275139], "xyz": [4.6049216670842, 3.33428921409727, 14.492786418963], "label": "Si", "properties": {}}, {"species": [{"element": "Si", "occu": 1}], "abc": [0.78805218, 0.36320461, 0.34941316], "xyz": [7.307573190844081, 3.32672577190031, 18.40513449512772], "label": "Si", "properties": {}}, {"species": [{"element": "Si", "occu": 1}], "abc": [0.28773446, 0.57975781, 0.34943692], "xyz": [2.6681489872637605, 5.31021687193751, 18.406386039275638], "label": "Si", "properties": {}}, {"species": [{"element": "P", "occu": 1}], "abc": [0.69132479, 0.93325438, 0.05799751], "xyz": [6.4106243593792405, 8.54802310379498, 3.05498502670167], "label": "P", "properties": {}}, {"species": [{"element": "P", "occu": 1}], "abc": [0.19136533, 0.00964706, 0.057975040000000005], "xyz": [1.77452228501548, 0.08836100159926001, 3.0538014325516802], "label": "P", "properties": {}}, {"species": [{"element": "P", "occu": 1}], "abc": [0.16525883, 0.42977491, 0.18697804], "xyz": [1.53243785920148, 3.93646784718161, 9.84895924880268], "label": "P", "properties": {}}, {"species": [{"element": "P", "occu": 1}], "abc": [0.665118, 0.51314098, 0.18702181], "xyz": [6.167609948808001, 4.70004861112358, 9.85126480803477], "label": "P", "properties": {}}, {"species": [{"element": "P", "occu": 1}], "abc": [0.63903025, 0.93352891, 0.31616721], "xyz": [5.925699390919001, 8.550537625915611, 16.65392346126657], "label": "P", "properties": {}}, {"species": [{"element": "P", "occu": 1}], "abc": [0.13901481, 0.00953893, 0.31616641], "xyz": [1.28907821647836, 0.08737059881303, 16.65388132173297], "label": "P", "properties": {}}, {"species": [{"element": "O", "occu": 1}], "abc": [0.95088462, 0.63410853, 0.05057727000000001], "xyz": [8.817511242336721, 5.8080352805346305, 2.6641282107015902], "label": "O", "properties": {}}, {"species": [{"element": "O", "occu": 1}], "abc": [0.45111847, 0.30866719, 0.05060036], "xyz": [4.18320172309732, 2.8271973087374898, 2.6653444629901197], "label": "O", "properties": {}}, {"species": [{"element": "O", "occu": 1}], "abc": [0.2997617, 0.91778721, 0.042105329999999996], "xyz": [2.7796770545852003, 8.40635355544491, 2.2178737103426096], "label": "O", "properties": {}}, {"species": [{"element": "O", "occu": 1}], "abc": [0.79960598, 0.02543332, 0.04216335], "xyz": [7.414711069876881, 0.23295321364172, 2.22092988001695], "label": "O", "properties": {}}, {"species": [{"element": "O", "occu": 1}], "abc": [0.60820033, 0.83183084, 0.03910208], "xyz": [5.63981489927548, 7.61904727280164, 2.05967926748736], "label": "O", "properties": {}}, {"species": [{"element": "O", "occu": 1}], "abc": [0.10804788, 0.11107482, 0.03910665000000001], "xyz": [1.00192323713328, 1.01737548513822, 2.0599199895730504], "label": "O", "properties": {}}, {"species": [{"element": "O", "occu": 1}], "abc": [0.2178033, 0.60595041, 0.03280274], "xyz": [2.0196804175548, 5.550124612792111, 1.7278652055025798], "label": "O", "properties": {}}, {"species": [{"element": "O", "occu": 1}], "abc": [0.71792491, 0.33739079, 0.03282572], "xyz": [6.657286101733961, 3.09028741759309, 1.72907566360524], "label": "O", "properties": {}}, {"species": [{"element": "O", "occu": 1}], "abc": [0.52781439, 0.54694959, 0.02564329], "xyz": [4.89439961463684, 5.00971421310789, 1.3507453507119298], "label": "O", "properties": {}}, {"species": [{"element": "O", "occu": 1}], "abc": [0.02808554, 0.39593662, 0.02565249], "xyz": [0.26043597665624, 3.62653039506602, 1.35122995534833], "label": "O", "properties": {}}, {"species": [{"element": "O", "occu": 1}], "abc": [0.99084353, 0.66194297, 0.00010000000000000286], "xyz": [9.18804845657468, 6.06298124307187, 0.005267441700000151], "label": "O", "properties": {}}, {"species": [{"element": "O", "occu": 1}], "abc": [0.49100812, 0.28076672, 0.00013795999999999947], "xyz": [4.55309669240272, 2.57164655293312, 0.007266962569319972], "label": "O", "properties": {}}, {"species": [{"element": "O", "occu": 1}], "abc": [0.4194157, 0.16071296, 0.1730877], "xyz": [3.8892233318092004, 1.47202962514816, 9.1172936873709], "label": "O", "properties": {}}, {"species": [{"element": "O", "occu": 1}], "abc": [0.93568295, 0.28694085, 0.07642749000000001], "xyz": [8.676546825300202, 2.6281977002053503, 4.02577347852333], "label": "O", "properties": {}}, {"species": [{"element": "O", "occu": 1}], "abc": [0.43577649, 0.65626243, 0.07640021], "xyz": [4.0409362176044406, 6.010951069731529, 4.024336520427569], "label": "O", "properties": {}}, {"species": [{"element": "O", "occu": 1}], "abc": [0.91932988, 0.78197634, 0.17305184], "xyz": [8.52490552672528, 7.16241141128214, 9.115404782777281], "label": "O", "properties": {}}, {"species": [{"element": "O", "occu": 1}], "abc": [0.77672168, 0.4186442, 0.17269435], "xyz": [7.202505962886081, 3.8345175447982003, 9.09657420544395], "label": "O", "properties": {}}, {"species": [{"element": "O", "occu": 1}], "abc": [0.58427338, 0.02923826, 0.07325903], "xyz": [5.41794134471128, 0.26780407073446, 3.85887669523551], "label": "O", "properties": {}}, {"species": [{"element": "O", "occu": 1}], "abc": [0.08463727, 0.91322563, 0.07322449], "xyz": [0.78483768067012, 8.36457235187873, 3.85705732087233], "label": "O", "properties": {}}, {"species": [{"element": "O", "occu": 1}], "abc": [0.2767756, 0.52424294, 0.17263196], "xyz": [2.5665279606736005, 4.801735581590741, 9.09328784856732], "label": "O", "properties": {}}, {"species": [{"element": "O", "occu": 1}], "abc": [0.09057053, 0.33039869, 0.16701563], "xyz": [0.83985653958668, 3.02624417962399, 8.79745094013771], "label": "O", "properties": {}}, {"species": [{"element": "O", "occu": 1}], "abc": [0.26939128, 0.10797238, 0.07784537999999999], "xyz": [2.49805348622368, 0.9889590861729801, 4.100460007643459], "label": "O", "properties": {}}, {"species": [{"element": "O", "occu": 1}], "abc": [0.76950077, 0.83494124, 0.0778526], "xyz": [7.13554678217612, 7.647536580360041, 4.1008403169342], "label": "O", "properties": {}}, {"species": [{"element": "O", "occu": 1}], "abc": [0.59032005, 0.61228037, 0.16704608], "xyz": [5.4740118495678, 5.6081030648472705, 8.79905487613536], "label": "O", "properties": {}}, {"species": [{"element": "O", "occu": 1}], "abc": [0.69071748, 0.11280632, 0.15789727], "xyz": [6.404992800470881, 1.03323493602472, 8.31714664314159], "label": "O", "properties": {}}, {"species": [{"element": "O", "occu": 1}], "abc": [0.66604054, 0.32947195, 0.09180847], "xyz": [6.17616462163624, 3.01775582414345, 4.83595763291199], "label": "O", "properties": {}}, {"species": [{"element": "O", "occu": 1}], "abc": [0.16610212, 0.61297877, 0.09168247000000002], "xyz": [1.54025765026672, 5.614499969553671, 4.82932065636999], "label": "O", "properties": {}}, {"species": [{"element": "O", "occu": 1}], "abc": [0.1907619, 0.83015525, 0.15797204], "xyz": [1.7689267051764002, 7.60369992234775, 8.32108510930068], "label": "O", "properties": {}}, {"species": [{"element": "O", "occu": 1}], "abc": [0.00335482, 0.04027981, 0.15165611], "xyz": [0.031109098247920002, 0.36893772359951, 7.988397178737871], "label": "O", "properties": {}}, {"species": [{"element": "O", "occu": 1}], "abc": [0.351874, 0.40096227, 0.09933795000000001], "xyz": [3.2629121195440005, 3.67256218793217, 5.23256860222515], "label": "O", "properties": {}}, {"species": [{"element": "O", "occu": 1}], "abc": [0.85158853, 0.54214326, 0.0993436], "xyz": [7.896742968794681, 4.96569125348946, 5.2328662126812], "label": "O", "properties": {}}, {"species": [{"element": "O", "occu": 1}], "abc": [0.50347223, 0.9025235, 0.15166957], "xyz": [4.66867583601188, 8.266547572718501, 7.98910617639069], "label": "O", "properties": {}}, {"species": [{"element": "O", "occu": 1}], "abc": [0.88824447, 0.29103139, 0.12530365000000002], "xyz": [8.23665188755332, 2.6656644736556903, 6.60029671172205], "label": "O", "properties": {}}, {"species": [{"element": "O", "occu": 1}], "abc": [0.47153422, 0.14047341, 0.12320903999999999], "xyz": [4.37251607455432, 1.28664807782511, 6.48996435112968], "label": "O", "properties": {}}, {"species": [{"element": "O", "occu": 1}], "abc": [0.97207809, 0.80221921, 0.12319603000000001], "xyz": [9.014037357134042, 7.347823367716909, 6.48927905696451], "label": "O", "properties": {}}, {"species": [{"element": "O", "occu": 1}], "abc": [0.38799858, 0.65239314, 0.12526145], "xyz": [3.59789376040248, 5.97551080711494, 6.598073851324649], "label": "O", "properties": {}}, {"species": [{"element": "O", "occu": 1}], "abc": [0.89475873, 0.6558065, 0.2976828], "xyz": [8.29705833390588, 6.0067750377115, 15.680267940927601], "label": "O", "properties": {}}, {"species": [{"element": "O", "occu": 1}], "abc": [0.41159857, 0.78237577, 0.20100164999999998], "xyz": [3.8167354292729203, 7.16606993884067, 10.587644729788048], "label": "O", "properties": {}}, {"species": [{"element": "O", "occu": 1}], "abc": [0.91126349, 0.16061232, 0.20098199], "xyz": [8.450106247176441, 1.47110782605072, 10.58660915074983], "label": "O", "properties": {}}, {"species": [{"element": "O", "occu": 1}], "abc": [0.39487009, 0.28728229, 0.29773394000000003], "xyz": [3.6616129702860403, 2.63132507583959, 15.68296171061298], "label": "O", "properties": {}}, {"species": [{"element": "O", "occu": 1}], "abc": [0.24585477, 0.91301262, 0.30095243], "xyz": [2.27980046460012, 8.36262131426202, 15.852493794983308], "label": "O", "properties": {}}, {"species": [{"element": "O", "occu": 1}], "abc": [0.05358818, 0.52416925, 0.20131027], "xyz": [0.49692083526008, 4.801060627541751, 10.60390110836259], "label": "O", "properties": {}}, {"species": [{"element": "O", "occu": 1}], "abc": [0.55353138, 0.41874857, 0.20137447000000003], "xyz": [5.132872131359281, 3.83547350834947, 10.607282805933991], "label": "O", "properties": {}}, {"species": [{"element": "O", "occu": 1}], "abc": [0.74564554, 0.03009332, 0.30091127], "xyz": [6.914338284016241, 0.27563588250172, 15.85032571597959], "label": "O", "properties": {}}, {"species": [{"element": "O", "occu": 1}], "abc": [0.56107834, 0.83500934, 0.29631157], "xyz": [5.20285475937304, 7.648160333525141, 15.60803920010469], "label": "O", "properties": {}}, {"species": [{"element": "O", "occu": 1}], "abc": [0.73997306, 0.6123044, 0.20698234], "xyz": [6.86173762656536, 5.6083231645324, 10.902674088795779], "label": "O", "properties": {}}, {"species": [{"element": "O", "occu": 1}], "abc": [0.24012808, 0.33077465, 0.20696556], "xyz": [2.2266971202044803, 3.0296877367451502, 10.901790212078518], "label": "O", "properties": {}}, {"species": [{"element": "O", "occu": 1}], "abc": [0.06120111, 0.10786568, 0.29626018], "xyz": [0.5675152001811601, 0.9879817812872801, 15.60533226181506], "label": "O", "properties": {}}, {"species": [{"element": "O", "occu": 1}], "abc": [0.16426564, 0.61361671, 0.28219963], "xyz": [1.52322805203184, 5.62034309868941, 14.864700987865708], "label": "O", "properties": {}}, {"species": [{"element": "O", "occu": 1}], "abc": [0.14010606, 0.82960816, 0.21614958], "xyz": [1.29919732971336, 7.59868892206736, 11.38555311129486], "label": "O", "properties": {}}, {"species": [{"element": "O", "occu": 1}], "abc": [0.63985687, 0.11314276, 0.21615847], "xyz": [5.93336460180772, 1.03631651480396, 11.386021386861989], "label": "O", "properties": {}}, {"species": [{"element": "O", "occu": 1}], "abc": [0.66431657, 0.32962013, 0.28220522], "xyz": [6.16017832368092, 3.0191130597382303, 14.864995437856738], "label": "O", "properties": {}}, {"species": [{"element": "O", "occu": 1}], "abc": [0.478787, 0.54217322, 0.27467734], "xyz": [4.4397707843720005, 4.96596566824462, 14.468468747610778], "label": "O", "properties": {}}, {"species": [{"element": "O", "occu": 1}], "abc": [0.82692765, 0.9024908, 0.22235423999999998], "xyz": [7.6680637136334004, 8.2662480612868, 11.712379959478078], "label": "O", "properties": {}}, {"species": [{"element": "O", "occu": 1}], "abc": [0.32673978, 0.04050578, 0.22234568], "xyz": [3.02984360338968, 0.37100746666438, 11.711929066468558], "label": "O", "properties": {}}, {"species": [{"element": "O", "occu": 1}], "abc": [0.97886876, 0.40088357, 0.27466348], "xyz": [9.077006941254561, 3.67184134543447, 14.467738680191161], "label": "O", "properties": {}}, {"species": [{"element": "O", "occu": 1}], "abc": [0.35924865, 0.80305807, 0.25090054], "xyz": [3.3312969245094, 7.35550679767397, 13.21603966948518], "label": "O", "properties": {}}, {"species": [{"element": "O", "occu": 1}], "abc": [0.9419588, 0.65217319, 0.24874792], "xyz": [8.7347425062128, 5.9734962034634895, 13.10265166596264], "label": "O", "properties": {}}, {"species": [{"element": "O", "occu": 1}], "abc": [0.4417898, 0.29066792, 0.24880518000000001], "xyz": [4.0966973766488, 2.66233531707832, 13.10566780308006], "label": "O", "properties": {}}, {"species": [{"element": "O", "occu": 1}], "abc": [0.85900753, 0.14001813, 0.25088728], "xyz": [7.9655390293586805, 1.2824779993962299, 13.21534120671576], "label": "O", "properties": {}}, {"species": [{"element": "O", "occu": 1}], "abc": [0.87936109, 0.30938178, 0.32347089], "xyz": [8.15427669568204, 2.83374250366038, 17.03864054722113], "label": "O", "properties": {}}, {"species": [{"element": "O", "occu": 1}], "abc": [0.37896096, 0.63338586, 0.32346503], "xyz": [3.5140883077977603, 5.80141607789406, 17.03833187513751], "label": "O", "properties": {}}, {"species": [{"element": "O", "occu": 1}], "abc": [0.53044044, 0.02535567, 0.33200537], "xyz": [4.918750860740641, 0.23224198848357, 17.48818930561929], "label": "O", "properties": {}}, {"species": [{"element": "O", "occu": 1}], "abc": [0.03031409, 0.91773435, 0.33198005], "xyz": [0.28110122275004, 8.40586939109385, 17.486855589380852], "label": "O", "properties": {}}, {"species": [{"element": "O", "occu": 1}], "abc": [0.2223279, 0.11089907, 0.33504627], "xyz": [2.0616368342724, 1.0157657256849701, 17.648366940274588], "label": "O", "properties": {}}, {"species": [{"element": "O", "occu": 1}], "abc": [0.72250128, 0.83230326, 0.33504618], "xyz": [6.699722579383681, 7.62337434284946, 17.64836219957706], "label": "O", "properties": {}}, {"species": [{"element": "O", "occu": 1}], "abc": [0.61264279, 0.33745538, 0.34131769], "xyz": [5.68100963538724, 3.0908790213659803, 17.97871033253673], "label": "O", "properties": {}}, {"species": [{"element": "O", "occu": 1}], "abc": [0.11246257, 0.60563873, 0.34133475], "xyz": [1.04286046325692, 5.547269820038831, 17.97960895809075], "label": "O", "properties": {}}, {"species": [{"element": "O", "occu": 1}], "abc": [0.30210303, 0.39549074, 0.34855227], "xyz": [2.80138810465668, 3.62244641472454, 18.359787616276588], "label": "O", "properties": {}}, {"species": [{"element": "O", "occu": 1}], "abc": [0.80231412, 0.5474286, 0.34848899], "xyz": [7.43982353293872, 5.0141016434106005, 18.35645437916883], "label": "O", "properties": {}}, {"species": [{"element": "O", "occu": 1}], "abc": [0.83988023, 0.28130989, 0.3739834], "xyz": [7.78817241805988, 2.57662164847919, 19.6993575626778], "label": "O", "properties": {}}, {"species": [{"element": "O", "occu": 1}], "abc": [0.33977489, 0.66177677, 0.373985], "xyz": [3.15071760487484, 6.06145895561167, 19.699441841745], "label": "O", "properties": {}}]}, "formula": "(Na3Zr2Si2PO12)6.0", "bandgap": 3.3031, "slab_thickness": 19.694174400045}