{"miller": "110_0.32", "final_energy": -930.32869025, "gamma": 0.054477032789722546, "work_function": "Not calculated", "ionization_potentail": "Not calculated", "electron_affinity": "Not calculated", "is_stochiometric": false, "incar_parameters": {"SYSTEM": "unknown system", "LCOMPAT": false, "PREC": "normal", "ENMAX": 520.0, "ENAUG": 605.392, "EDIFF": 1e-05, "IALGO": 38, "IWAVPR": 11, "NBANDS": 672, "NBANDSLOW": -1, "NBANDSHIGH": -1, "NELECT": 820.0, "TURBO": 0, "IRESTART": 0, "NREBOOT": 0, "NMIN": 0, "EREF": 0.0, "ISMEAR": 0, "SIGMA": 0.05, "KSPACING": 0.5, "KGAMMA": true, "KBLOWUP": true, "LREAL": true, "ROPT": [-0.0005, -0.0005, -0.0005, -0.0005, -0.0005], "LMAXPAW": -100, "LMAXMIX": 4, "NLSPLINE": false, "ISTART": 0, "ICHARG": 2, "INIWAV": 1, "ISPIN": 1, "LNONCOLLINEAR": false, "MAGMOM": [0.6, 0.6, 0.6, 0.6, 0.6, 0.6, 0.6, 0.6, 0.6, 0.6, 0.6, 0.6, 0.6, 0.6, 0.6, 0.6, 0.6, 0.6, 0.6, 0.6, 0.6, 0.6, 0.6, 0.6, 0.6, 0.6, 0.6, 0.6, 0.6, 0.6, 0.6, 0.6, 0.6, 0.6, 0.6, 0.6, 0.6, 0.6, 0.6, 0.6, 0.6, 0.6, 0.6, 0.6, 0.6, 0.6, 0.6, 0.6, 0.6, 0.6, 0.6, 0.6, 0.6, 0.6, 0.6, 0.6, 0.6, 0.6, 0.6, 0.6, 0.6, 0.6, 0.6, 0.6, 0.6, 0.6, 0.6, 0.6, 0.6, 0.6, 0.6, 0.6, 0.6, 0.6, 0.6, 0.6, 0.6, 0.6, 0.6, 0.6, 0.6, 0.6, 0.6, 0.6, 0.6, 0.6, 0.6, 0.6, 0.6, 0.6, 0.6, 0.6, 0.6, 0.6, 0.6, 0.6, 0.6, 0.6, 0.6, 0.6, 0.6, 0.6, 0.6, 0.6, 0.6, 0.6, 0.6, 0.6, 0.6, 0.6, 0.6, 0.6, 0.6, 0.6, 0.6, 0.6, 0.6, 0.6, 0.6, 0.6, 0.6, 0.6, 0.6, 0.6, 0.6, 0.6], "NUPDOWN": -1.0, "LSORBIT": false, "SAXIS": [0.0, 0.0, 1.0], "LSPIRAL": false, "QSPIRAL": [0.0, 0.0, 0.0], "LZEROZ": false, "LASPH": false, "LMETAGGA": false, "NELM": 100, "NELMDL": -5, "NELMIN": 6, "ENINI": 520.0, "LDIAG": true, "LSUBROT": false, "WEIMIN": 0.001, "EBREAK": 0.0, "DEPER": 0.3, "NRMM": 4, "TIME": 0.4, "AMIX": 0.4, "BMIX": 1.0, "AMIN": 0.1, "AMIX_MAG": 1.6, "BMIX_MAG": 1.0, "IMIX": 4, "MIXFIRST": false, "MAXMIX": -45, "WC": 100.0, "INIMIX": 1, "MIXPRE": 1, "MREMOVE": 5, "LDIPOL": false, "LMONO": false, "IDIPOL": 0, "EPSILON": 1.0, "DIPOL": [-100.0, -100.0, -100.0], "EFIELD": 0.0, "NGX": 54, "NGY": 54, "NGZ": 256, "NGXF": 108, "NGYF": 108, "NGZF": 512, "ADDGRID": false, "NSW": 150, "IBRION": 2, "MDALGO": 0, "ISIF": 2, "PSTRESS": 0.0, "EDIFFG": -0.01, "NFREE": 1, "POTIM": 0.5, "SMASS": -3.0, "SCALEE": 1.0, "TEBEG": 0.0001, "TEEND": 0.0001, "NBLOCK": 1, "KBLOCK": 150, "NPACO": 256, "APACO": 10.0, "ISYM": 0, "SYMPREC": 1e-05, "LORBIT": 11, "RWIGS": [-1.0, -1.0, -1.0, -1.0, -1.0], "NEDOS": 301, "EMIN": 10.0, "EMAX": -10.0, "EFERMI": 0.0, "NWRITE": 2, "LWAVE": false, "LDOWNSAMPLE": false, "LCHARG": false, "LPARD": false, "LVTOT": false, "LVHAR": false, "LELF": false, "LOPTICS": false, "STM": [0.0, 0.0, 0.0, 0.0, 0.0, 0.0, 0.0], "NPAR": 224, "NSIM": 4, "NBLK": -1, "LPLANE": true, "LSCALAPACK": true, "LSCAAWARE": true, "LSCALU": false, "LASYNC": false, "LORBITALREAL": false, "IDIOT": 3, "PHON_NSTRUCT": -1, "LMUSIC": false, "POMASS": [22.99, 91.224, 28.085, 30.974, 16.0], "DARWINR": [0.0, 0.0, 0.0, 0.0, 0.0], "DARWINV": [1.0, 1.0, 1.0, 1.0, 1.0], "LCORR": true, "GGA_COMPAT": true, "LBERRY": false, "ICORELEVEL": 0, "LDAU": false, "I_CONSTRAINED_M": 0, "GGA": "--", "VOSKOWN": 0, "LHFCALC": false, "PRECFOCK": "", "LSYMGRAD": false, "LHFONE": false, "LRHFCALC": false, "LTHOMAS": false, "LMODELHF": false, "LFOCKACE": false, "ENCUT4O": -1.0, "EXXOEP": 0, "FOURORBIT": 0, "AEXX": 0.0, "HFALPHA": 0.0, "MCALPHA": 0.0, "ALDAX": 1.0, "AGGAX": 1.0, "ALDAC": 1.0, "AGGAC": 1.0, "NKREDX": 1, "NKREDY": 1, "NKREDZ": 1, "SHIFTRED": false, "ODDONLY": false, "EVENONLY": false, "LMAXFOCK": 0, "NMAXFOCKAE": 0, "LFOCKAEDFT": false, "HFSCREEN": 0.0, "HFSCREENC": 0.0, "NBANDSGWLOW": 0, "LUSE_VDW": false, "Zab_VDW": -0.8491, "PARAM1": 0.1234, "PARAM2": 1.0, "PARAM3": 0.0, "MODEL_GW": 0, "MODEL_EPS0": 17.85536402, "MODEL_ALPHA": 1.0, "LEPSILON": false, "LRPA": false, "LNABLA": false, "LVEL": false, "CSHIFT": 0.1, "OMEGAMAX": -1.0, "DEG_THRESHOLD": 0.002, "RTIME": -0.1, "WPLASMAI": 0.0, "DFIELD": [0.0, 0.0, 0.0], "WPLASMA": [0.0, 0.0, 0.0, 0.0, 0.0, 0.0, 0.0, 0.0, 0.0], "NUCIND": false, "MAGPOS": [0.0, 0.0, 0.0], "LNICSALL": true, "ORBITALMAG": false, "LMAGBLOCH": false, "LCHIMAG": false, "LGAUGE": true, "MAGATOM": 0, "MAGDIPOL": [0.0, 0.0, 0.0], "AVECCONST": [0.0, 0.0, 0.0], "LFINITE_TEMPERATURE": false, "LADDER": false, "LRPAFORCE": false, "LFXC": false, "LHARTREE": true, "IBSE": 0, "KPOINT": [-1, 0, 0, 0], "LTCTC": false, "LTCTE": false, "LTETE": false, "LTRIPLET": false, "LFXCEPS": false, "LFXHEG": false, "NATURALO": 2, "LHOLEGF": false, "L2ORDER": false, "LDMP1": false, "LMP2LT": false, "LSMP2LT": false, "LGWLF": false, "ENCUTGW": -2.0, "ENCUTGWSOFT": -2.0, "ENCUTLF": -1.0, "LESF_SPLINES": false, "LMAXMP2": -1, "SCISSOR": 0.0, "NOMEGA": 0, "NOMEGAR": 0, "NBANDSGW": -1, "NBANDSO": -1, "NBANDSV": -1, "NELMGW": 1, "NELMHF": 1, "DIM": 3, "IESPILON": 4, "ANTIRES": 0, "OMEGAMIN": -30.0, "OMEGATL": -200.0, "OMEGAGRID": 0, "LSELFENERGY": false, "LSPECTRAL": false, "LSPECTRALGW": false, "LSINGLES": false, "LFERMIGW": false, "ODDONLYGW": false, "EVENONLYGW": false, "NKREDLFX": 1, "NKREDLFY": 1, "NKREDLFZ": 1, "MAXMEM": 2800, "TELESCOPE": 0, "NTAUPAR": -1, "NOMEGAPAR": -1, "DAMP_NEWTON": 0.80000001, "LAMBDA": 1.0, "OFIELD_KAPPA": 0.0, "OFIELD_K": [0.0, 0.0, 0.0], "OFIELD_Q6_NEAR": 0.0, "OFIELD_Q6_FAR": 0.0, "OFIELD_A": 0.0, "KPOINTS_OPT_MODE": 1, "LKPOINTS_OPT": false, "@module": "pymatgen.io.vasp.inputs", "@class": "Incar"}, "relaxed_structures": {"@module": "pymatgen.core.structure", "@class": "Structure", "charge": 0, "lattice": {"matrix": [[9.075143, 0.0, 0.0], [0.0, 9.068488, 0.0], [0.0, 0.0, 45.561671]], "a": 9.075143, "b": 9.068488, "c": 45.561671, "alpha": 90.0, "beta": 90.0, "gamma": 90.0, "volume": 3749.626444607032}, "sites": [{"species": [{"element": "Na", "occu": 1}], "abc": [0.80408395, 0.77466981, 0.011355259999999999], "xyz": [7.29717683025485, 7.0250838759472805, 0.51736462023946], "label": "Na", "properties": {}}, {"species": [{"element": "Na", "occu": 1}], "abc": [0.63050388, 0.39093973, 9.99999999999994e-05], "xyz": [5.7219128730548405, 3.54523225022824, 0.004556167099999972], "label": "Na", "properties": {}}, {"species": [{"element": "Na", "occu": 1}], "abc": [0.06152276, 0.13177774, 0.0038918699999999987], "xyz": [0.5583278447546801, 1.19502485385712, 0.17732010051476993], "label": "Na", "properties": {}}, {"species": [{"element": "Na", "occu": 1}], "abc": [0.35747889, 0.92948323, 0.03075009], "xyz": [3.24417204623127, 8.42900751745624, 1.40102548380039], "label": "Na", "properties": {}}, {"species": [{"element": "Na", "occu": 1}], "abc": [0.57554199, 0.42022356, 0.07616825999999999], "xyz": [5.2231258617545695, 3.81079231117728, 3.470353202762459], "label": "Na", "properties": {}}, {"species": [{"element": "Na", "occu": 1}], "abc": [0.05011761, 0.23489739, 0.07850921], "xyz": [0.45482447756823, 2.13016416244632, 3.5770107964899096], "label": "Na", "properties": {}}, {"species": [{"element": "Na", "occu": 1}], "abc": [0.20357456, 0.20137783, 0.17081636], "xyz": [1.84746824316208, 1.82619243482104, 7.782678795737559], "label": "Na", "properties": {}}, {"species": [{"element": "Na", "occu": 1}], "abc": [0.91079061, 0.96096215, 0.12822282000000002], "xyz": [8.26555502880723, 8.7144737257292, 5.842045939532221], "label": "Na", "properties": {}}, {"species": [{"element": "Na", "occu": 1}], "abc": [0.41716928, 0.72715993, 0.13008083], "xyz": [3.78587087120704, 6.59424109928584, 5.92669997986693], "label": "Na", "properties": {}}, {"species": [{"element": "Na", "occu": 1}], "abc": [0.70605984, 0.46729047, 0.16907244000000002], "xyz": [6.40759401455712, 4.237618019709361, 7.70322288644724], "label": "Na", "properties": {}}, {"species": [{"element": "Na", "occu": 1}], "abc": [0.05178409, 0.93937637, 0.22259342000000001], "xyz": [0.46994802187487, 8.51872333882856, 10.14172816880482], "label": "Na", "properties": {}}, {"species": [{"element": "Na", "occu": 1}], "abc": [0.55166023, 0.73954746, 0.22264920000000002], "xyz": [5.00639547466289, 6.706577266440481, 10.1442695988132], "label": "Na", "properties": {}}, {"species": [{"element": "Na", "occu": 1}], "abc": [0.68612617, 0.72658077, 0.31498864], "xyz": [6.22669310879231, 6.58898899377576, 14.351408784417439], "label": "Na", "properties": {}}, {"species": [{"element": "Na", "occu": 1}], "abc": [0.39722372, 0.46731824, 0.27608913], "xyz": [3.6048620619919602, 4.23786985162112, 12.57908210773623], "label": "Na", "properties": {}}, {"species": [{"element": "Na", "occu": 1}], "abc": [0.89984749, 0.2019225, 0.27424312], "xyz": [8.16624464994107, 1.8311317681800001, 12.49497480745352], "label": "Na", "properties": {}}, {"species": [{"element": "Na", "occu": 1}], "abc": [0.19217868, 0.96106335, 0.31698346], "xyz": [1.74404900255124, 8.7153914567148, 14.442296116961659], "label": "Na", "properties": {}}, {"species": [{"element": "Na", "occu": 1}], "abc": [0.52748735, 0.42024195, 0.36913251], "xyz": [4.787023131941051, 3.8109590806716, 16.81829397602421], "label": "Na", "properties": {}}, {"species": [{"element": "Na", "occu": 1}], "abc": [0.05299736, 0.23485587, 0.36670282], "xyz": [0.48095862062248, 2.1297876388245602, 16.70759323961222], "label": "Na", "properties": {}}, {"species": [{"element": "Na", "occu": 1}], "abc": [0.04207554, 0.13112119, 0.44128373], "xyz": [0.38184154230222006, 1.18907093806072, 20.10562412391283], "label": "Na", "properties": {}}, {"species": [{"element": "Na", "occu": 1}], "abc": [0.74456165, 0.92917185, 0.41443929], "xyz": [6.7570034460659505, 8.426183771662801, 18.88254658045359], "label": "Na", "properties": {}}, {"species": [{"element": "Na", "occu": 1}], "abc": [0.29901667, 0.77460311, 0.43365123], "xyz": [2.71361903963381, 7.02447900779768, 19.75787467000533], "label": "Na", "properties": {}}, {"species": [{"element": "Na", "occu": 1}], "abc": [0.47259971, 0.39048678, 0.44519879], "xyz": [4.28890995000853, 3.54112467858864, 20.284000799578088], "label": "Na", "properties": {}}, {"species": [{"element": "Zr", "occu": 1}], "abc": [0.27524726, 0.57091776, 0.052754], "xyz": [2.49790824485818, 5.177360855546881, 2.403560391934], "label": "Zr", "properties": {}}, {"species": [{"element": "Zr", "occu": 1}], "abc": [0.35591467, 0.09857202, 0.10648432999999999], "xyz": [3.22997652604781, 0.89389918050576, 4.851604010115429], "label": "Zr", "properties": {}}, {"species": [{"element": "Zr", "occu": 1}], "abc": [0.85366213, 0.58806412, 0.10520684999999999], "xyz": [7.747105903434591, 5.33285241545056, 4.793399886646349], "label": "Zr", "properties": {}}, {"species": [{"element": "Zr", "occu": 1}], "abc": [0.77617389, 0.09445327, 0.04143765], "xyz": [7.043889044616271, 0.8565483455557601, 1.88796857631315], "label": "Zr", "properties": {}}, {"species": [{"element": "Zr", "occu": 1}], "abc": [0.76661704, 0.08772132, 0.19278638], "xyz": [6.95715926423672, 0.79549973776416, 8.78366961884098], "label": "Zr", "properties": {}}, {"species": [{"element": "Zr", "occu": 1}], "abc": [0.83785798, 0.59435068, 0.251407], "xyz": [7.603680982191141, 5.38986200937184, 11.454523021097], "label": "Zr", "properties": {}}, {"species": [{"element": "Zr", "occu": 1}], "abc": [0.33712537, 0.08790194, 0.25241563], "xyz": [3.05946094167791, 0.79713768806672, 11.500477889317729], "label": "Zr", "properties": {}}, {"species": [{"element": "Zr", "occu": 1}], "abc": [0.26589093, 0.59423637, 0.19370397], "xyz": [2.4129982121529903, 5.3888253905085595, 8.82547655253387], "label": "Zr", "properties": {}}, {"species": [{"element": "Zr", "occu": 1}], "abc": [0.24942512, 0.5879035, 0.33990558], "xyz": [2.26356863179216, 5.331395834908, 15.486666207024179], "label": "Zr", "properties": {}}, {"species": [{"element": "Zr", "occu": 1}], "abc": [0.32747156, 0.09456731, 0.40371135], "xyz": [2.97185123543308, 0.8575825159272801, 18.39376370766585], "label": "Zr", "properties": {}}, {"species": [{"element": "Zr", "occu": 1}], "abc": [0.82789818, 0.5708598, 0.3923801], "xyz": [7.513294372939741, 5.1768352459824, 17.8774930231471], "label": "Zr", "properties": {}}, {"species": [{"element": "Zr", "occu": 1}], "abc": [0.74747492, 0.09854845, 0.33867319], "xyz": [6.783441787913561, 0.8936854362436, 15.43051645930049], "label": "Zr", "properties": {}}, {"species": [{"element": "Si", "occu": 1}], "abc": [0.90659424, 0.46120121, 0.0335096], "xyz": [8.22747237097632, 4.18239763847048, 1.5267533705415999], "label": "Si", "properties": {}}, {"species": [{"element": "Si", "occu": 1}], "abc": [0.72268047, 0.22558698, 0.11782002], "xyz": [6.558428608557211, 2.04573282108624, 5.36807698845342], "label": "Si", "properties": {}}, {"species": [{"element": "Si", "occu": 1}], "abc": [0.21572686, 0.44732684, 0.12017704000000001], "xyz": [1.9577521034409802, 4.05657808061792, 5.47546675823384], "label": "Si", "properties": {}}, {"species": [{"element": "Si", "occu": 1}], "abc": [0.39484039, 0.23473214, 0.03317761], "xyz": [3.58323300142577, 2.1286655948043203, 1.51162735138631], "label": "Si", "properties": {}}, {"species": [{"element": "Si", "occu": 1}], "abc": [0.40325668, 0.95222395, 0.18169241], "xyz": [3.6596120367052403, 8.635231463887601, 8.27820980761711], "label": "Si", "properties": {}}, {"species": [{"element": "Si", "occu": 1}], "abc": [0.20239431, 0.72898982, 0.26427142000000003], "xyz": [1.83675730563633, 6.61083543479216, 12.04064749274282], "label": "Si", "properties": {}}, {"species": [{"element": "Si", "occu": 1}], "abc": [0.70053157, 0.95226315, 0.26353501], "xyz": [6.35742417376451, 8.635586948617199, 12.00709542260171], "label": "Si", "properties": {}}, {"species": [{"element": "Si", "occu": 1}], "abc": [0.90118483, 0.72874333, 0.18084532], "xyz": [8.178381201680692, 6.608600143185041, 8.23961497172972], "label": "Si", "properties": {}}, {"species": [{"element": "Si", "occu": 1}], "abc": [0.8875977, 0.44713116, 0.3249462], "xyz": [8.055076053971101, 4.05480355888608, 14.8050918571002], "label": "Si", "properties": {}}, {"species": [{"element": "Si", "occu": 1}], "abc": [0.70875863, 0.23481167, 0.41200901], "xyz": [6.43208591973409, 2.12938681165496, 18.771818962655708], "label": "Si", "properties": {}}, {"species": [{"element": "Si", "occu": 1}], "abc": [0.19677732, 0.46112145, 0.4116364], "xyz": [1.7857823181567603, 4.1816743358676, 18.754842228424398], "label": "Si", "properties": {}}, {"species": [{"element": "Si", "occu": 1}], "abc": [0.38043351, 0.22557629, 0.32737273], "xyz": [3.45248850524193, 2.04563587894952, 14.91564861863183], "label": "Si", "properties": {}}, {"species": [{"element": "P", "occu": 1}], "abc": [0.5655618, 0.79738097, 0.07288280999999999], "xyz": [5.132554210337401, 7.23103975787336, 3.3206626107755093], "label": "P", "properties": {}}, {"species": [{"element": "P", "occu": 1}], "abc": [0.07176731, 0.8843814, 0.07383379000000001], "xyz": [0.6512986009753301, 8.0200021133232, 3.3639908486630903], "label": "P", "properties": {}}, {"species": [{"element": "P", "occu": 1}], "abc": [0.05205711, 0.29856155, 0.22254803], "xyz": [0.47242571741673, 2.7075018334364, 10.13966012455813], "label": "P", "properties": {}}, {"species": [{"element": "P", "occu": 1}], "abc": [0.55200282, 0.38274054, 0.22261666], "xyz": [5.00950452790326, 3.47087799410352, 10.14278702203886], "label": "P", "properties": {}}, {"species": [{"element": "P", "occu": 1}], "abc": [0.53731933, 0.79729621, 0.37201684], "xyz": [4.8762497564141905, 7.23027111283048, 16.949708870539638], "label": "P", "properties": {}}, {"species": [{"element": "P", "occu": 1}], "abc": [0.03163276, 0.88419014, 0.37145958], "xyz": [0.28707182048468005, 8.01826767430832, 16.924319173758178], "label": "P", "properties": {}}, {"species": [{"element": "O", "occu": 1}], "abc": [0.82003164, 0.51388954, 0.06366706], "xyz": [7.44190439752452, 4.66020112681552, 2.90077764125726], "label": "O", "properties": {}}, {"species": [{"element": "O", "occu": 1}], "abc": [0.81775262, 0.14875316, 0.09181990000000001], "xyz": [7.421221965124661, 1.34896624642208, 4.1834680750529], "label": "O", "properties": {}}, {"species": [{"element": "O", "occu": 1}], "abc": [0.3251343, 0.51030901, 0.09334988999999999], "xyz": [2.9506402667049, 4.62773113347688, 4.2531769760661895], "label": "O", "properties": {}}, {"species": [{"element": "O", "occu": 1}], "abc": [0.32117499, 0.19005386, 0.06526786000000001], "xyz": [2.9147089622735702, 1.72350114876368, 2.9737127641940604], "label": "O", "properties": {}}, {"species": [{"element": "O", "occu": 1}], "abc": [0.18649862, 0.78796557, 0.05679488], "xyz": [1.69250164580266, 7.14565631595816, 2.58766963704448], "label": "O", "properties": {}}, {"species": [{"element": "O", "occu": 1}], "abc": [0.4561025, 0.90207416, 0.08880197000000001], "xyz": [4.139195410157501, 8.18044869507008, 4.04596614129187], "label": "O", "properties": {}}, {"species": [{"element": "O", "occu": 1}], "abc": [0.95765832, 0.78582366, 0.08971467], "xyz": [8.69088619913976, 7.1262324308260805, 4.08755027841357], "label": "O", "properties": {}}, {"species": [{"element": "O", "occu": 1}], "abc": [0.67767901, 0.88448864, 0.054662670000000003], "xyz": [6.15003392384843, 8.020974617976321, 2.49052258652157], "label": "O", "properties": {}}, {"species": [{"element": "O", "occu": 1}], "abc": [0.99984817, 0.9881116, 0.05145887], "xyz": [9.073765121038312, 8.9606781872608, 2.3445521049717697], "label": "O", "properties": {}}, {"species": [{"element": "O", "occu": 1}], "abc": [0.63431768, 0.69796299, 0.09683059], "xyz": [5.75652365342824, 6.32946899925912, 4.411763484315889], "label": "O", "properties": {}}, {"species": [{"element": "O", "occu": 1}], "abc": [0.14950183, 0.97501525, 0.09833136], "xyz": [1.3567504860116901, 8.841914094442, 4.48014107330256], "label": "O", "properties": {}}, {"species": [{"element": "O", "occu": 1}], "abc": [0.47508957, 0.70300501, 0.05020876], "xyz": [4.31150578555851, 6.375192497124881, 2.28759500443796], "label": "O", "properties": {}}, {"species": [{"element": "O", "occu": 1}], "abc": [0.08437228, 0.50233625, 0.03869516], "xyz": [0.76569050623604, 4.55543025509, 1.76301614921236], "label": "O", "properties": {}}, {"species": [{"element": "O", "occu": 1}], "abc": [0.54607437, 0.20212007, 0.11103472], "xyz": [4.95570299638491, 1.83292342935416, 5.05892738221712], "label": "O", "properties": {}}, {"species": [{"element": "O", "occu": 1}], "abc": [0.04997614, 0.48834699, 0.10935591], "xyz": [0.45354061708802007, 4.42856881865112, 4.982437993325609], "label": "O", "properties": {}}, {"species": [{"element": "O", "occu": 1}], "abc": [0.5759797, 0.20312506, 0.03570575], "xyz": [5.2270981425971, 1.84203716910928, 1.62681363430825], "label": "O", "properties": {}}, {"species": [{"element": "O", "occu": 1}], "abc": [0.39461887, 0.41999767, 0.02998717], "xyz": [3.5812226757484105, 3.80874383042296, 1.3662655737610698], "label": "O", "properties": {}}, {"species": [{"element": "O", "occu": 1}], "abc": [0.22352552, 0.26777356, 0.12255328000000001], "xyz": [2.0285260581493603, 2.42830131557728, 5.58373222333088], "label": "O", "properties": {}}, {"species": [{"element": "O", "occu": 1}], "abc": [0.7379101, 0.40742939, 0.11983875], "xyz": [6.696639678644301, 3.69476853406232, 5.460053700551249], "label": "O", "properties": {}}, {"species": [{"element": "O", "occu": 1}], "abc": [0.90563213, 0.27953217, 0.03344792], "xyz": [8.21874108514459, 2.5349341292589602, 1.5239431266743197], "label": "O", "properties": {}}, {"species": [{"element": "O", "occu": 1}], "abc": [0.83092899, 0.53271326, 0.0050589699999999994], "xyz": [7.54079940709557, 4.8309038057508795, 0.23049512673886996], "label": "O", "properties": {}}, {"species": [{"element": "O", "occu": 1}], "abc": [0.31391899, 0.14515931, 0.00751831], "xyz": [2.8488597246655702, 1.3163754608232803, 0.34254676669601], "label": "O", "properties": {}}, {"species": [{"element": "O", "occu": 1}], "abc": [0.81606449, 0.01973846, 0.003942009999999999], "xyz": [7.40590194397207, 0.17899798764848, 0.17960456269870995], "label": "O", "properties": {}}, {"species": [{"element": "O", "occu": 1}], "abc": [0.29895603, 0.02762954, 0.20695041], "xyz": [2.71306872296229, 0.25055815193552, 9.429006493735109], "label": "O", "properties": {}}, {"species": [{"element": "O", "occu": 1}], "abc": [0.30445457, 0.65372451, 0.23850348], "xyz": [2.76296875975351, 5.9282928742408805, 10.86661708811508], "label": "O", "properties": {}}, {"species": [{"element": "O", "occu": 1}], "abc": [0.80452916, 0.02761293, 0.23822111], "xyz": [7.301217174669881, 0.25040752434984004, 10.85375183907481], "label": "O", "properties": {}}, {"species": [{"element": "O", "occu": 1}], "abc": [0.79900133, 0.65372672, 0.20662004], "xyz": [7.25105132694019, 5.92831291559936, 9.41395428448684], "label": "O", "properties": {}}, {"species": [{"element": "O", "occu": 1}], "abc": [0.66795697, 0.2884622, 0.20660853], "xyz": [6.061805020596711, 2.6159159991536, 9.41342986965363], "label": "O", "properties": {}}, {"species": [{"element": "O", "occu": 1}], "abc": [0.93594512, 0.39255359, 0.23854467000000001], "xyz": [8.49383580415216, 3.5598675202719203, 10.86849377334357], "label": "O", "properties": {}}, {"species": [{"element": "O", "occu": 1}], "abc": [0.43615737, 0.28841754, 0.23864926000000003], "xyz": [3.95819050325391, 2.6155110004795197, 10.87325906851346], "label": "O", "properties": {}}, {"species": [{"element": "O", "occu": 1}], "abc": [0.16797877, 0.39223793, 0.20642935], "xyz": [1.52443135871411, 3.5570049613498402, 9.40526612944385], "label": "O", "properties": {}}, {"species": [{"element": "O", "occu": 1}], "abc": [0.48013773, 0.48152471, 0.19880424], "xyz": [4.35731855944539, 4.36670105433848, 9.057853376285038], "label": "O", "properties": {}}, {"species": [{"element": "O", "occu": 1}], "abc": [0.12382424, 0.20002437, 0.24635356000000003], "xyz": [1.12372268486632, 1.8139185990525601, 11.22427985039876], "label": "O", "properties": {}}, {"species": [{"element": "O", "occu": 1}], "abc": [0.62355107, 0.48178529, 0.24641677], "xyz": [5.658815128053011, 4.36906412094152, 11.22715980362267], "label": "O", "properties": {}}, {"species": [{"element": "O", "occu": 1}], "abc": [0.98031165, 0.19932916, 0.19883735], "xyz": [8.89646840831595, 1.8076140955100801, 9.05936192321185], "label": "O", "properties": {}}, {"species": [{"element": "O", "occu": 1}], "abc": [0.57621806, 0.98292915, 0.18965495000000002], "xyz": [5.22926129368258, 8.9136812016252, 8.64099643542145], "label": "O", "properties": {}}, {"species": [{"element": "O", "occu": 1}], "abc": [0.0295684, 0.69510771, 0.25621031], "xyz": [0.26833745828120004, 6.3035759268424805, 11.67336985102801], "label": "O", "properties": {}}, {"species": [{"element": "O", "occu": 1}], "abc": [0.52745138, 0.98306345, 0.25568259], "xyz": [4.786696699047341, 8.9148990995636, 11.64932604600789], "label": "O", "properties": {}}, {"species": [{"element": "O", "occu": 1}], "abc": [0.07399256, 0.69463876, 0.18886035], "xyz": [0.67149306293608, 6.29932325939488, 8.60479313164485], "label": "O", "properties": {}}, {"species": [{"element": "O", "occu": 1}], "abc": [0.8917278, 0.90965526, 0.18039926], "xyz": [8.0925573020754, 8.24919780944688, 8.219291732763459], "label": "O", "properties": {}}, {"species": [{"element": "O", "occu": 1}], "abc": [0.71314009, 0.77148715, 0.26409825000000003], "xyz": [6.471848295782871, 6.9962219619292005, 12.032757578175751], "label": "O", "properties": {}}, {"species": [{"element": "O", "occu": 1}], "abc": [0.21201138, 0.90980161, 0.26475925], "xyz": [1.92403359112734, 8.25052498266568, 12.062873842706749], "label": "O", "properties": {}}, {"species": [{"element": "O", "occu": 1}], "abc": [0.39053105, 0.77144922, 0.18106283], "xyz": [3.54412512469015, 6.99587799417936, 8.24952509078893], "label": "O", "properties": {}}, {"species": [{"element": "O", "occu": 1}], "abc": [0.76973073, 0.15892437, 0.15000544000000002], "xyz": [6.985416446244391, 1.44120374225256, 6.834498505490241], "label": "O", "properties": {}}, {"species": [{"element": "O", "occu": 1}], "abc": [0.35704766, 0.0118949, 0.14902105000000002], "xyz": [3.2402585723153803, 0.1078687579112, 6.789648052174551], "label": "O", "properties": {}}, {"species": [{"element": "O", "occu": 1}], "abc": [0.8499336, 0.6686921, 0.14853518000000002], "xyz": [7.7132689605048, 6.0640262845448, 6.76751100308578], "label": "O", "properties": {}}, {"species": [{"element": "O", "occu": 1}], "abc": [0.27122979, 0.52546725, 0.15010977], "xyz": [2.4614491301099704, 4.765193451018001, 6.83925195462567], "label": "O", "properties": {}}, {"species": [{"element": "O", "occu": 1}], "abc": [0.77824898, 0.51043463, 0.35175574], "xyz": [7.06272078310414, 4.62887031693944, 16.02657929824154], "label": "O", "properties": {}}, {"species": [{"element": "O", "occu": 1}], "abc": [0.78199775, 0.19067386, 0.37985919], "xyz": [7.096741406928251, 1.72912361132368, 17.30701944110649], "label": "O", "properties": {}}, {"species": [{"element": "O", "occu": 1}], "abc": [0.28325055, 0.51376238, 0.38146407], "xyz": [2.57053924607865, 4.65904797788144, 17.380140455660968], "label": "O", "properties": {}}, {"species": [{"element": "O", "occu": 1}], "abc": [0.28547018, 0.1489215, 0.35341162], "xyz": [2.59068270573574, 1.350492835692, 16.102023958017018], "label": "O", "properties": {}}, {"species": [{"element": "O", "occu": 1}], "abc": [0.1453169, 0.78547473, 0.35548996], "xyz": [1.3187716478167, 7.123068163308241, 16.196716601323157], "label": "O", "properties": {}}, {"species": [{"element": "O", "occu": 1}], "abc": [0.42533125, 0.88471582, 0.3902045], "xyz": [3.8599419161187503, 8.023034797080161, 17.778369051719498], "label": "O", "properties": {}}, {"species": [{"element": "O", "occu": 1}], "abc": [0.91641303, 0.78797023, 0.3884381], "xyz": [8.316579294313291, 7.14569857511224, 17.6978889160651], "label": "O", "properties": {}}, {"species": [{"element": "O", "occu": 1}], "abc": [0.64725357, 0.90166208, 0.35615813], "xyz": [5.87391870501051, 8.176711752535041, 16.22715954303523], "label": "O", "properties": {}}, {"species": [{"element": "O", "occu": 1}], "abc": [0.95419097, 0.97549537, 0.34702211], "xyz": [8.65941950205871, 8.846268056900561, 15.810907205545808], "label": "O", "properties": {}}, {"species": [{"element": "O", "occu": 1}], "abc": [0.62744674, 0.70251512, 0.39469268], "xyz": [5.69416889038382, 6.37074993553856, 17.98285803226828], "label": "O", "properties": {}}, {"species": [{"element": "O", "occu": 1}], "abc": [0.10388463, 0.98737108, 0.3938864], "xyz": [0.9427678727520901, 8.95396279052704, 17.9461225681744], "label": "O", "properties": {}}, {"species": [{"element": "O", "occu": 1}], "abc": [0.46850378, 0.69804184, 0.34805865], "xyz": [4.25173879954054, 6.3301840495379205, 15.85813370000415], "label": "O", "properties": {}}, {"species": [{"element": "O", "occu": 1}], "abc": [0.05341947, 0.48780479, 0.33576363], "xyz": [0.48478932923421, 4.42365188445752, 15.297952043825727], "label": "O", "properties": {}}, {"species": [{"element": "O", "occu": 1}], "abc": [0.52760553, 0.20318952, 0.40951008], "xyz": [4.788095632340791, 1.8426217238457603, 18.65796353614368], "label": "O", "properties": {}}, {"species": [{"element": "O", "occu": 1}], "abc": [0.01899891, 0.50247338, 0.40641442], "xyz": [0.17241782509413, 4.55667381684944, 18.51692009369582], "label": "O", "properties": {}}, {"species": [{"element": "O", "occu": 1}], "abc": [0.55701757, 0.20156169, 0.33414265], "xyz": [5.05501410126251, 1.8278597670247199, 15.224097486368148], "label": "O", "properties": {}}, {"species": [{"element": "O", "occu": 1}], "abc": [0.36559483, 0.40742766, 0.32533460000000003], "xyz": [3.31782536231069, 3.6947528455780803, 14.8227880101166], "label": "O", "properties": {}}, {"species": [{"element": "O", "occu": 1}], "abc": [0.19766526, 0.27943314, 0.41178718000000003], "xyz": [1.7938405006321803, 2.5340360768923205, 18.76171201717778], "label": "O", "properties": {}}, {"species": [{"element": "O", "occu": 1}], "abc": [0.70872238, 0.42005893, 0.41525476], "xyz": [6.43175694580034, 3.8092993659978402, 18.919700756303957], "label": "O", "properties": {}}, {"species": [{"element": "O", "occu": 1}], "abc": [0.87959703, 0.26767227, 0.32252876], "xyz": [7.98246882962529, 2.42738276842776, 14.69494925115796], "label": "O", "properties": {}}, {"species": [{"element": "O", "occu": 1}], "abc": [0.25300596, 0.66853042, 0.29658574], "xyz": [2.29606526685228, 6.0625600914049596, 13.512941909171538], "label": "O", "properties": {}}, {"species": [{"element": "O", "occu": 1}], "abc": [0.83236549, 0.52530597, 0.29499108], "xyz": [7.553835850015071, 4.76373088527336, 13.44028653489468], "label": "O", "properties": {}}, {"species": [{"element": "O", "occu": 1}], "abc": [0.33317309, 0.15898255, 0.29520599000000003], "xyz": [3.02359343550187, 1.4417313468844, 13.45007819360929], "label": "O", "properties": {}}, {"species": [{"element": "O", "occu": 1}], "abc": [0.74738872, 0.01177106, 0.29616826], "xyz": [6.782659510586961, 0.10674571635728, 13.49392082276246], "label": "O", "properties": {}}, {"species": [{"element": "O", "occu": 1}], "abc": [0.78968383, 0.14487222, 0.43760725], "xyz": [7.16649368203769, 1.31377198860336, 19.93811755171475], "label": "O", "properties": {}}, {"species": [{"element": "O", "occu": 1}], "abc": [0.28811193, 0.01944217, 0.44119386], "xyz": [2.6146569647559903, 0.17631108533896003, 20.10152949654006], "label": "O", "properties": {}}, {"species": [{"element": "O", "occu": 1}], "abc": [0.27262063, 0.53273688, 0.44006686], "xyz": [2.47407120200009, 4.83111800343744, 20.05018149332306], "label": "O", "properties": {}}]}, "formula": "(Na3Zr2Si2PO12)6.0(Na2O)2.0", "bandgap": 3.6266, "slab_thickness": 20.27944463247809}