{"miller": "010_0.25", "final_energy": -322.95400516, "gamma": 0.021195082018157063, "work_function": "Not calculated", "ionization_potentail": "Not calculated", "electron_affinity": "Not calculated", "is_stochiometric": true, "incar_parameters": {"SYSTEM": "unknown system", "LCOMPAT": false, "PREC": "normal", "ENMAX": 520.0, "ENAUG": 628.945, "EDIFF": 1e-05, "IALGO": 38, "IWAVPR": 11, "NBANDS": 220, "NBANDSLOW": -1, "NBANDSHIGH": -1, "NELECT": 360.0, "TURBO": 0, "IRESTART": 0, "NREBOOT": 0, "NMIN": 0, "EREF": 0.0, "ISMEAR": 0, "SIGMA": 0.05, "KSPACING": 0.5, "KGAMMA": true, "KBLOWUP": true, "LREAL": true, "ROPT": [-0.0005, -0.0005, -0.0005, -0.0005], "LMAXPAW": -100, "LMAXMIX": 2, "NLSPLINE": false, "ISTART": 0, "ICHARG": 2, "INIWAV": 1, "ISPIN": 1, "LNONCOLLINEAR": false, "MAGMOM": [0.6, 0.6, 0.6, 0.6, 0.6, 0.6, 0.6, 0.6, 0.6, 0.6, 0.6, 0.6, 0.6, 0.6, 0.6, 0.6, 0.6, 0.6, 0.6, 0.6, 0.6, 0.6, 0.6, 0.6, 0.6, 0.6, 0.6, 0.6, 0.6, 0.6, 0.6, 0.6, 0.6, 0.6, 0.6, 0.6, 0.6, 0.6, 0.6, 0.6, 0.6, 0.6, 0.6, 0.6, 0.6, 0.6, 0.6, 0.6, 0.6, 0.6, 0.6, 0.6, 0.6, 0.6, 0.6, 0.6, 0.6, 0.6, 0.6, 0.6, 0.6, 0.6, 0.6, 0.6, 0.6, 0.6, 0.6, 0.6, 0.6, 0.6, 0.6, 0.6, 0.6, 0.6, 0.6, 0.6, 0.6, 0.6], "NUPDOWN": -1.0, "LSORBIT": false, "SAXIS": [0.0, 0.0, 1.0], "LSPIRAL": false, "QSPIRAL": [0.0, 0.0, 0.0], "LZEROZ": false, "LASPH": false, "LMETAGGA": false, "NELM": 100, "NELMDL": -5, "NELMIN": 6, "ENINI": 520.0, "LDIAG": true, "LSUBROT": false, "WEIMIN": 0.001, "EBREAK": 1e-08, "DEPER": 0.3, "NRMM": 4, "TIME": 0.4, "AMIX": 0.4, "BMIX": 1.0, "AMIN": 0.1, "AMIX_MAG": 1.6, "BMIX_MAG": 1.0, "IMIX": 4, "MIXFIRST": false, "MAXMIX": -45, "WC": 100.0, "INIMIX": 1, "MIXPRE": 1, "MREMOVE": 5, "LDIPOL": false, "LMONO": false, "IDIPOL": 0, "EPSILON": 1.0, "DIPOL": [-100.0, -100.0, -100.0], "EFIELD": 0.0, "NGX": 70, "NGY": 40, "NGZ": 240, "NGXF": 140, "NGYF": 80, "NGZF": 480, "ADDGRID": false, "NSW": 150, "IBRION": 2, "MDALGO": 0, "ISIF": 2, "PSTRESS": 0.0, "EDIFFG": -0.01, "NFREE": 1, "POTIM": 0.5, "SMASS": -3.0, "SCALEE": 1.0, "TEBEG": 0.0001, "TEEND": 0.0001, "NBLOCK": 1, "KBLOCK": 150, "NPACO": 256, "APACO": 10.0, "ISYM": 0, "SYMPREC": 1e-05, "LORBIT": 11, "RWIGS": [-1.0, -1.0, -1.0, -1.0], "NEDOS": 301, "EMIN": 10.0, "EMAX": -10.0, "EFERMI": 0.0, "NWRITE": 2, "LWAVE": false, "LDOWNSAMPLE": false, "LCHARG": false, "LPARD": false, "LVTOT": false, "LVHAR": false, "LELF": false, "LOPTICS": false, "STM": [0.0, 0.0, 0.0, 0.0, 0.0, 0.0, 0.0], "NPAR": 1, "NSIM": 1, "NBLK": -1, "LPLANE": true, "LSCALAPACK": true, "LSCAAWARE": false, "LSCALU": false, "LASYNC": false, "LORBITALREAL": false, "IDIOT": 3, "PHON_NSTRUCT": -1, "LMUSIC": false, "POMASS": [7.01, 30.974, 32.066, 35.453], "DARWINR": [0.0, 0.0, 0.0, 0.0], "DARWINV": [1.0, 1.0, 1.0, 1.0], "LCORR": true, "GGA_COMPAT": true, "LBERRY": false, "ICORELEVEL": 0, "LDAU": false, "I_CONSTRAINED_M": 0, "GGA": "--", "VOSKOWN": 0, "LHFCALC": false, "PRECFOCK": "", "LSYMGRAD": false, "LHFONE": false, "LRHFCALC": false, "LTHOMAS": false, "LMODELHF": false, "LFOCKACE": false, "ENCUT4O": -1.0, "EXXOEP": 0, "FOURORBIT": 0, "AEXX": 0.0, "HFALPHA": 0.0, "MCALPHA": 0.0, "ALDAX": 1.0, "AGGAX": 1.0, "ALDAC": 1.0, "AGGAC": 1.0, "NKREDX": 1, "NKREDY": 1, "NKREDZ": 1, "SHIFTRED": false, "ODDONLY": false, "EVENONLY": false, "LMAXFOCK": 0, "NMAXFOCKAE": 0, "LFOCKAEDFT": false, "HFSCREEN": 0.0, "HFSCREENC": 0.0, "NBANDSGWLOW": 0, "LUSE_VDW": false, "Zab_VDW": -0.8491, "PARAM1": 0.1234, "PARAM2": 1.0, "PARAM3": 0.0, "MODEL_GW": 0, "MODEL_EPS0": 23.81596328, "MODEL_ALPHA": 1.0, "LEPSILON": false, "LRPA": false, "LNABLA": false, "LVEL": false, "CSHIFT": 0.1, "OMEGAMAX": -1.0, "DEG_THRESHOLD": 0.002, "RTIME": -0.1, "WPLASMAI": 0.0, "DFIELD": [0.0, 0.0, 0.0], "WPLASMA": [0.0, 0.0, 0.0, 0.0, 0.0, 0.0, 0.0, 0.0, 0.0], "NUCIND": false, "MAGPOS": [0.0, 0.0, 0.0], "LNICSALL": true, "ORBITALMAG": false, "LMAGBLOCH": false, "LCHIMAG": false, "LGAUGE": true, "MAGATOM": 0, "MAGDIPOL": [0.0, 0.0, 0.0], "AVECCONST": [0.0, 0.0, 0.0], "LFINITE_TEMPERATURE": false, "LADDER": false, "LRPAFORCE": false, "LFXC": false, "LHARTREE": true, "IBSE": 0, "KPOINT": [-1, 0, 0, 0], "LTCTC": false, "LTCTE": false, "LTETE": false, "LTRIPLET": false, "LFXCEPS": false, "LFXHEG": false, "NATURALO": 2, "LHOLEGF": false, "L2ORDER": false, "LDMP1": false, "LMP2LT": false, "LSMP2LT": false, "LGWLF": false, "ENCUTGW": -2.0, "ENCUTGWSOFT": -2.0, "ENCUTLF": -1.0, "LESF_SPLINES": false, "LMAXMP2": -1, "SCISSOR": 0.0, "NOMEGA": 0, "NOMEGAR": 0, "NBANDSGW": -1, "NBANDSO": -1, "NBANDSV": -1, "NELMGW": 1, "NELMHF": 1, "DIM": 3, "IESPILON": 4, "ANTIRES": 0, "OMEGAMIN": -30.0, "OMEGATL": -200.0, "OMEGAGRID": 0, "LSELFENERGY": false, "LSPECTRAL": false, "LSPECTRALGW": false, "LSINGLES": false, "LFERMIGW": false, "ODDONLYGW": false, "EVENONLYGW": false, "NKREDLFX": 1, "NKREDLFY": 1, "NKREDLFZ": 1, "MAXMEM": 2800, "TELESCOPE": 0, "NTAUPAR": -1, "NOMEGAPAR": -1, "DAMP_NEWTON": 0.80000001, "LAMBDA": 1.0, "OFIELD_KAPPA": 0.0, "OFIELD_K": [0.0, 0.0, 0.0], "OFIELD_Q6_NEAR": 0.0, "OFIELD_Q6_FAR": 0.0, "OFIELD_A": 0.0, "KPOINTS_OPT_MODE": 1, "LKPOINTS_OPT": false, "@module": "pymatgen.io.vasp.inputs", "@class": "Incar"}, "relaxed_structures": {"@module": "pymatgen.core.structure", "@class": "Structure", "charge": 0, "lattice": {"matrix": [[12.275469, 0.0, 0.0], [-4.032337, 5.85224, 0.0], [0.0, 0.0, 43.097421]], "a": 12.275469, "b": 7.106930047437431, "c": 43.097421, "alpha": 90.0, "beta": 90.0, "gamma": 124.56779534439714, "volume": 3096.075226437119}, "sites": [{"species": [{"element": "Li", "occu": 1}], "abc": [0.93481233, 0.83999747, 0.07655320000000007], "xyz": [8.088106899545378, 4.915866793832801, 3.2992454892972027], "label": "Li", "properties": {}}, {"species": [{"element": "Li", "occu": 1}], "abc": [0.91942018, 0.80666226, 0.012150540000000064], "xyz": [8.0335798400628, 4.7207811444624, 0.5236569377573427], "label": "Li", "properties": {}}, {"species": [{"element": "Li", "occu": 1}], "abc": [0.4810504, 0.01459031, 0.13097669000000006], "xyz": [5.846286225783129, 0.08538599579440001, 5.644757550116492], "label": "Li", "properties": {}}, {"species": [{"element": "Li", "occu": 1}], "abc": [0.27944872, 0.62319262, 0.08024374000000008], "xyz": [0.9174414396967396, 3.6470727784687997, 3.458298245394543], "label": "Li", "properties": {}}, {"species": [{"element": "Li", "occu": 1}], "abc": [0.74905895, 0.02520865, 0.08060590000000008], "xyz": [9.0934001477825, 0.147527069876, 3.473906407383903], "label": "Li", "properties": {}}, {"species": [{"element": "Li", "occu": 1}], "abc": [0.74660866, 0.08219445, 0.018719690000000063], "xyz": [8.833535739031891, 0.481021648068, 0.8067703609194926], "label": "Li", "properties": {}}, {"species": [{"element": "Li", "occu": 1}], "abc": [0.23020508, 0.00524591, 0.15976377000000005], "xyz": [2.8047220461908497, 0.030700324338400004, 6.885406456237172], "label": "Li", "properties": {}}, {"species": [{"element": "Li", "occu": 1}], "abc": [0.22235077, 0.01372458, 0.09227917000000008], "xyz": [2.6741178525176696, 0.0803195360592, 3.976994239020573], "label": "Li", "properties": {}}, {"species": [{"element": "Li", "occu": 1}], "abc": [0.67774222, 0.41040461, 0.06398362000000007], "xyz": [6.664713917727609, 2.4017862748264003, 2.757529008244023], "label": "Li", "properties": {}}, {"species": [{"element": "Li", "occu": 1}], "abc": [0.22730959, 0.49273875, 0.15830378000000003], "xyz": [0.8034431324889597, 2.8836254223, 6.822484652551381], "label": "Li", "properties": {}}, {"species": [{"element": "Li", "occu": 1}], "abc": [0.53672243, 0.66581076, 0.04714556000000007], "xyz": [3.90374618852355, 3.8964843621023997, 2.031852047600763], "label": "Li", "properties": {}}, {"species": [{"element": "Li", "occu": 1}], "abc": [0.02025735, 0.59253554, 0.12461362000000008], "xyz": [-2.14063450980983, 3.4676601886096, 5.370525643474023], "label": "Li", "properties": {}}, {"species": [{"element": "Li", "occu": 1}], "abc": [0.93680422, 0.83717378, 0.24427709000000003], "xyz": [8.123944353155318, 4.8993418822672, 10.52771258838489], "label": "Li", "properties": {}}, {"species": [{"element": "Li", "occu": 1}], "abc": [0.92249954, 0.81381953, 0.17465785000000003], "xyz": [8.04251990364265, 4.7626672062472, 7.527302892404851], "label": "Li", "properties": {}}, {"species": [{"element": "Li", "occu": 1}], "abc": [0.42260335, 0.81255258, 0.32926247000000003], "xyz": [1.9111684894416898, 4.7552527107791995, 14.19036328908987], "label": "Li", "properties": {}}, {"species": [{"element": "Li", "occu": 1}], "abc": [0.43692267, 0.83665521, 0.25987459], "xyz": [1.98975493145646, 4.8963070861704, 11.19992461243239], "label": "Li", "properties": {}}, {"species": [{"element": "Li", "occu": 1}], "abc": [0.73890049, 0.00809697, 0.24512098000000004], "xyz": [9.03770034736092, 0.0473854117128, 10.564082070992582], "label": "Li", "properties": {}}, {"species": [{"element": "Li", "occu": 1}], "abc": [0.73548734, 0.00636129, 0.17717864000000005], "xyz": [9.00280117702773, 0.037227795789600004, 7.635942440287442], "label": "Li", "properties": {}}, {"species": [{"element": "Li", "occu": 1}], "abc": [0.23591188, 0.00353778, 0.32683763000000005], "xyz": [2.88166344847986, 0.0207039376272, 14.085858938752231], "label": "Li", "properties": {}}, {"species": [{"element": "Li", "occu": 1}], "abc": [0.23973338, 0.00659717, 0.25862858000000005], "xyz": [2.91623766176893, 0.0386082221608, 11.14622479489218], "label": "Li", "properties": {}}, {"species": [{"element": "Li", "occu": 1}], "abc": [0.71957269, 0.40410985, 0.21366807000000004], "xyz": [7.203585149122159, 2.364947828564, 9.20854276704747], "label": "Li", "properties": {}}, {"species": [{"element": "Li", "occu": 1}], "abc": [0.21938556, 0.40117718, 0.29070042000000007], "xyz": [1.0753790543579798, 2.3477851398832, 12.528438385616822], "label": "Li", "properties": {}}, {"species": [{"element": "Li", "occu": 1}], "abc": [0.53427012, 0.60870915, 0.20968710000000004], "xyz": [4.103895867902729, 3.5623120359960003, 9.036973226969101], "label": "Li", "properties": {}}, {"species": [{"element": "Li", "occu": 1}], "abc": [0.03426231, 0.60862185, 0.29441753000000004], "xyz": [-2.03358248049006, 3.561801135444, 12.688636240190132], "label": "Li", "properties": {}}, {"species": [{"element": "Li", "occu": 1}], "abc": [0.77947767, 0.62350866, 0.42397208000000003], "xyz": [7.0542569347388095, 3.6489223203984005, 18.27210322400568], "label": "Li", "properties": {}}, {"species": [{"element": "Li", "occu": 1}], "abc": [0.98014597, 0.01322613, 0.37353405000000006], "xyz": [11.97841925684412, 0.07740248703119999, 16.098354210685052], "label": "Li", "properties": {}}, {"species": [{"element": "Li", "occu": 1}], "abc": [0.41893761, 0.80674058, 0.49214935000000004], "xyz": [1.8896057543536298, 4.7212394918992, 21.21036773182635], "label": "Li", "properties": {}}, {"species": [{"element": "Li", "occu": 1}], "abc": [0.43434875, 0.83917597, 0.42762853000000006], "xyz": [1.94799430247186, 4.9110591786728, 18.429686789021133], "label": "Li", "properties": {}}, {"species": [{"element": "Li", "occu": 1}], "abc": [0.7220499, 0.01351144, 0.41189018000000005], "xyz": [8.80901848446782, 0.0790721896256, 17.75140449322578], "label": "Li", "properties": {}}, {"species": [{"element": "Li", "occu": 1}], "abc": [0.73016627, 0.00513161, 0.34438560000000007], "xyz": [8.94244103135806, 0.0300314133064, 14.842131189537602], "label": "Li", "properties": {}}, {"species": [{"element": "Li", "occu": 1}], "abc": [0.24657402, 0.08225663, 0.48538499], "xyz": [2.69512528607107, 0.4813855403512, 20.91884126111079], "label": "Li", "properties": {}}, {"species": [{"element": "Li", "occu": 1}], "abc": [0.2488326, 0.02463897, 0.42357152000000003], "xyz": [2.9551842371165096, 0.1441931657928, 18.25484012104992], "label": "Li", "properties": {}}, {"species": [{"element": "Li", "occu": 1}], "abc": [0.72760968, 0.49314858, 0.34573481000000006], "xyz": [6.94320880530846, 2.8860238458192002, 14.90027866092501], "label": "Li", "properties": {}}, {"species": [{"element": "Li", "occu": 1}], "abc": [0.17767829, 0.41029437, 0.44017502000000003], "xyz": [0.5266391718253196, 2.4011411238888, 18.97040815062342], "label": "Li", "properties": {}}, {"species": [{"element": "Li", "occu": 1}], "abc": [0.51990869, 0.59222635, 0.37957574000000005], "xyz": [3.994066783445659, 3.465850734524, 16.35873546816654], "label": "Li", "properties": {}}, {"species": [{"element": "Li", "occu": 1}], "abc": [0.03637607, 0.66552353, 0.45703320000000003], "xyz": [-2.23708183476278, 3.8948034232072, 19.6969522313772], "label": "Li", "properties": {}}, {"species": [{"element": "P", "occu": 1}], "abc": [0.51123155, 0.52924686, 0.12529456000000005], "xyz": [4.141505348135129, 3.0972796439664, 5.399872401329762], "label": "P", "properties": {}}, {"species": [{"element": "P", "occu": 1}], "abc": [0.01474742, 0.54803734, 0.039349410000000064], "xyz": [-2.0288397464236, 3.2072460426416, 1.6958580888716126], "label": "P", "properties": {}}, {"species": [{"element": "P", "occu": 1}], "abc": [0.51478029, 0.5222668, 0.29438087], "xyz": [4.213213750194409, 3.056430657632, 12.68705628873627], "label": "P", "properties": {}}, {"species": [{"element": "P", "occu": 1}], "abc": [0.01471083, 0.52276063, 0.20972011000000004], "xyz": [-1.92736469286304, 3.0593206693112, 9.038395872836311], "label": "P", "properties": {}}, {"species": [{"element": "P", "occu": 1}], "abc": [0.51454545, 0.54797073, 0.46491354000000007], "xyz": [4.10668407107004, 3.2068562249352, 20.03657456198034], "label": "P", "properties": {}}, {"species": [{"element": "P", "occu": 1}], "abc": [0.01108998, 0.52888826, 0.37885066000000006], "xyz": [-1.9965209939630002, 3.0951810307024, 16.32748639014786], "label": "P", "properties": {}}, {"species": [{"element": "S", "occu": 1}], "abc": [0.88630178, 0.43514076, 0.07870271000000006], "xyz": [9.125135838278698, 2.5465481613024, 3.3918838267109126], "label": "S", "properties": {}}, {"species": [{"element": "S", "occu": 1}], "abc": [0.90100088, 0.45533173, 9.999999999998899e-05], "xyz": [9.224157389259709, 2.6647105635752, 0.004309742099999525], "label": "S", "properties": {}}, {"species": [{"element": "S", "occu": 1}], "abc": [0.3944472, 0.40863524, 0.16481269000000004], "xyz": [3.1942693779809193, 2.3914314969376003, 7.103001887072491], "label": "S", "properties": {}}, {"species": [{"element": "S", "occu": 1}], "abc": [0.38816901, 0.42077065, 0.08687375000000007], "xyz": [3.0682675885066395, 2.4624508287560003, 3.744034577598753], "label": "S", "properties": {}}, {"species": [{"element": "S", "occu": 1}], "abc": [0.75662502, 0.78832591, 0.04340538000000006], "xyz": [6.109131242682709, 4.6134724235384, 1.8706599355249827], "label": "S", "properties": {}}, {"species": [{"element": "S", "occu": 1}], "abc": [0.25232382, 0.77606564, 0.12513515000000006], "xyz": [-0.031964964229100445, 4.5417223810336, 5.393002241448152], "label": "S", "properties": {}}, {"species": [{"element": "S", "occu": 1}], "abc": [0.63183074, 0.4195074, 0.12291467000000007], "xyz": [6.064423451323259, 2.455057986576, 5.297305280066073], "label": "S", "properties": {}}, {"species": [{"element": "S", "occu": 1}], "abc": [0.12362302, 0.41919567, 0.039875300000000065], "xyz": [-0.17280766068441, 2.4532336678008, 1.7185225916013027], "label": "S", "properties": {}}, {"species": [{"element": "S", "occu": 1}], "abc": [0.62456133, 0.88262742, 0.12756961000000008], "xyz": [4.10773204213323, 5.165347492420801, 5.4979211889758135], "label": "S", "properties": {}}, {"species": [{"element": "S", "occu": 1}], "abc": [0.11652247, 0.9006673, 0.04179400000000007], "xyz": [-2.2014261101916697, 5.270921199751999, 1.8012136132740029], "label": "S", "properties": {}}, {"species": [{"element": "S", "occu": 1}], "abc": [0.89358724, 0.42515267, 0.24867494000000004], "xyz": [9.254843621525769, 2.4880954614808, 10.717248581329741], "label": "S", "properties": {}}, {"species": [{"element": "S", "occu": 1}], "abc": [0.88594286, 0.42046781, 0.17212452000000003], "xyz": [9.179896206129369, 2.4606785363944, 7.418122902862921], "label": "S", "properties": {}}, {"species": [{"element": "S", "occu": 1}], "abc": [0.38586513, 0.41888116, 0.33195856000000007], "xyz": [3.0476054414250493, 2.4513930797984, 14.306557814873763], "label": "S", "properties": {}}, {"species": [{"element": "S", "occu": 1}], "abc": [0.39373819, 0.42467369, 0.25542252000000004], "xyz": [3.12089351234758, 2.4852923555656, 11.008051877320922], "label": "S", "properties": {}}, {"species": [{"element": "S", "occu": 1}], "abc": [0.76460211, 0.77595084, 0.21097116000000005], "xyz": [6.256954216326509, 4.5410505438816005, 9.092312901378362], "label": "S", "properties": {}}, {"species": [{"element": "S", "occu": 1}], "abc": [0.26441826, 0.77386272, 0.29300820000000005], "xyz": [0.12538287488730004, 4.5288303644928005, 12.6278977518522], "label": "S", "properties": {}}, {"species": [{"element": "S", "occu": 1}], "abc": [0.62624319, 0.39973582, 0.29439826], "xyz": [6.075559328094769, 2.3393499552368002, 12.68780575288746], "label": "S", "properties": {}}, {"species": [{"element": "S", "occu": 1}], "abc": [0.12600584, 0.39993528, 0.20969081000000003], "xyz": [-0.06589304441040023, 2.3405172430272, 9.03713311840101], "label": "S", "properties": {}}, {"species": [{"element": "S", "occu": 1}], "abc": [0.61877655, 0.87771868, 0.29470193000000006], "xyz": [4.056514848496789, 5.1366203678432, 12.700893146722532], "label": "S", "properties": {}}, {"species": [{"element": "S", "occu": 1}], "abc": [0.11873016, 0.87819124, 0.20940312000000005], "xyz": [-2.0836946316828406, 5.1393859023776, 9.024734421353521], "label": "S", "properties": {}}, {"species": [{"element": "S", "occu": 1}], "abc": [0.88790357, 0.42055225, 0.41725405000000004], "xyz": [9.20362435041608, 2.46117269954, 17.98257345680505], "label": "S", "properties": {}}, {"species": [{"element": "S", "occu": 1}], "abc": [0.8943882, 0.40834016, 0.33931507000000005], "xyz": [9.332469487311878, 2.3897046179584, 14.623604423434472], "label": "S", "properties": {}}, {"species": [{"element": "S", "occu": 1}], "abc": [0.40079666, 0.45514677, 0.50416784], "xyz": [3.08466181403205, 2.6636281332647997, 21.72833365514064], "label": "S", "properties": {}}, {"species": [{"element": "S", "occu": 1}], "abc": [0.38605729, 0.4346478, 0.42556266000000004], "xyz": [2.9863878897104095, 2.5436632410719997, 18.340653119899862], "label": "S", "properties": {}}, {"species": [{"element": "S", "occu": 1}], "abc": [0.75183237, 0.77540777, 0.37904568000000005], "xyz": [6.1023895100730385, 4.5378723679048, 16.33589124919128], "label": "S", "properties": {}}, {"species": [{"element": "S", "occu": 1}], "abc": [0.25624085, 0.78785033, 0.46079667], "xyz": [-0.03140142541256008, 4.6106892152392005, 19.85914808238807], "label": "S", "properties": {}}, {"species": [{"element": "S", "occu": 1}], "abc": [0.62361424, 0.4194728, 0.46436558000000006], "xyz": [5.96370157914496, 2.454855499072, 20.01295889916918], "label": "S", "properties": {}}, {"species": [{"element": "S", "occu": 1}], "abc": [0.13145477, 0.41864767, 0.38126562], "xyz": [-0.07445953566766028, 2.4500266402808, 16.43156493796602], "label": "S", "properties": {}}, {"species": [{"element": "S", "occu": 1}], "abc": [0.61603312, 0.90057975, 0.46244040000000003], "xyz": [3.9306544201575297, 5.2704088361400006, 19.9299886062084], "label": "S", "properties": {}}, {"species": [{"element": "S", "occu": 1}], "abc": [0.12449814, 0.88222346, 0.37652239000000004], "xyz": [-2.0291492418983603, 5.1629834215504, 16.22714395775619], "label": "S", "properties": {}}, {"species": [{"element": "Cl", "occu": 1}], "abc": [0.55435506, 0.0113494, 0.044585590000000064], "xyz": [6.75920374847534, 0.066419412656, 1.9215239427633926], "label": "Cl", "properties": {}}, {"species": [{"element": "Cl", "occu": 1}], "abc": [0.04154209, 0.98692511, 0.12742866000000008], "xyz": [-3.4696659992918604, 5.775722605746401, 5.491846607485863], "label": "Cl", "properties": {}}, {"species": [{"element": "Cl", "occu": 1}], "abc": [0.5591433, 0.99697533, 0.21259165000000005], "xyz": [2.843605734461489, 5.8345389052392, 9.162151841134651], "label": "Cl", "properties": {}}, {"species": [{"element": "Cl", "occu": 1}], "abc": [0.05921455, 0.9953255, 0.29152786], "xyz": [-3.2866014678195503, 5.82488370412, 12.56409891564906], "label": "Cl", "properties": {}}, {"species": [{"element": "Cl", "occu": 1}], "abc": [0.54094062, 0.98565369, 0.37668794000000005], "xyz": [2.665811968277249, 5.7682819507656005, 16.234278735802743], "label": "Cl", "properties": {}}, {"species": [{"element": "Cl", "occu": 1}], "abc": [0.05404112, 0.01093292, 0.45947091000000007], "xyz": [0.61929487545124, 0.0639820717408, 19.80201124552311], "label": "Cl", "properties": {}}]}, "formula": "(Li3PS4)6.0(Li2S)6.0(LiCl)6.0", "bandgap": 2.0498, "slab_thickness": 21.724023913040643}