{"miller": "02-1_0.09", "final_energy": -245.33917085, "gamma": 0.016255588044040675, "work_function": "Not calculated", "ionization_potentail": "Not calculated", "electron_affinity": "Not calculated", "is_stochiometric": false, "incar_parameters": {"SYSTEM": "unknown system", "LCOMPAT": false, "PREC": "normal", "ENMAX": 520.0, "ENAUG": 628.945, "EDIFF": 1e-05, "IALGO": 38, "IWAVPR": 11, "NBANDS": 168, "NBANDSLOW": -1, "NBANDSHIGH": -1, "NELECT": 276.0, "TURBO": 0, "IRESTART": 0, "NREBOOT": 0, "NMIN": 0, "EREF": 0.0, "ISMEAR": 0, "SIGMA": 0.05, "KSPACING": 0.5, "KGAMMA": true, "KBLOWUP": false, "LREAL": true, "ROPT": [-0.0005, -0.0005, -0.0005, -0.0005], "LMAXPAW": -100, "LMAXMIX": 2, "NLSPLINE": false, "ISTART": 0, "ICHARG": 2, "INIWAV": 1, "ISPIN": 1, "LNONCOLLINEAR": false, "MAGMOM": [0.6, 0.6, 0.6, 0.6, 0.6, 0.6, 0.6, 0.6, 0.6, 0.6, 0.6, 0.6, 0.6, 0.6, 0.6, 0.6, 0.6, 0.6, 0.6, 0.6, 0.6, 0.6, 0.6, 0.6, 0.6, 0.6, 0.6, 0.6, 0.6, 0.6, 0.6, 0.6, 0.6, 0.6, 0.6, 0.6, 0.6, 0.6, 0.6, 0.6, 0.6, 0.6, 0.6, 0.6, 0.6, 0.6, 0.6, 0.6, 0.6, 0.6, 0.6, 0.6, 0.6, 0.6, 0.6, 0.6, 0.6, 0.6, 0.6], "NUPDOWN": -1.0, "LSORBIT": false, "SAXIS": [0.0, 0.0, 1.0], "LSPIRAL": false, "QSPIRAL": [0.0, 0.0, 0.0], "LZEROZ": false, "LASPH": false, "LMETAGGA": false, "NELM": 100, "NELMDL": -5, "NELMIN": 6, "ENINI": 520.0, "LDIAG": true, "LSUBROT": false, "WEIMIN": 0.001, "EBREAK": 1e-08, "DEPER": 0.3, "NRMM": 4, "TIME": 0.4, "AMIX": 0.4, "BMIX": 1.0, "AMIN": 0.1, "AMIX_MAG": 1.6, "BMIX_MAG": 1.0, "IMIX": 4, "MIXFIRST": false, "MAXMIX": -45, "WC": 100.0, "INIMIX": 1, "MIXPRE": 1, "MREMOVE": 5, "LDIPOL": false, "LMONO": false, "IDIPOL": 0, "EPSILON": 1.0, "DIPOL": [-100.0, -100.0, -100.0], "EFIELD": 0.0, "NGX": 40, "NGY": 70, "NGZ": 240, "NGXF": 80, "NGYF": 140, "NGZF": 480, "ADDGRID": false, "NSW": 150, "IBRION": 2, "MDALGO": 0, "ISIF": 2, "PSTRESS": 0.0, "EDIFFG": -0.01, "NFREE": 1, "POTIM": 0.5, "SMASS": -3.0, "SCALEE": 1.0, "TEBEG": 0.0001, "TEEND": 0.0001, "NBLOCK": 1, "KBLOCK": 150, "NPACO": 256, "APACO": 10.0, "ISYM": 0, "SYMPREC": 1e-05, "LORBIT": 11, "RWIGS": [-1.0, -1.0, -1.0, -1.0], "NEDOS": 301, "EMIN": 10.0, "EMAX": -10.0, "EFERMI": 0.0, "NWRITE": 2, "LWAVE": false, "LDOWNSAMPLE": false, "LCHARG": false, "LPARD": false, "LVTOT": false, "LVHAR": false, "LELF": false, "LOPTICS": false, "STM": [0.0, 0.0, 0.0, 0.0, 0.0, 0.0, 0.0], "NPAR": 1, "NSIM": 4, "NBLK": -1, "LPLANE": true, "LSCALAPACK": true, "LSCAAWARE": false, "LSCALU": false, "LASYNC": false, "LORBITALREAL": false, "IDIOT": 3, "PHON_NSTRUCT": -1, "LMUSIC": false, "POMASS": [7.01, 30.974, 32.066, 35.453], "DARWINR": [0.0, 0.0, 0.0, 0.0], "DARWINV": [1.0, 1.0, 1.0, 1.0], "LCORR": true, "GGA_COMPAT": true, "LBERRY": false, "ICORELEVEL": 0, "LDAU": false, "I_CONSTRAINED_M": 0, "GGA": "--", "VOSKOWN": 0, "LHFCALC": false, "PRECFOCK": "", "LSYMGRAD": false, "LHFONE": false, "LRHFCALC": false, "LTHOMAS": false, "LMODELHF": false, "LFOCKACE": false, "ENCUT4O": -1.0, "EXXOEP": 0, "FOURORBIT": 0, "AEXX": 0.0, "HFALPHA": 0.0, "MCALPHA": 0.0, "ALDAX": 1.0, "AGGAX": 1.0, "ALDAC": 1.0, "AGGAC": 1.0, "NKREDX": 1, "NKREDY": 1, "NKREDZ": 1, "SHIFTRED": false, "ODDONLY": false, "EVENONLY": false, "LMAXFOCK": 0, "NMAXFOCKAE": 0, "LFOCKAEDFT": false, "HFSCREEN": 0.0, "HFSCREENC": 0.0, "NBANDSGWLOW": 0, "LUSE_VDW": false, "Zab_VDW": -0.8491, "PARAM1": 0.1234, "PARAM2": 1.0, "PARAM3": 0.0, "MODEL_GW": 0, "MODEL_EPS0": 31.06316631, "MODEL_ALPHA": 1.0, "LEPSILON": false, "LRPA": false, "LNABLA": false, "LVEL": false, "CSHIFT": 0.1, "OMEGAMAX": -1.0, "DEG_THRESHOLD": 0.002, "RTIME": -0.1, "WPLASMAI": 0.0, "DFIELD": [0.0, 0.0, 0.0], "WPLASMA": [0.0, 0.0, 0.0, 0.0, 0.0, 0.0, 0.0, 0.0, 0.0], "NUCIND": false, "MAGPOS": [0.0, 0.0, 0.0], "LNICSALL": true, "ORBITALMAG": false, "LMAGBLOCH": false, "LCHIMAG": false, "LGAUGE": true, "MAGATOM": 0, "MAGDIPOL": [0.0, 0.0, 0.0], "AVECCONST": [0.0, 0.0, 0.0], "LFINITE_TEMPERATURE": false, "LADDER": false, "LRPAFORCE": false, "LFXC": false, "LHARTREE": true, "IBSE": 0, "KPOINT": [-1, 0, 0, 0], "LTCTC": false, "LTCTE": false, "LTETE": false, "LTRIPLET": false, "LFXCEPS": false, "LFXHEG": false, "NATURALO": 2, "LHOLEGF": false, "L2ORDER": false, "LDMP1": false, "LMP2LT": false, "LSMP2LT": false, "LGWLF": false, "ENCUTGW": -2.0, "ENCUTGWSOFT": -2.0, "ENCUTLF": -1.0, "LESF_SPLINES": false, "LMAXMP2": -1, "SCISSOR": 0.0, "NOMEGA": 0, "NOMEGAR": 0, "NBANDSGW": -1, "NBANDSO": -1, "NBANDSV": -1, "NELMGW": 1, "NELMHF": 1, "DIM": 3, "IESPILON": 4, "ANTIRES": 0, "OMEGAMIN": -30.0, "OMEGATL": -200.0, "OMEGAGRID": 0, "LSELFENERGY": false, "LSPECTRAL": false, "LSPECTRALGW": false, "LSINGLES": false, "LFERMIGW": false, "ODDONLYGW": false, "EVENONLYGW": false, "NKREDLFX": 1, "NKREDLFY": 1, "NKREDLFZ": 1, "MAXMEM": 2800, "TELESCOPE": 0, "NTAUPAR": -1, "NOMEGAPAR": -1, "DAMP_NEWTON": 0.80000001, "LAMBDA": 1.0, "OFIELD_KAPPA": 0.0, "OFIELD_K": [0.0, 0.0, 0.0], "OFIELD_Q6_NEAR": 0.0, "OFIELD_Q6_FAR": 0.0, "OFIELD_A": 0.0, "KPOINTS_OPT_MODE": 1, "LKPOINTS_OPT": false, "@module": "pymatgen.io.vasp.inputs", "@class": "Incar"}, "relaxed_structures": {"@module": "pymatgen.core.structure", "@class": "Structure", "charge": 0, "lattice": {"matrix": [[6.772882, 0.0, 0.0], [-6.772882, 10.601215, 0.0], [0.0, 0.0, 42.541944]], "a": 6.772882, "b": 12.580051274225752, "c": 42.541944, "alpha": 90.0, "beta": 90.0, "gamma": 122.57361010768133, "volume": 3054.5446875372613}, "sites": [{"species": [{"element": "Li", "occu": 1}], "abc": [0.53717375, 0.77278385, 0.06764018], "xyz": [-1.5957594053082, 8.19244774237775, 2.87754474970992], "label": "Li", "properties": {}}, {"species": [{"element": "Li", "occu": 1}], "abc": [0.32048274, 0.4369341, 0.11128029], "xyz": [-0.7887113200195199, 4.6320323349315, 4.734079865483761], "label": "Li", "properties": {}}, {"species": [{"element": "Li", "occu": 1}], "abc": [0.00414513, 0.81105823, 0.06690198], "xyz": [-5.4651272105542, 8.59820267374945, 2.84614028664912], "label": "Li", "properties": {}}, {"species": [{"element": "Li", "occu": 1}], "abc": [0.53854423, 0.26333033, 0.08254463000000001], "xyz": [1.8639912694597998, 2.79162144435095, 3.5116090269607203], "label": "Li", "properties": {}}, {"species": [{"element": "Li", "occu": 1}], "abc": [0.81502743, 0.78116444, 0.001294270000000007], "xyz": [0.22935003543718047, 8.2812921787946, 0.055060761860880304], "label": "Li", "properties": {}}, {"species": [{"element": "Li", "occu": 1}], "abc": [0.92831899, 0.06202599, 0.08766522000000002], "xyz": [5.867300266426, 0.65755085557785, 3.7294488799876806], "label": "Li", "properties": {}}, {"species": [{"element": "Li", "occu": 1}], "abc": [0.08002361, 0.51527768, 0.020033130000000003], "xyz": [-2.9479244561297397, 5.462569470381199, 0.8522482946047202], "label": "Li", "properties": {}}, {"species": [{"element": "Li", "occu": 1}], "abc": [0.59455398, 0.35397716, 0.14750751], "xyz": [1.6293984137952404, 3.7525879782494003, 6.2752562299994405], "label": "Li", "properties": {}}, {"species": [{"element": "Li", "occu": 1}], "abc": [0.54026411, 0.75446341, 0.2350947], "xyz": [-1.4507465833825997, 7.998228819043149, 10.0013855620968], "label": "Li", "properties": {}}, {"species": [{"element": "Li", "occu": 1}], "abc": [0.18833022, 0.38398449, 0.2600649], "xyz": [-1.3251432835061403, 4.07070213515535, 11.063666412165599], "label": "Li", "properties": {}}, {"species": [{"element": "Li", "occu": 1}], "abc": [0.98723515, 0.73657766, 0.16563028999999999], "xyz": [1.69767360218618, 7.8086181378569, 7.046234521883759], "label": "Li", "properties": {}}, {"species": [{"element": "Li", "occu": 1}], "abc": [0.9761023, 0.25482137, 0.14932855], "xyz": [4.88515062774026, 2.70141612996455, 6.3527268117012], "label": "Li", "properties": {}}, {"species": [{"element": "Li", "occu": 1}], "abc": [0.21022619, 0.89201739, 0.22655051999999998], "xyz": [-4.6176913462384, 9.45646813512885, 9.63789953501088], "label": "Li", "properties": {}}, {"species": [{"element": "Li", "occu": 1}], "abc": [0.54788988, 0.25898916, 0.2556094], "xyz": [1.9566904862750407, 2.7455997678294, 10.8741207806736], "label": "Li", "properties": {}}, {"species": [{"element": "Li", "occu": 1}], "abc": [0.57770576, 0.89176707, 0.1769429], "xyz": [-2.12710019339542, 9.45381443899005, 7.5274949429976], "label": "Li", "properties": {}}, {"species": [{"element": "Li", "occu": 1}], "abc": [0.94879572, 0.06729517, 0.25206227999999997], "xyz": [5.9702992080851, 0.71341056563155, 10.723219400272319], "label": "Li", "properties": {}}, {"species": [{"element": "Li", "occu": 1}], "abc": [0.1755751, 0.54585131, 0.17319008], "xyz": [-2.5078370777372196, 5.78668709534165, 7.36784268471552], "label": "Li", "properties": {}}, {"species": [{"element": "Li", "occu": 1}], "abc": [0.18070563, 0.06238075, 0.15309289], "xyz": [0.80140044990416, 0.66131174261125, 6.51286915317816], "label": "Li", "properties": {}}, {"species": [{"element": "Li", "occu": 1}], "abc": [0.9417691, 0.56306605, 0.23671466000000002], "xyz": [2.5649110706901004, 5.96918425525075, 10.07030180969904], "label": "Li", "properties": {}}, {"species": [{"element": "Li", "occu": 1}], "abc": [0.57087099, 0.40859996, 0.30538206], "xyz": [1.0990425382084599, 4.3316560249514, 12.991546495124641], "label": "Li", "properties": {}}, {"species": [{"element": "Li", "occu": 1}], "abc": [0.95274996, 0.76905389, 0.33397749], "xyz": [1.2441518059737406, 8.15290563447635, 14.20805167684056], "label": "Li", "properties": {}}, {"species": [{"element": "Li", "occu": 1}], "abc": [0.98491087, 0.26998153, 0.32071071], "xyz": [4.84213205815788, 2.8621322455589504, 13.643657065020241], "label": "Li", "properties": {}}, {"species": [{"element": "Li", "occu": 1}], "abc": [0.7282983, 0.78250299, 0.40130084], "xyz": [-0.3671219692165808, 8.29548243513285, 17.07211786243296], "label": "Li", "properties": {}}, {"species": [{"element": "Li", "occu": 1}], "abc": [0.62443536, 0.88828296, 0.34246802], "xyz": [-1.7870086607831999, 9.4168786397964, 14.569255328630879], "label": "Li", "properties": {}}, {"species": [{"element": "Li", "occu": 1}], "abc": [0.94480079, 0.53120771, 0.38350362], "xyz": [2.8012171268565598, 5.63144714336765, 16.31498952583728], "label": "Li", "properties": {}}, {"species": [{"element": "Li", "occu": 1}], "abc": [0.19627251, 0.05646474, 0.31652209], "xyz": [0.9469015288931402, 0.5985948486591, 13.46546502754296], "label": "Li", "properties": {}}, {"species": [{"element": "P", "occu": 1}], "abc": [0.46811017, 0.98205584, 0.11779063000000001], "xyz": [-3.48089337732094, 10.4109851018456, 5.01104238518472], "label": "P", "properties": {}}, {"species": [{"element": "P", "occu": 1}], "abc": [0.67831812, 0.55353836, 0.03341159000000001], "xyz": [0.8451185904683203, 5.8681791651074, 1.4213939907309605], "label": "P", "properties": {}}, {"species": [{"element": "P", "occu": 1}], "abc": [0.49507324, 0.97587864, 0.28615133], "xyz": [-3.2564382391628, 10.3454992765476, 12.17343385638552], "label": "P", "properties": {}}, {"species": [{"element": "P", "occu": 1}], "abc": [0.47941542, 0.46587776, 0.20236781], "xyz": [0.09168897373611973, 4.9388702974784, 8.60912004042264], "label": "P", "properties": {}}, {"species": [{"element": "P", "occu": 1}], "abc": [0.41228184, 0.55717731, 0.36829983], "xyz": [-0.98135992064454, 5.90675645643165, 15.66819074306952], "label": "P", "properties": {}}, {"species": [{"element": "S", "occu": 1}], "abc": [0.61052435, 0.60255603, 0.07668475], "xyz": [0.053968491098239646, 6.38782602357645, 3.2623183401539997], "label": "S", "properties": {}}, {"species": [{"element": "S", "occu": 1}], "abc": [0.58364633, 0.08343004, 0.07727612], "xyz": [3.3879059066477804, 0.8844597914986, 3.28747636957728], "label": "S", "properties": {}}, {"species": [{"element": "S", "occu": 1}], "abc": [0.02899313, 0.69309146, 0.022594810000000007], "xyz": [-4.49785962548706, 7.3476115821239, 0.9612271417106403], "label": "S", "properties": {}}, {"species": [{"element": "S", "occu": 1}], "abc": [0.47446623, 0.56964324, 0.00010000000000000286], "xyz": [-0.6446226578428202, 6.0389104605365995, 0.004254194400000122], "label": "S", "properties": {}}, {"species": [{"element": "S", "occu": 1}], "abc": [0.10691914, 0.87893192, 0.11994066], "xyz": [-5.22875146143196, 9.317746254282799, 5.10250884104304], "label": "S", "properties": {}}, {"species": [{"element": "S", "occu": 1}], "abc": [0.65788213, 0.38621544, 0.03235621], "xyz": [1.8399664347005795, 4.0943529157596, 1.3764960738722403], "label": "S", "properties": {}}, {"species": [{"element": "S", "occu": 1}], "abc": [0.59928761, 0.86777775, 0.11916502000000001], "xyz": [-1.8184520363834809, 9.19949849996625, 5.069511607598881], "label": "S", "properties": {}}, {"species": [{"element": "S", "occu": 1}], "abc": [0.24297778, 0.23069303, 0.11828684], "xyz": [0.08320316214949997, 2.44562641003145, 5.03215212321696], "label": "S", "properties": {}}, {"species": [{"element": "S", "occu": 1}], "abc": [0.57195502, 0.08404985, 0.15924786999999999], "xyz": [3.3045241435999397, 0.89103053056775, 6.774713967659279], "label": "S", "properties": {}}, {"species": [{"element": "S", "occu": 1}], "abc": [0.58418476, 0.57506324, 0.24253314999999998], "xyz": [0.06177897862063997, 6.0963690458365996, 10.317831685443599], "label": "S", "properties": {}}, {"species": [{"element": "S", "occu": 1}], "abc": [0.59728205, 0.08280146, 0.24585346000000002], "xyz": [3.4845163273603803, 0.8777960797739, 10.459084127526241], "label": "S", "properties": {}}, {"species": [{"element": "S", "occu": 1}], "abc": [0.57339358, 0.56859375, 0.1610431], "xyz": [0.03250868221005998, 6.02778459140625, 6.8510865417864], "label": "S", "properties": {}}, {"species": [{"element": "S", "occu": 1}], "abc": [0.12185067, 0.35357566, 0.20300081], "xyz": [-1.5694460137211803, 3.7483315904269, 8.636049090974641], "label": "S", "properties": {}}, {"species": [{"element": "S", "occu": 1}], "abc": [0.13512942, 0.86468858, 0.28443388], "xyz": [-4.94121810269912, 9.1667495446247, 12.10037019466272], "label": "S", "properties": {}}, {"species": [{"element": "S", "occu": 1}], "abc": [0.64234942, 0.36805881, 0.2037185], "xyz": [1.8577379352380192, 3.90187057745415, 8.666581018764], "label": "S", "properties": {}}, {"species": [{"element": "S", "occu": 1}], "abc": [0.65092684, 0.87428675, 0.28554437], "xyz": [-1.51279031396062, 9.26850180840125, 12.14761259805528], "label": "S", "properties": {}}, {"species": [{"element": "S", "occu": 1}], "abc": [0.22796635, 0.2292859, 0.28773664], "xyz": [-0.008937156443100003, 2.4307091223685, 12.24087602562816], "label": "S", "properties": {}}, {"species": [{"element": "S", "occu": 1}], "abc": [0.23285265, 0.72546245, 0.2025333], "xyz": [-3.3363880474436, 7.69078340687675, 8.6161603067352], "label": "S", "properties": {}}, {"species": [{"element": "S", "occu": 1}], "abc": [0.58392548, 0.0736381, 0.32799893], "xyz": [3.45611621082916, 0.7806533302915, 13.953712112119922], "label": "S", "properties": {}}, {"species": [{"element": "S", "occu": 1}], "abc": [0.35245231, 0.70297122, 0.37711724], "xyz": [-2.37402321619862, 7.4523490420323, 16.043300505514562], "label": "S", "properties": {}}, {"species": [{"element": "S", "occu": 1}], "abc": [0.56768332, 0.58522284, 0.32511815], "xyz": [-0.11879309929663995, 6.2040731497506005, 13.8311581306836], "label": "S", "properties": {}}, {"species": [{"element": "S", "occu": 1}], "abc": [0.09070109, 0.39375967, 0.37156532], "xyz": [-2.05258000142756, 4.17433091999905, 15.807111035782079], "label": "S", "properties": {}}, {"species": [{"element": "S", "occu": 1}], "abc": [0.64473412, 0.5741682, 0.40265837], "xyz": [0.47793464938143915, 6.086880534363, 17.12986982767128], "label": "S", "properties": {}}, {"species": [{"element": "Cl", "occu": 1}], "abc": [0.96858482, 0.43157849, 0.12460015999999999], "xyz": [3.6370805063430605, 4.57525636186535, 5.30073302911104], "label": "Cl", "properties": {}}, {"species": [{"element": "Cl", "occu": 1}], "abc": [0.86403259, 0.92507941, 0.038775250000000004], "xyz": [-0.4134629083352408, 9.80696571748315, 1.6495745140860003], "label": "Cl", "properties": {}}, {"species": [{"element": "Cl", "occu": 1}], "abc": [0.90867923, 0.42541181, 0.28307358], "xyz": [3.2731132101044396, 4.50988206134915, 12.04250038823952], "label": "Cl", "properties": {}}, {"species": [{"element": "Cl", "occu": 1}], "abc": [0.94373293, 0.94729532, 0.20329243], "xyz": [-0.024127647107980543, 10.0424813558138, 8.64845517268392], "label": "Cl", "properties": {}}, {"species": [{"element": "Cl", "occu": 1}], "abc": [0.98310803, 0.93291029, 0.36536443], "xyz": [0.3399833696866805, 9.88998256000235, 15.543313120651922], "label": "Cl", "properties": {}}]}, "formula": "(Li3PS4)5.0(Li2S)3.0(LiCl)5.0", "bandgap": 2.5185999999999997, "slab_thickness": 17.125615633271277}