{"miller": "11-1_0.12", "final_energy": -257.49063992, "gamma": 0.020963648183106993, "work_function": "Not calculated", "ionization_potentail": "Not calculated", "electron_affinity": "Not calculated", "is_stochiometric": false, "incar_parameters": {"SYSTEM": "unknown system", "LCOMPAT": false, "PREC": "normal", "ENMAX": 520.0, "ENAUG": 628.945, "EDIFF": 1e-05, "IALGO": 38, "IWAVPR": 11, "NBANDS": 176, "NBANDSLOW": -1, "NBANDSHIGH": -1, "NELECT": 288.0, "TURBO": 0, "IRESTART": 0, "NREBOOT": 0, "NMIN": 0, "EREF": 0.0, "ISMEAR": 0, "SIGMA": 0.05, "KSPACING": 0.5, "KGAMMA": true, "KBLOWUP": false, "LREAL": true, "ROPT": [-0.0005, -0.0005, -0.0005, -0.0005], "LMAXPAW": -100, "LMAXMIX": 2, "NLSPLINE": false, "ISTART": 0, "ICHARG": 2, "INIWAV": 1, "ISPIN": 1, "LNONCOLLINEAR": false, "MAGMOM": [0.6, 0.6, 0.6, 0.6, 0.6, 0.6, 0.6, 0.6, 0.6, 0.6, 0.6, 0.6, 0.6, 0.6, 0.6, 0.6, 0.6, 0.6, 0.6, 0.6, 0.6, 0.6, 0.6, 0.6, 0.6, 0.6, 0.6, 0.6, 0.6, 0.6, 0.6, 0.6, 0.6, 0.6, 0.6, 0.6, 0.6, 0.6, 0.6, 0.6, 0.6, 0.6, 0.6, 0.6, 0.6, 0.6, 0.6, 0.6, 0.6, 0.6, 0.6, 0.6, 0.6, 0.6, 0.6, 0.6, 0.6, 0.6, 0.6, 0.6, 0.6, 0.6], "NUPDOWN": -1.0, "LSORBIT": false, "SAXIS": [0.0, 0.0, 1.0], "LSPIRAL": false, "QSPIRAL": [0.0, 0.0, 0.0], "LZEROZ": false, "LASPH": false, "LMETAGGA": false, "NELM": 100, "NELMDL": -5, "NELMIN": 6, "ENINI": 520.0, "LDIAG": true, "LSUBROT": false, "WEIMIN": 0.001, "EBREAK": 1e-08, "DEPER": 0.3, "NRMM": 4, "TIME": 0.4, "AMIX": 0.4, "BMIX": 1.0, "AMIN": 0.1, "AMIX_MAG": 1.6, "BMIX_MAG": 1.0, "IMIX": 4, "MIXFIRST": false, "MAXMIX": -45, "WC": 100.0, "INIMIX": 1, "MIXPRE": 1, "MREMOVE": 5, "LDIPOL": false, "LMONO": false, "IDIPOL": 0, "EPSILON": 1.0, "DIPOL": [-100.0, -100.0, -100.0], "EFIELD": 0.0, "NGX": 56, "NGY": 40, "NGZ": 250, "NGXF": 112, "NGYF": 80, "NGZF": 500, "ADDGRID": false, "NSW": 150, "IBRION": 2, "MDALGO": 0, "ISIF": 2, "PSTRESS": 0.0, "EDIFFG": -0.01, "NFREE": 1, "POTIM": 0.5, "SMASS": -3.0, "SCALEE": 1.0, "TEBEG": 0.0001, "TEEND": 0.0001, "NBLOCK": 1, "KBLOCK": 150, "NPACO": 256, "APACO": 10.0, "ISYM": 0, "SYMPREC": 1e-05, "LORBIT": 11, "RWIGS": [-1.0, -1.0, -1.0, -1.0], "NEDOS": 301, "EMIN": 10.0, "EMAX": -10.0, "EFERMI": 0.0, "NWRITE": 2, "LWAVE": false, "LDOWNSAMPLE": false, "LCHARG": false, "LPARD": false, "LVTOT": false, "LVHAR": false, "LELF": false, "LOPTICS": false, "STM": [0.0, 0.0, 0.0, 0.0, 0.0, 0.0, 0.0], "NPAR": 1, "NSIM": 4, "NBLK": -1, "LPLANE": true, "LSCALAPACK": true, "LSCAAWARE": false, "LSCALU": false, "LASYNC": false, "LORBITALREAL": false, "IDIOT": 3, "PHON_NSTRUCT": -1, "LMUSIC": false, "POMASS": [7.01, 30.974, 32.066, 35.453], "DARWINR": [0.0, 0.0, 0.0, 0.0], "DARWINV": [1.0, 1.0, 1.0, 1.0], "LCORR": true, "GGA_COMPAT": true, "LBERRY": false, "ICORELEVEL": 0, "LDAU": false, "I_CONSTRAINED_M": 0, "GGA": "--", "VOSKOWN": 0, "LHFCALC": false, "PRECFOCK": "", "LSYMGRAD": false, "LHFONE": false, "LRHFCALC": false, "LTHOMAS": false, "LMODELHF": false, "LFOCKACE": false, "ENCUT4O": -1.0, "EXXOEP": 0, "FOURORBIT": 0, "AEXX": 0.0, "HFALPHA": 0.0, "MCALPHA": 0.0, "ALDAX": 1.0, "AGGAX": 1.0, "ALDAC": 1.0, "AGGAC": 1.0, "NKREDX": 1, "NKREDY": 1, "NKREDZ": 1, "SHIFTRED": false, "ODDONLY": false, "EVENONLY": false, "LMAXFOCK": 0, "NMAXFOCKAE": 0, "LFOCKAEDFT": false, "HFSCREEN": 0.0, "HFSCREENC": 0.0, "NBANDSGWLOW": 0, "LUSE_VDW": false, "Zab_VDW": -0.8491, "PARAM1": 0.1234, "PARAM2": 1.0, "PARAM3": 0.0, "MODEL_GW": 0, "MODEL_EPS0": 22.17008131, "MODEL_ALPHA": 1.0, "LEPSILON": false, "LRPA": false, "LNABLA": false, "LVEL": false, "CSHIFT": 0.1, "OMEGAMAX": -1.0, "DEG_THRESHOLD": 0.002, "RTIME": -0.1, "WPLASMAI": 0.0, "DFIELD": [0.0, 0.0, 0.0], "WPLASMA": [0.0, 0.0, 0.0, 0.0, 0.0, 0.0, 0.0, 0.0, 0.0], "NUCIND": false, "MAGPOS": [0.0, 0.0, 0.0], "LNICSALL": true, "ORBITALMAG": false, "LMAGBLOCH": false, "LCHIMAG": false, "LGAUGE": true, "MAGATOM": 0, "MAGDIPOL": [0.0, 0.0, 0.0], "AVECCONST": [0.0, 0.0, 0.0], "LFINITE_TEMPERATURE": false, "LADDER": false, "LRPAFORCE": false, "LFXC": false, "LHARTREE": true, "IBSE": 0, "KPOINT": [-1, 0, 0, 0], "LTCTC": false, "LTCTE": false, "LTETE": false, "LTRIPLET": false, "LFXCEPS": false, "LFXHEG": false, "NATURALO": 2, "LHOLEGF": false, "L2ORDER": false, "LDMP1": false, "LMP2LT": false, "LSMP2LT": false, "LGWLF": false, "ENCUTGW": -2.0, "ENCUTGWSOFT": -2.0, "ENCUTLF": -1.0, "LESF_SPLINES": false, "LMAXMP2": -1, "SCISSOR": 0.0, "NOMEGA": 0, "NOMEGAR": 0, "NBANDSGW": -1, "NBANDSO": -1, "NBANDSV": -1, "NELMGW": 1, "NELMHF": 1, "DIM": 3, "IESPILON": 4, "ANTIRES": 0, "OMEGAMIN": -30.0, "OMEGATL": -200.0, "OMEGAGRID": 0, "LSELFENERGY": false, "LSPECTRAL": false, "LSPECTRALGW": false, "LSINGLES": false, "LFERMIGW": false, "ODDONLYGW": false, "EVENONLYGW": false, "NKREDLFX": 1, "NKREDLFY": 1, "NKREDLFZ": 1, "MAXMEM": 2800, "TELESCOPE": 0, "NTAUPAR": -1, "NOMEGAPAR": -1, "DAMP_NEWTON": 0.80000001, "LAMBDA": 1.0, "OFIELD_KAPPA": 0.0, "OFIELD_K": [0.0, 0.0, 0.0], "OFIELD_Q6_NEAR": 0.0, "OFIELD_Q6_FAR": 0.0, "OFIELD_A": 0.0, "KPOINTS_OPT_MODE": 1, "LKPOINTS_OPT": false, "@module": "pymatgen.io.vasp.inputs", "@class": "Incar"}, "relaxed_structures": {"@module": "pymatgen.core.structure", "@class": "Structure", "charge": 0, "lattice": {"matrix": [[9.805337, 0.0, 0.0], [4.902668, 5.300607, 0.0], [0.0, 0.0, 44.077768]], "a": 9.805337, "b": 7.220290027877897, "c": 44.077768, "alpha": 90.0, "beta": 90.0, "gamma": 47.23346674215265, "volume": 2290.90840187668}, "sites": [{"species": [{"element": "Li", "occu": 1}], "abc": [0.53347759, 0.80202507, 0.022103859999999996], "xyz": [9.16299019778459, 4.25121970021749, 0.9742888129844798], "label": "Li", "properties": {}}, {"species": [{"element": "Li", "occu": 1}], "abc": [0.21605268, 0.43639943, 0.032415389999999995], "xyz": [4.2579908578324, 2.31318187345401, 1.4287980400495197], "label": "Li", "properties": {}}, {"species": [{"element": "Li", "occu": 1}], "abc": [0.86497623, 0.6372463, 0.0736095], "xyz": [11.60559047526791, 3.3777921985041006, 3.244542463596], "label": "Li", "properties": {}}, {"species": [{"element": "Li", "occu": 1}], "abc": [0.27322412, 0.65235584, 0.10264633], "xyz": [5.87733867450956, 3.4578819319948804, 4.524421119791439], "label": "Li", "properties": {}}, {"species": [{"element": "Li", "occu": 1}], "abc": [0.48677214, 0.15523421, 0.08340502], "xyz": [5.53402666878346, 0.8228355401654701, 3.6763071215953596], "label": "Li", "properties": {}}, {"species": [{"element": "Li", "occu": 1}], "abc": [0.83334655, 0.0622076, 0.029886909999999996], "xyz": [8.47622697041415, 0.3297380400132, 1.3173482852168799], "label": "Li", "properties": {}}, {"species": [{"element": "Li", "occu": 1}], "abc": [0.14226847, 0.41951083, 0.13973943], "xyz": [3.45171261471883, 2.2236620420738102, 6.1594021759922395], "label": "Li", "properties": {}}, {"species": [{"element": "Li", "occu": 1}], "abc": [0.54932568, 0.61915803, 0.1474305], "xyz": [8.4218496757782, 3.2819133879242104, 6.498407375124], "label": "Li", "properties": {}}, {"species": [{"element": "Li", "occu": 1}], "abc": [0.38416438, 0.55308488, 0.19513012], "xyz": [6.4784527517559, 2.93168558652216, 8.60090015917216], "label": "Li", "properties": {}}, {"species": [{"element": "Li", "occu": 1}], "abc": [0.65427149, 0.80310764, 0.20157589], "xyz": [10.35272257612565, 4.25695797833748, 8.88501531381352], "label": "Li", "properties": {}}, {"species": [{"element": "Li", "occu": 1}], "abc": [0.98866549, 0.18182396, 0.18711279], "xyz": [10.58562082004541, 0.9637773551437201, 8.24751414745272], "label": "Li", "properties": {}}, {"species": [{"element": "Li", "occu": 1}], "abc": [0.18300191, 0.1185813, 0.08966466], "xyz": [2.37576014410207, 0.6285528688491, 3.9522180812788794], "label": "Li", "properties": {}}, {"species": [{"element": "Li", "occu": 1}], "abc": [0.64245624, 0.56200112, 0.25006173], "xyz": [9.05480484794104, 2.9789470706798404, 11.022162920618639], "label": "Li", "properties": {}}, {"species": [{"element": "Li", "occu": 1}], "abc": [0.04904282, 0.60244138, 0.25769449], "xyz": [3.4344514531321804, 3.1933049959176603, 11.35859794509832], "label": "Li", "properties": {}}, {"species": [{"element": "Li", "occu": 1}], "abc": [0.8533394, 0.5994461, 0.3027172], "xyz": [11.306165604572598, 3.1774281937827, 13.3430985112096], "label": "Li", "properties": {}}, {"species": [{"element": "Li", "occu": 1}], "abc": [0.31788555, 0.58451416, 0.31511625], "xyz": [5.98265381295923, 3.09827984809512, 13.88962096053], "label": "Li", "properties": {}}, {"species": [{"element": "Li", "occu": 1}], "abc": [0.42749849, 0.09322718, 0.28768108], "xyz": [4.64882867355737, 0.49416064289826006, 12.680339902229438], "label": "Li", "properties": {}}, {"species": [{"element": "Li", "occu": 1}], "abc": [0.7826657, 0.07363276, 0.21375771], "xyz": [8.03529792304458, 0.39029832308532003, 9.421962749591279], "label": "Li", "properties": {}}, {"species": [{"element": "Li", "occu": 1}], "abc": [0.10025729, 0.61728758, 0.35930433], "xyz": [4.00941258042017, 3.27199886756106, 15.83733289913544], "label": "Li", "properties": {}}, {"species": [{"element": "Li", "occu": 1}], "abc": [0.54844091, 0.59007197, 0.37099458], "xyz": [8.270574912152629, 3.1277396146857903, 16.35261302649744], "label": "Li", "properties": {}}, {"species": [{"element": "Li", "occu": 1}], "abc": [0.34273815, 0.57843852, 0.4132166], "xyz": [6.19655508547791, 3.06607526818164, 18.2136654285488], "label": "Li", "properties": {}}, {"species": [{"element": "Li", "occu": 1}], "abc": [0.7637361, 0.65234416, 0.43383548], "xyz": [10.68691667778458, 3.4578200209051198, 19.12249963760864], "label": "Li", "properties": {}}, {"species": [{"element": "Li", "occu": 1}], "abc": [0.97156652, 0.16542894, 0.41132108], "xyz": [10.337580316929161, 0.87687379736658, 18.13011513774944], "label": "Li", "properties": {}}, {"species": [{"element": "Li", "occu": 1}], "abc": [0.2312931, 0.09706758, 0.32977815], "xyz": [2.74379690957814, 0.51451709402106, 14.535884787169199], "label": "Li", "properties": {}}, {"species": [{"element": "Li", "occu": 1}], "abc": [0.58814845, 0.42615784, 0.47702357], "xyz": [7.856304163394771, 2.2588952298088802, 21.02613424899176], "label": "Li", "properties": {}}, {"species": [{"element": "Li", "occu": 1}], "abc": [0.91410418, 0.81569732, 0.48870224], "xyz": [12.962192686458419, 4.32369092427324, 21.54090395580032], "label": "Li", "properties": {}}, {"species": [{"element": "Li", "occu": 1}], "abc": [0.4032077, 0.94875311, 0.45634979999999997], "xyz": [8.60500889179238, 5.0289673761377705, 20.1148806112464], "label": "Li", "properties": {}}, {"species": [{"element": "Li", "occu": 1}], "abc": [0.7438858, 0.08272327, 0.42874411], "xyz": [7.6996156871989605, 0.43848354402489004, 18.89808341194648], "label": "Li", "properties": {}}, {"species": [{"element": "P", "occu": 1}], "abc": [0.16021501, 0.9883099, 0.027220749999999995], "xyz": [6.416317486321569, 5.2386423741093004, 1.1998299032859998], "label": "P", "properties": {}}, {"species": [{"element": "P", "occu": 1}], "abc": [0.64350697, 0.02173626, 0.14353919], "xyz": [6.41636836904057, 0.11521537190982001, 6.326887115727921], "label": "P", "properties": {}}, {"species": [{"element": "P", "occu": 1}], "abc": [0.12005557, 0.04483607, 0.25472792], "xyz": [1.3970016882118501, 0.23765838649449, 11.227838160882559], "label": "P", "properties": {}}, {"species": [{"element": "P", "occu": 1}], "abc": [0.59420776, 0.04253302, 0.3642668], "xyz": [6.034932610912479, 0.22545082354314, 16.0560675005024], "label": "P", "properties": {}}, {"species": [{"element": "P", "occu": 1}], "abc": [0.08498601, 0.02708133, 0.4787886], "xyz": [0.9660872383238099, 0.14354748736731002, 21.1039328318448], "label": "P", "properties": {}}, {"species": [{"element": "S", "occu": 1}], "abc": [0.92235657, 0.26135358, 0.05298609], "xyz": [10.325346836365531, 1.3853326156230599, 2.3355085822471198], "label": "S", "properties": {}}, {"species": [{"element": "S", "occu": 1}], "abc": [0.23359012, 0.13694859, 9.99999999999994e-05], "xyz": [2.9618433163085602, 0.7259106547941301, 0.004407776799999973], "label": "S", "properties": {}}, {"species": [{"element": "S", "occu": 1}], "abc": [0.11193691, 0.79976989, 0.002171489999999998], "xyz": [5.01858537235519, 4.239265877323231, 0.09571443243431992], "label": "S", "properties": {}}, {"species": [{"element": "S", "occu": 1}], "abc": [0.3789445, 0.74324875, 0.057729619999999995], "xyz": [7.359580389461501, 3.9396695269912505, 2.5445927970881597], "label": "S", "properties": {}}, {"species": [{"element": "S", "occu": 1}], "abc": [0.16269598, 0.46371477, 0.08678724], "xyz": [3.86872847645162, 2.45796975586539, 3.82538783008032], "label": "S", "properties": {}}, {"species": [{"element": "S", "occu": 1}], "abc": [0.42107451, 0.20837162, 0.17322711999999998], "xyz": [5.15035434614203, 1.1044960675733402, 7.635464806668159], "label": "S", "properties": {}}, {"species": [{"element": "S", "occu": 1}], "abc": [0.6281031, 0.26462455, 0.11621133], "xyz": [7.4561288795441, 1.40267074210185, 5.12233604271144], "label": "S", "properties": {}}, {"species": [{"element": "S", "occu": 1}], "abc": [0.64273128, 0.79231155, 0.11570992999999999], "xyz": [10.18663728305676, 4.19973214811085, 5.100235449836239], "label": "S", "properties": {}}, {"species": [{"element": "S", "occu": 1}], "abc": [0.87710107, 0.79063466, 0.17057924], "xyz": [12.47649082168347, 4.190843613238621, 7.51875216633632], "label": "S", "properties": {}}, {"species": [{"element": "S", "occu": 1}], "abc": [0.65596981, 0.47624869, 0.19809928], "xyz": [8.766894261380891, 2.52440713995483, 8.73177410480704], "label": "S", "properties": {}}, {"species": [{"element": "S", "occu": 1}], "abc": [0.89786711, 0.23768671, 0.2833023], "xyz": [9.96918862190835, 1.25988383883297, 12.4873330532664], "label": "S", "properties": {}}, {"species": [{"element": "S", "occu": 1}], "abc": [0.13951874, 0.24821215, 0.22650304999999998], "xyz": [2.5849300285315797, 1.31567505977505, 9.983748889192398], "label": "S", "properties": {}}, {"species": [{"element": "S", "occu": 1}], "abc": [0.11111019, 0.82024201, 0.22642867], "xyz": [5.11084711176671, 4.34778053990007, 9.98047038480856], "label": "S", "properties": {}}, {"species": [{"element": "S", "occu": 1}], "abc": [0.35815428, 0.81032142, 0.28152975], "xyz": [7.48456030894092, 4.29519539110194, 12.409203005598], "label": "S", "properties": {}}, {"species": [{"element": "S", "occu": 1}], "abc": [0.14407358, 0.47349686, 0.30861944], "xyz": [3.73408790831894, 2.50982077059402, 13.60325607660992], "label": "S", "properties": {}}, {"species": [{"element": "S", "occu": 1}], "abc": [0.36651302, 0.24448338, 0.39203915], "xyz": [4.79240451964558, 1.29591031541166, 17.2802107006172], "label": "S", "properties": {}}, {"species": [{"element": "S", "occu": 1}], "abc": [0.62362201, 0.24712149, 0.33845477], "xyz": [7.32637858980269, 1.30989389974443, 14.91833083055336], "label": "S", "properties": {}}, {"species": [{"element": "S", "occu": 1}], "abc": [0.58182853, 0.82344723, 0.33569825999999997], "xyz": [9.74211319707425, 4.36477015146861, 14.796830022283679], "label": "S", "properties": {}}, {"species": [{"element": "S", "occu": 1}], "abc": [0.8329067, 0.78653502, 0.39010575], "xyz": [12.023050956491259, 4.16911303275714, 17.194990743966], "label": "S", "properties": {}}, {"species": [{"element": "S", "occu": 1}], "abc": [0.61495903, 0.50377203, 0.42413018], "xyz": [8.49970754111915, 2.6702975486222105, 18.694711675838242], "label": "S", "properties": {}}, {"species": [{"element": "S", "occu": 1}], "abc": [0.87204069, 0.17210338, 0.5078767500000001], "xyz": [9.39441857698037, 0.91225238075166, 22.386073559094005], "label": "S", "properties": {}}, {"species": [{"element": "S", "occu": 1}], "abc": [0.06684633, 0.28865061, 0.45361604], "xyz": [2.07060890169069, 1.53002344392027, 19.99438257219872], "label": "S", "properties": {}}, {"species": [{"element": "S", "occu": 1}], "abc": [0.07744925, 0.81612109, 0.44675591], "xyz": [4.76058674871537, 4.3259371625016305, 19.69200335360888], "label": "S", "properties": {}}, {"species": [{"element": "S", "occu": 1}], "abc": [0.33015029, 0.81574377, 0.5011087000000001], "xyz": [7.23655573147609, 4.32393713746839, 22.0877530213816], "label": "S", "properties": {}}, {"species": [{"element": "Cl", "occu": 1}], "abc": [0.65053896, 0.97795513, 0.037488], "xyz": [11.173343055716359, 5.1837558077639105, 1.652387366784], "label": "Cl", "properties": {}}, {"species": [{"element": "Cl", "occu": 1}], "abc": [0.19338093, 0.96643689, 0.14081901], "xyz": [6.63428440264593, 5.12270214419223, 6.20698765276968], "label": "Cl", "properties": {}}, {"species": [{"element": "Cl", "occu": 1}], "abc": [0.69092203, 0.89334453, 0.25304735], "xyz": [11.154494985080149, 4.73526826912971, 11.1537623863148], "label": "Cl", "properties": {}}, {"species": [{"element": "Cl", "occu": 1}], "abc": [0.18288333, 0.88691542, 0.36707222], "xyz": [6.14148453067277, 4.701190083659941, 16.179724152404958], "label": "Cl", "properties": {}}, {"species": [{"element": "Cl", "occu": 1}], "abc": [0.62158471, 0.00259358, 0.46853366], "xyz": [6.10756301726871, 0.01374754830306, 20.65191796567088], "label": "Cl", "properties": {}}]}, "formula": "(Li3PS4)5.0(Li2S)4.0(LiCl)5.0", "bandgap": 2.2380999999999998, "slab_thickness": 22.381665782294004}