{"miller": "11-1_0.48", "final_energy": -186.90866506, "gamma": 0.027389233352597325, "work_function": 4.954468053181149, "ionization_potentail": -5.260368053181149, "electron_affinity": -2.783968053181149, "is_stochiometric": false, "incar_parameters": {"SYSTEM": "unknown system", "LCOMPAT": false, "PREC": "normal", "ENMAX": 520.0, "ENAUG": 628.945, "EDIFF": 1e-05, "IALGO": 38, "IWAVPR": 11, "NBANDS": 130, "NBANDSLOW": -1, "NBANDSHIGH": -1, "NELECT": 212.0, "TURBO": 0, "IRESTART": 0, "NREBOOT": 0, "NMIN": 0, "EREF": 0.0, "ISMEAR": 0, "SIGMA": 0.05, "KSPACING": 0.5, "KGAMMA": true, "KBLOWUP": false, "LREAL": true, "ROPT": [-0.0005, -0.0005, -0.0005, -0.0005], "LMAXPAW": -100, "LMAXMIX": 2, "NLSPLINE": false, "ISTART": 0, "ICHARG": 2, "INIWAV": 1, "ISPIN": 1, "LNONCOLLINEAR": false, "MAGMOM": [0.6, 0.6, 0.6, 0.6, 0.6, 0.6, 0.6, 0.6, 0.6, 0.6, 0.6, 0.6, 0.6, 0.6, 0.6, 0.6, 0.6, 0.6, 0.6, 0.6, 0.6, 0.6, 0.6, 0.6, 0.6, 0.6, 0.6, 0.6, 0.6, 0.6, 0.6, 0.6, 0.6, 0.6, 0.6, 0.6, 0.6, 0.6, 0.6, 0.6, 0.6, 0.6, 0.6, 0.6, 0.6, 0.6], "NUPDOWN": -1.0, "LSORBIT": false, "SAXIS": [0.0, 0.0, 1.0], "LSPIRAL": false, "QSPIRAL": [0.0, 0.0, 0.0], "LZEROZ": false, "LASPH": false, "LMETAGGA": false, "NELM": 100, "NELMDL": -5, "NELMIN": 6, "ENINI": 520.0, "LDIAG": true, "LSUBROT": false, "WEIMIN": 0.001, "EBREAK": 2e-08, "DEPER": 0.3, "NRMM": 4, "TIME": 0.4, "AMIX": 0.4, "BMIX": 1.0, "AMIN": 0.1, "AMIX_MAG": 1.6, "BMIX_MAG": 1.0, "IMIX": 4, "MIXFIRST": false, "MAXMIX": -45, "WC": 100.0, "INIMIX": 1, "MIXPRE": 1, "MREMOVE": 5, "LDIPOL": false, "LMONO": false, "IDIPOL": 0, "EPSILON": 1.0, "DIPOL": [-100.0, -100.0, -100.0], "EFIELD": 0.0, "NGX": 56, "NGY": 40, "NGZ": 250, "NGXF": 112, "NGYF": 80, "NGZF": 500, "ADDGRID": false, "NSW": 150, "IBRION": 2, "MDALGO": 0, "ISIF": 2, "PSTRESS": 0.0, "EDIFFG": -0.01, "NFREE": 1, "POTIM": 0.5, "SMASS": -3.0, "SCALEE": 1.0, "TEBEG": 0.0001, "TEEND": 0.0001, "NBLOCK": 1, "KBLOCK": 150, "NPACO": 256, "APACO": 10.0, "ISYM": 0, "SYMPREC": 1e-05, "LORBIT": 11, "RWIGS": [-1.0, -1.0, -1.0, -1.0], "NEDOS": 301, "EMIN": 10.0, "EMAX": -10.0, "EFERMI": 0.0, "NWRITE": 2, "LWAVE": false, "LDOWNSAMPLE": false, "LCHARG": false, "LPARD": false, "LVTOT": false, "LVHAR": false, "LELF": false, "LOPTICS": false, "STM": [0.0, 0.0, 0.0, 0.0, 0.0, 0.0, 0.0], "NPAR": 1, "NSIM": 4, "NBLK": -1, "LPLANE": true, "LSCALAPACK": true, "LSCAAWARE": false, "LSCALU": false, "LASYNC": false, "LORBITALREAL": false, "IDIOT": 3, "PHON_NSTRUCT": -1, "LMUSIC": false, "POMASS": [7.01, 30.974, 32.066, 35.453], "DARWINR": [0.0, 0.0, 0.0, 0.0], "DARWINV": [1.0, 1.0, 1.0, 1.0], "LCORR": true, "GGA_COMPAT": true, "LBERRY": false, "ICORELEVEL": 0, "LDAU": false, "I_CONSTRAINED_M": 0, "GGA": "--", "VOSKOWN": 0, "LHFCALC": false, "PRECFOCK": "", "LSYMGRAD": false, "LHFONE": false, "LRHFCALC": false, "LTHOMAS": false, "LMODELHF": false, "LFOCKACE": false, "ENCUT4O": -1.0, "EXXOEP": 0, "FOURORBIT": 0, "AEXX": 0.0, "HFALPHA": 0.0, "MCALPHA": 0.0, "ALDAX": 1.0, "AGGAX": 1.0, "ALDAC": 1.0, "AGGAC": 1.0, "NKREDX": 1, "NKREDY": 1, "NKREDZ": 1, "SHIFTRED": false, "ODDONLY": false, "EVENONLY": false, "LMAXFOCK": 0, "NMAXFOCKAE": 0, "LFOCKAEDFT": false, "HFSCREEN": 0.0, "HFSCREENC": 0.0, "NBANDSGWLOW": 0, "LUSE_VDW": false, "Zab_VDW": -0.8491, "PARAM1": 0.1234, "PARAM2": 1.0, "PARAM3": 0.0, "MODEL_GW": 0, "MODEL_EPS0": 29.88141394, "MODEL_ALPHA": 1.0, "LEPSILON": false, "LRPA": false, "LNABLA": false, "LVEL": false, "CSHIFT": 0.1, "OMEGAMAX": -1.0, "DEG_THRESHOLD": 0.002, "RTIME": -0.1, "WPLASMAI": 0.0, "DFIELD": [0.0, 0.0, 0.0], "WPLASMA": [0.0, 0.0, 0.0, 0.0, 0.0, 0.0, 0.0, 0.0, 0.0], "NUCIND": false, "MAGPOS": [0.0, 0.0, 0.0], "LNICSALL": true, "ORBITALMAG": false, "LMAGBLOCH": false, "LCHIMAG": false, "LGAUGE": true, "MAGATOM": 0, "MAGDIPOL": [0.0, 0.0, 0.0], "AVECCONST": [0.0, 0.0, 0.0], "LFINITE_TEMPERATURE": false, "LADDER": false, "LRPAFORCE": false, "LFXC": false, "LHARTREE": true, "IBSE": 0, "KPOINT": [-1, 0, 0, 0], "LTCTC": false, "LTCTE": false, "LTETE": false, "LTRIPLET": false, "LFXCEPS": false, "LFXHEG": false, "NATURALO": 2, "LHOLEGF": false, "L2ORDER": false, "LDMP1": false, "LMP2LT": false, "LSMP2LT": false, "LGWLF": false, "ENCUTGW": -2.0, "ENCUTGWSOFT": -2.0, "ENCUTLF": -1.0, "LESF_SPLINES": false, "LMAXMP2": -1, "SCISSOR": 0.0, "NOMEGA": 0, "NOMEGAR": 0, "NBANDSGW": -1, "NBANDSO": -1, "NBANDSV": -1, "NELMGW": 1, "NELMHF": 1, "DIM": 3, "IESPILON": 4, "ANTIRES": 0, "OMEGAMIN": -30.0, "OMEGATL": -200.0, "OMEGAGRID": 0, "LSELFENERGY": false, "LSPECTRAL": false, "LSPECTRALGW": false, "LSINGLES": false, "LFERMIGW": false, "ODDONLYGW": false, "EVENONLYGW": false, "NKREDLFX": 1, "NKREDLFY": 1, "NKREDLFZ": 1, "MAXMEM": 2800, "TELESCOPE": 0, "NTAUPAR": -1, "NOMEGAPAR": -1, "DAMP_NEWTON": 0.80000001, "LAMBDA": 1.0, "OFIELD_KAPPA": 0.0, "OFIELD_K": [0.0, 0.0, 0.0], "OFIELD_Q6_NEAR": 0.0, "OFIELD_Q6_FAR": 0.0, "OFIELD_A": 0.0, "KPOINTS_OPT_MODE": 1, "LKPOINTS_OPT": false, "@module": "pymatgen.io.vasp.inputs", "@class": "Incar"}, "relaxed_structures": {"@module": "pymatgen.core.structure", "@class": "Structure", "charge": 0, "lattice": {"matrix": [[9.805337, 0.0, 0.0], [4.902668, 5.300607, 0.0], [0.0, 0.0, 44.077768]], "a": 9.805337, "b": 7.220290027877897, "c": 44.077768, "alpha": 90.0, "beta": 90.0, "gamma": 47.23346674215265, "volume": 2290.90840187668}, "sites": [{"species": [{"element": "Li", "occu": 1}], "abc": [0.9027318, 0.75406633, 0.08613979], "xyz": [12.548526385585038, 3.9970092672623103, 3.79684967918872], "label": "Li", "properties": {}}, {"species": [{"element": "Li", "occu": 1}], "abc": [0.66745145, 0.7698187, 0.03798427], "xyz": [10.31875190468025, 4.0805063899509, 1.67426184070936], "label": "Li", "properties": {}}, {"species": [{"element": "Li", "occu": 1}], "abc": [0.29709669, 0.2813795, 0.04518348], "xyz": [4.29264343754053, 1.4914821473565, 1.9915869488726399], "label": "Li", "properties": {}}, {"species": [{"element": "Li", "occu": 1}], "abc": [0.13867877, 0.20946559, 0.00692245], "xyz": [2.38673231978961, 1.11029477261313, 0.3051261450916], "label": "Li", "properties": {}}, {"species": [{"element": "Li", "occu": 1}], "abc": [0.10994796, 0.16848837, 0.08848423999999999], "xyz": [1.90411934023368, 0.89309063344059, 3.9001878023763195], "label": "Li", "properties": {}}, {"species": [{"element": "Li", "occu": 1}], "abc": [0.4589852, 0.57361733, 0.21091933000000002], "xyz": [7.31275989204884, 3.0405200347193104, 9.29685329445544], "label": "Li", "properties": {}}, {"species": [{"element": "Li", "occu": 1}], "abc": [0.42169421, 0.56589148, 0.1079646], "xyz": [6.90923189046741, 2.99956834012836, 4.7588385910127995], "label": "Li", "properties": {}}, {"species": [{"element": "Li", "occu": 1}], "abc": [0.20669115, 0.59274859, 0.15234564], "xyz": [4.93272592490567, 3.14192732539413, 6.71505577573152], "label": "Li", "properties": {}}, {"species": [{"element": "Li", "occu": 1}], "abc": [0.66402977, 0.577187, 0.16777267], "xyz": [9.34079190779849, 3.059441452509, 7.395044825000561], "label": "Li", "properties": {}}, {"species": [{"element": "Li", "occu": 1}], "abc": [0.80559482, 0.07563895, 0.14372819], "xyz": [8.26996135527294, 0.40093234784265, 6.33521781387992], "label": "Li", "properties": {}}, {"species": [{"element": "Li", "occu": 1}], "abc": [0.59225, 0.0682877, 0.17958481], "xyz": [6.1420027598336, 0.3619662606339001, 7.91569759150408], "label": "Li", "properties": {}}, {"species": [{"element": "Li", "occu": 1}], "abc": [0.93894117, 0.57338737, 0.32484800999999996], "xyz": [12.01776250552745, 3.03930110713359, 14.318575220041678], "label": "Li", "properties": {}}, {"species": [{"element": "Li", "occu": 1}], "abc": [0.89293657, 0.57709183, 0.22205671000000002], "xyz": [11.58483363647653, 3.05893699374081, 9.78776414622328], "label": "Li", "properties": {}}, {"species": [{"element": "Li", "occu": 1}], "abc": [0.68778942, 0.574759, 0.26541027], "xyz": [9.561859605146541, 3.0465715787130003, 11.69869230587736], "label": "Li", "properties": {}}, {"species": [{"element": "Li", "occu": 1}], "abc": [0.12646268, 0.59870494, 0.28010488], "xyz": [4.1752607461030795, 3.17349959589858, 12.34639791630784], "label": "Li", "properties": {}}, {"species": [{"element": "Li", "occu": 1}], "abc": [0.26870592, 0.07144288, 0.25227805999999997], "xyz": [2.9850128210988798, 0.37869062982816004, 11.119853800170079], "label": "Li", "properties": {}}, {"species": [{"element": "Li", "occu": 1}], "abc": [0.059622, 0.07245509, 0.29028705], "xyz": [0.93983705379412, 0.38405595723963004, 12.7952052433044], "label": "Li", "properties": {}}, {"species": [{"element": "Li", "occu": 1}], "abc": [0.27135967, 0.75328296, 0.3472935], "xyz": [6.35386927549607, 3.99285693075672, 15.307922320907998], "label": "Li", "properties": {}}, {"species": [{"element": "Li", "occu": 1}], "abc": [0.35502328, 0.27692657, 0.38758206], "xyz": [4.83880193633412, 1.46787891542799, 17.08375212164208], "label": "Li", "properties": {}}, {"species": [{"element": "Li", "occu": 1}], "abc": [0.49151457, 0.77441373, 0.39483625], "xyz": [8.61615941209173, 4.10486283813411, 17.40350062549], "label": "Li", "properties": {}}, {"species": [{"element": "Li", "occu": 1}], "abc": [0.65029507, 0.17431973, 0.34480333999999996], "xyz": [7.23099407282823, 0.92400038107611, 15.198161626145119], "label": "Li", "properties": {}}, {"species": [{"element": "Li", "occu": 1}], "abc": [0.57246746, 0.22198064, 0.42731344], "xyz": [6.701533747181541, 1.17663213424848, 18.83502267160192], "label": "Li", "properties": {}}, {"species": [{"element": "P", "occu": 1}], "abc": [0.48860948, 0.0095519, 0.10581217999999999], "xyz": [4.8378104072639605, 0.0506308680033, 4.6639647216142395], "label": "P", "properties": {}}, {"species": [{"element": "P", "occu": 1}], "abc": [0.94813057, 0.03255544, 0.21646791], "xyz": [9.456348272766009, 0.17256359315208, 9.54142231642488], "label": "P", "properties": {}}, {"species": [{"element": "P", "occu": 1}], "abc": [0.42821182, 0.01716836, 0.32717177999999997], "xyz": [4.2829319716678205, 0.09100272919452, 14.421001814987038], "label": "P", "properties": {}}, {"species": [{"element": "S", "occu": 1}], "abc": [0.53950586, 0.1865401, 0.07720083999999999], "xyz": [6.20458094976162, 0.9887757598407, 3.4028407149251194], "label": "S", "properties": {}}, {"species": [{"element": "S", "occu": 1}], "abc": [0.46529735, 0.8055351, 0.07728244], "xyz": [8.511668479603749, 4.2698249898057, 3.40643746079392], "label": "S", "properties": {}}, {"species": [{"element": "S", "occu": 1}], "abc": [0.98769257, 0.46466723, 0.04756241], "xyz": [11.962767660415729, 2.46301837200861, 2.09644487350088], "label": "S", "properties": {}}, {"species": [{"element": "S", "occu": 1}], "abc": [0.25191924, 0.23750274, 0.13065184000000002], "xyz": [3.6345501282942, 1.25890868616318, 5.75884149229312], "label": "S", "properties": {}}, {"species": [{"element": "S", "occu": 1}], "abc": [0.97747221, 0.22947772, 0.18875513000000002], "xyz": [10.70949750174173, 1.2163712089760401, 8.319904828949841], "label": "S", "properties": {}}, {"species": [{"element": "S", "occu": 1}], "abc": [0.94815453, 0.79566938, 0.18919609], "xyz": [13.197877502632451, 4.21753068531366, 8.33934136152712], "label": "S", "properties": {}}, {"species": [{"element": "S", "occu": 1}], "abc": [0.72473333, 0.7781055, 0.13264251000000002], "xyz": [10.921047471256209, 4.1244314600385, 5.846585782717681], "label": "S", "properties": {}}, {"species": [{"element": "S", "occu": 1}], "abc": [0.50357272, 0.44725653, 0.15982401000000002], "xyz": [7.13045050102868, 2.3707310937137103, 7.044685633609681], "label": "S", "properties": {}}, {"species": [{"element": "S", "occu": 1}], "abc": [0.72136121, 0.22864287, 0.24400449], "xyz": [8.19414984495493, 1.21194599722209, 10.755173301178319], "label": "S", "properties": {}}, {"species": [{"element": "S", "occu": 1}], "abc": [0.43639698, 0.2469663, 0.30265754], "xyz": [5.489813230770659, 1.3090712985441, 13.34046883157072], "label": "S", "properties": {}}, {"species": [{"element": "S", "occu": 1}], "abc": [0.42423241, 0.78495879, 0.30028963], "xyz": [8.00813408742389, 4.1607580569855305, 13.236096643945839], "label": "S", "properties": {}}, {"species": [{"element": "S", "occu": 1}], "abc": [0.18479565, 0.79873228, 0.24382581], "xyz": [5.72790281410709, 4.23376591449396, 10.74729748559208], "label": "S", "properties": {}}, {"species": [{"element": "S", "occu": 1}], "abc": [0.97801382, 0.44897989, 0.27299403], "xyz": [11.79095443510386, 2.3798659477932302, 12.03296751972504], "label": "S", "properties": {}}, {"species": [{"element": "S", "occu": 1}], "abc": [0.2004444, 0.19233946, 0.35568015], "xyz": [2.9084014074420796, 1.01951588805222, 15.677587133905199], "label": "S", "properties": {}}, {"species": [{"element": "S", "occu": 1}], "abc": [0.6555085, 0.81321137, 0.35572276999999997], "xyz": [10.41438710979966, 4.31051388030159, 15.679465728377359], "label": "S", "properties": {}}, {"species": [{"element": "S", "occu": 1}], "abc": [0.47595112, 0.46839958, 0.38592662], "xyz": [6.96326875920688, 2.48280209254506, 17.01078402138416], "label": "S", "properties": {}}, {"species": [{"element": "Cl", "occu": 1}], "abc": [0.43223968, 0.03553687, 9.99999999999994e-05], "xyz": [4.41248120254132, 0.18836698188009, 0.004407776799999973], "label": "Cl", "properties": {}}, {"species": [{"element": "Cl", "occu": 1}], "abc": [0.0519932, 0.89301951, 0.10744176], "xyz": [4.88798902276108, 4.73354546584257, 4.73579297079168], "label": "Cl", "properties": {}}, {"species": [{"element": "Cl", "occu": 1}], "abc": [0.53561886, 0.858754, 0.21641268], "xyz": [9.462109181527822, 4.551917463678, 9.53898790129824], "label": "Cl", "properties": {}}, {"species": [{"element": "Cl", "occu": 1}], "abc": [0.98303847, 0.89716098, 0.32552308999999996], "xyz": [14.03750590980903, 4.75549777071486, 14.348331239663118], "label": "Cl", "properties": {}}, {"species": [{"element": "Cl", "occu": 1}], "abc": [0.46065435, 0.0371938, 0.43309482], "xyz": [4.69921999532435, 0.1971497166366, 19.08985299796176], "label": "Cl", "properties": {}}]}, "formula": "(Li3PS4)3.0(Li2S)4.0(LiCl)5.0", "bandgap": 2.4764, "slab_thickness": 19.08544522116176}