{"miller": "11-1_0.22", "final_energy": -209.62989466, "gamma": 0.03235808280548049, "work_function": "Not calculated", "ionization_potentail": "Not calculated", "electron_affinity": "Not calculated", "is_stochiometric": false, "incar_parameters": {"SYSTEM": "unknown system", "LCOMPAT": false, "PREC": "normal", "ENMAX": 520.0, "ENAUG": 628.945, "EDIFF": 1e-05, "IALGO": 38, "IWAVPR": 11, "NBANDS": 145, "NBANDSLOW": -1, "NBANDSHIGH": -1, "NELECT": 236.0, "TURBO": 0, "IRESTART": 0, "NREBOOT": 0, "NMIN": 0, "EREF": 0.0, "ISMEAR": 0, "SIGMA": 0.05, "KSPACING": 0.5, "KGAMMA": true, "KBLOWUP": false, "LREAL": true, "ROPT": [-0.0005, -0.0005, -0.0005, -0.0005], "LMAXPAW": -100, "LMAXMIX": 2, "NLSPLINE": false, "ISTART": 0, "ICHARG": 2, "INIWAV": 1, "ISPIN": 1, "LNONCOLLINEAR": false, "MAGMOM": [0.6, 0.6, 0.6, 0.6, 0.6, 0.6, 0.6, 0.6, 0.6, 0.6, 0.6, 0.6, 0.6, 0.6, 0.6, 0.6, 0.6, 0.6, 0.6, 0.6, 0.6, 0.6, 0.6, 0.6, 0.6, 0.6, 0.6, 0.6, 0.6, 0.6, 0.6, 0.6, 0.6, 0.6, 0.6, 0.6, 0.6, 0.6, 0.6, 0.6, 0.6, 0.6, 0.6, 0.6, 0.6, 0.6, 0.6, 0.6, 0.6, 0.6, 0.6, 0.6], "NUPDOWN": -1.0, "LSORBIT": false, "SAXIS": [0.0, 0.0, 1.0], "LSPIRAL": false, "QSPIRAL": [0.0, 0.0, 0.0], "LZEROZ": false, "LASPH": false, "LMETAGGA": false, "NELM": 100, "NELMDL": -5, "NELMIN": 6, "ENINI": 520.0, "LDIAG": true, "LSUBROT": false, "WEIMIN": 0.001, "EBREAK": 2e-08, "DEPER": 0.3, "NRMM": 4, "TIME": 0.4, "AMIX": 0.4, "BMIX": 1.0, "AMIN": 0.1, "AMIX_MAG": 1.6, "BMIX_MAG": 1.0, "IMIX": 4, "MIXFIRST": false, "MAXMIX": -45, "WC": 100.0, "INIMIX": 1, "MIXPRE": 1, "MREMOVE": 5, "LDIPOL": false, "LMONO": false, "IDIPOL": 0, "EPSILON": 1.0, "DIPOL": [-100.0, -100.0, -100.0], "EFIELD": 0.0, "NGX": 56, "NGY": 40, "NGZ": 250, "NGXF": 112, "NGYF": 80, "NGZF": 500, "ADDGRID": false, "NSW": 150, "IBRION": 2, "MDALGO": 0, "ISIF": 2, "PSTRESS": 0.0, "EDIFFG": -0.01, "NFREE": 1, "POTIM": 0.5, "SMASS": -3.0, "SCALEE": 1.0, "TEBEG": 0.0001, "TEEND": 0.0001, "NBLOCK": 1, "KBLOCK": 150, "NPACO": 256, "APACO": 10.0, "ISYM": 0, "SYMPREC": 1e-05, "LORBIT": 11, "RWIGS": [-1.0, -1.0, -1.0, -1.0], "NEDOS": 301, "EMIN": 10.0, "EMAX": -10.0, "EFERMI": 0.0, "NWRITE": 2, "LWAVE": false, "LDOWNSAMPLE": false, "LCHARG": false, "LPARD": false, "LVTOT": false, "LVHAR": false, "LELF": false, "LOPTICS": false, "STM": [0.0, 0.0, 0.0, 0.0, 0.0, 0.0, 0.0], "NPAR": 1, "NSIM": 4, "NBLK": -1, "LPLANE": true, "LSCALAPACK": true, "LSCAAWARE": false, "LSCALU": false, "LASYNC": false, "LORBITALREAL": false, "IDIOT": 3, "PHON_NSTRUCT": -1, "LMUSIC": false, "POMASS": [7.01, 30.974, 32.066, 35.453], "DARWINR": [0.0, 0.0, 0.0, 0.0], "DARWINV": [1.0, 1.0, 1.0, 1.0], "LCORR": true, "GGA_COMPAT": true, "LBERRY": false, "ICORELEVEL": 0, "LDAU": false, "I_CONSTRAINED_M": 0, "GGA": "--", "VOSKOWN": 0, "LHFCALC": false, "PRECFOCK": "", "LSYMGRAD": false, "LHFONE": false, "LRHFCALC": false, "LTHOMAS": false, "LMODELHF": false, "LFOCKACE": false, "ENCUT4O": -1.0, "EXXOEP": 0, "FOURORBIT": 0, "AEXX": 0.0, "HFALPHA": 0.0, "MCALPHA": 0.0, "ALDAX": 1.0, "AGGAX": 1.0, "ALDAC": 1.0, "AGGAC": 1.0, "NKREDX": 1, "NKREDY": 1, "NKREDZ": 1, "SHIFTRED": false, "ODDONLY": false, "EVENONLY": false, "LMAXFOCK": 0, "NMAXFOCKAE": 0, "LFOCKAEDFT": false, "HFSCREEN": 0.0, "HFSCREENC": 0.0, "NBANDSGWLOW": 0, "LUSE_VDW": false, "Zab_VDW": -0.8491, "PARAM1": 0.1234, "PARAM2": 1.0, "PARAM3": 0.0, "MODEL_GW": 0, "MODEL_EPS0": 26.43355848, "MODEL_ALPHA": 1.0, "LEPSILON": false, "LRPA": false, "LNABLA": false, "LVEL": false, "CSHIFT": 0.1, "OMEGAMAX": -1.0, "DEG_THRESHOLD": 0.002, "RTIME": -0.1, "WPLASMAI": 0.0, "DFIELD": [0.0, 0.0, 0.0], "WPLASMA": [0.0, 0.0, 0.0, 0.0, 0.0, 0.0, 0.0, 0.0, 0.0], "NUCIND": false, "MAGPOS": [0.0, 0.0, 0.0], "LNICSALL": true, "ORBITALMAG": false, "LMAGBLOCH": false, "LCHIMAG": false, "LGAUGE": true, "MAGATOM": 0, "MAGDIPOL": [0.0, 0.0, 0.0], "AVECCONST": [0.0, 0.0, 0.0], "LFINITE_TEMPERATURE": false, "LADDER": false, "LRPAFORCE": false, "LFXC": false, "LHARTREE": true, "IBSE": 0, "KPOINT": [-1, 0, 0, 0], "LTCTC": false, "LTCTE": false, "LTETE": false, "LTRIPLET": false, "LFXCEPS": false, "LFXHEG": false, "NATURALO": 2, "LHOLEGF": false, "L2ORDER": false, "LDMP1": false, "LMP2LT": false, "LSMP2LT": false, "LGWLF": false, "ENCUTGW": -2.0, "ENCUTGWSOFT": -2.0, "ENCUTLF": -1.0, "LESF_SPLINES": false, "LMAXMP2": -1, "SCISSOR": 0.0, "NOMEGA": 0, "NOMEGAR": 0, "NBANDSGW": -1, "NBANDSO": -1, "NBANDSV": -1, "NELMGW": 1, "NELMHF": 1, "DIM": 3, "IESPILON": 4, "ANTIRES": 0, "OMEGAMIN": -30.0, "OMEGATL": -200.0, "OMEGAGRID": 0, "LSELFENERGY": false, "LSPECTRAL": false, "LSPECTRALGW": false, "LSINGLES": false, "LFERMIGW": false, "ODDONLYGW": false, "EVENONLYGW": false, "NKREDLFX": 1, "NKREDLFY": 1, "NKREDLFZ": 1, "MAXMEM": 2800, "TELESCOPE": 0, "NTAUPAR": -1, "NOMEGAPAR": -1, "DAMP_NEWTON": 0.80000001, "LAMBDA": 1.0, "OFIELD_KAPPA": 0.0, "OFIELD_K": [0.0, 0.0, 0.0], "OFIELD_Q6_NEAR": 0.0, "OFIELD_Q6_FAR": 0.0, "OFIELD_A": 0.0, "KPOINTS_OPT_MODE": 1, "LKPOINTS_OPT": false, "@module": "pymatgen.io.vasp.inputs", "@class": "Incar"}, "relaxed_structures": {"@module": "pymatgen.core.structure", "@class": "Structure", "charge": 0, "lattice": {"matrix": [[9.805337, 0.0, 0.0], [4.902668, 5.300607, 0.0], [0.0, 0.0, 44.077768]], "a": 9.805337, "b": 7.220290027877897, "c": 44.077768, "alpha": 90.0, "beta": 90.0, "gamma": 47.23346674215265, "volume": 2290.90840187668}, "sites": [{"species": [{"element": "Li", "occu": 1}], "abc": [0.50390476, 0.66373844, 9.99999999999994e-05], "xyz": [8.19504519786204, 3.5182166212330803, 0.004407776799999973], "label": "Li", "properties": {}}, {"species": [{"element": "Li", "occu": 1}], "abc": [0.00651532, 0.33497495, 0.019160379999999998], "xyz": [1.70615587642944, 1.77557056479465, 0.8445467844318398], "label": "Li", "properties": {}}, {"species": [{"element": "Li", "occu": 1}], "abc": [0.78116281, 0.79927072, 0.05312450999999999], "xyz": [11.578123586197929, 4.23661997332704, 2.34160982689368], "label": "Li", "properties": {}}, {"species": [{"element": "Li", "occu": 1}], "abc": [0.25766318, 0.60000489, 0.052138689999999994], "xyz": [5.46809908643818, 3.18039011996823, 2.29815708164392], "label": "Li", "properties": {}}, {"species": [{"element": "Li", "occu": 1}], "abc": [0.38273204, 0.05617681, 0.037809520000000006], "xyz": [4.02823288162656, 0.29777119232367, 1.6665592507513602], "label": "Li", "properties": {}}, {"species": [{"element": "Li", "occu": 1}], "abc": [0.18645202, 0.07621585, 0.07622904999999999], "xyz": [2.20188589931854, 0.40399026802095, 3.3600063807603995], "label": "Li", "properties": {}}, {"species": [{"element": "Li", "occu": 1}], "abc": [0.08488702, 0.58586079, 0.10691871], "xyz": [3.7046267856134603, 3.10541780449953, 4.71273809423928], "label": "Li", "properties": {}}, {"species": [{"element": "Li", "occu": 1}], "abc": [0.50597317, 0.55617575, 0.11437032], "xyz": [7.68798249670929, 2.94806907368025, 5.04118843104576], "label": "Li", "properties": {}}, {"species": [{"element": "Li", "occu": 1}], "abc": [0.26027106, 0.79934079, 0.16413703999999998], "xyz": [6.47094796687494, 4.23699138685953, 7.234794369326719], "label": "Li", "properties": {}}, {"species": [{"element": "Li", "occu": 1}], "abc": [0.7926867, 0.53240005, 0.16780034], "xyz": [10.382740917251299, 2.8220434318303504, 7.396264456841119], "label": "Li", "properties": {}}, {"species": [{"element": "Li", "occu": 1}], "abc": [0.86533759, 0.06761314, 0.15042376999999998], "xyz": [8.81641146657535, 0.35839068317598005, 6.63034403574536], "label": "Li", "properties": {}}, {"species": [{"element": "Li", "occu": 1}], "abc": [0.56237706, 0.16696225, 0.17837492], "xyz": [6.332857074652219, 0.8850012710857501, 7.862368340778559], "label": "Li", "properties": {}}, {"species": [{"element": "Li", "occu": 1}], "abc": [0.54180158, 0.62242628, 0.21735197], "xyz": [8.3640964843475, 3.29923709675196, 9.58038970800296], "label": "Li", "properties": {}}, {"species": [{"element": "Li", "occu": 1}], "abc": [0.17201782, 0.40788614, 0.22431642000000002], "xyz": [3.68642302132686, 2.16204412888698, 9.88736711935056], "label": "Li", "properties": {}}, {"species": [{"element": "Li", "occu": 1}], "abc": [0.78987673, 0.66454366, 0.25999201], "xyz": [11.00304446259289, 3.5224847760016202, 11.45986749863368], "label": "Li", "properties": {}}, {"species": [{"element": "Li", "occu": 1}], "abc": [0.15327183, 0.70664019, 0.29796582], "xyz": [4.96730419278363, 3.74562193759533, 13.13366828588976], "label": "Li", "properties": {}}, {"species": [{"element": "Li", "occu": 1}], "abc": [0.41655522, 0.16736807, 0.2784426], "xyz": [4.9050143922199, 0.8871523634184901, 12.273128324116799], "label": "Li", "properties": {}}, {"species": [{"element": "Li", "occu": 1}], "abc": [0.09603561, 0.14994581, 0.2788999], "xyz": [1.6767960444716499, 0.7948038101066701, 12.293285087423198], "label": "Li", "properties": {}}, {"species": [{"element": "Li", "occu": 1}], "abc": [0.95608095, 0.49534023, 0.32269638], "xyz": [11.80318460876379, 2.62560389051961, 14.22373617207984], "label": "Li", "properties": {}}, {"species": [{"element": "Li", "occu": 1}], "abc": [0.67602084, 0.42720953, 0.34105789], "xyz": [8.72307864724912, 2.26446982518471, 15.03307054998952], "label": "Li", "properties": {}}, {"species": [{"element": "Li", "occu": 1}], "abc": [0.4839901, 0.37413943, 0.40900004], "xyz": [6.579967446162939, 1.98316608163401, 18.02780887511072], "label": "Li", "properties": {}}, {"species": [{"element": "Li", "occu": 1}], "abc": [0.69770976, 0.75646187, 0.40202786], "xyz": [10.549960728258279, 4.0097070833550905, 17.72049074261648], "label": "Li", "properties": {}}, {"species": [{"element": "Li", "occu": 1}], "abc": [0.97161764, 0.03289649, 0.37578855], "xyz": [9.688318964179999, 0.17437136516943, 16.563920523956398], "label": "Li", "properties": {}}, {"species": [{"element": "Li", "occu": 1}], "abc": [0.87745777, 0.12279287, 0.43345187], "xyz": [9.205781812495651, 0.65087674627209, 19.10559096502616], "label": "Li", "properties": {}}, {"species": [{"element": "Li", "occu": 1}], "abc": [0.38190058, 0.82214916, 0.39254092], "xyz": [7.775388265354341, 4.35788959254012, 17.302327602266562], "label": "Li", "properties": {}}, {"species": [{"element": "Li", "occu": 1}], "abc": [0.03703195, 0.65459986, 0.41425752], "xyz": [3.5723965359436303, 3.4697766001150203, 18.25954685881536], "label": "Li", "properties": {}}, {"species": [{"element": "P", "occu": 1}], "abc": [0.55525876, 0.02946552, 0.11032029999999998], "xyz": [5.58895892600948, 0.15618514157064, 4.8626725890903995], "label": "P", "properties": {}}, {"species": [{"element": "P", "occu": 1}], "abc": [0.05082732, 0.02032306, 0.22179481], "xyz": [0.59801621733092, 0.10772455409742, 9.77622017878408], "label": "P", "properties": {}}, {"species": [{"element": "P", "occu": 1}], "abc": [0.58838222, 0.0222292, 0.34206011], "xyz": [5.878268339413739, 0.11782825312440001, 15.077246170634478], "label": "P", "properties": {}}, {"species": [{"element": "S", "occu": 1}], "abc": [0.23608312, 0.89679725, 0.025066730000000002], "xyz": [6.71157373167444, 4.75356978093075, 1.10488550945864], "label": "S", "properties": {}}, {"species": [{"element": "S", "occu": 1}], "abc": [0.1009222, 0.46168914, 0.05670729], "xyz": [3.2530847544069204, 2.44723268730798, 2.49953077252872], "label": "S", "properties": {}}, {"species": [{"element": "S", "occu": 1}], "abc": [0.33811119, 0.24292594, 0.13929097999999998], "xyz": [4.50627939382895, 1.2876549380455802, 6.139635500932639], "label": "S", "properties": {}}, {"species": [{"element": "S", "occu": 1}], "abc": [0.58134837, 0.22356309, 0.07992793000000001], "xyz": [6.79637228957481, 1.18502007979563, 3.52304475526024], "label": "S", "properties": {}}, {"species": [{"element": "S", "occu": 1}], "abc": [0.55452429, 0.79490329, 0.08366325999999999], "xyz": [9.33444446111345, 4.213469943297031, 3.6876897644036792], "label": "S", "properties": {}}, {"species": [{"element": "S", "occu": 1}], "abc": [0.7931042, 0.81039338, 0.13765021], "xyz": [11.74974364865324, 4.29557682278166, 6.0673140215312795], "label": "S", "properties": {}}, {"species": [{"element": "S", "occu": 1}], "abc": [0.58751029, 0.47249563, 0.16634635], "xyz": [8.07722558975857, 2.5045136438474103, 7.3321758229468], "label": "S", "properties": {}}, {"species": [{"element": "S", "occu": 1}], "abc": [0.82308935, 0.27326882, 0.24872803999999998], "xyz": [9.410414757072711, 1.4484906201737402, 10.96337684221472], "label": "S", "properties": {}}, {"species": [{"element": "S", "occu": 1}], "abc": [0.09519556, 0.1987405, 0.19226563], "xyz": [1.9077832363577198, 1.0534452854835, 8.474639833513839], "label": "S", "properties": {}}, {"species": [{"element": "S", "occu": 1}], "abc": [0.04111327, 0.79678021, 0.19461156999999998], "xyz": [4.30947830612227, 4.22341875858747, 8.57804363257576], "label": "S", "properties": {}}, {"species": [{"element": "S", "occu": 1}], "abc": [0.27867192, 0.77819353, 0.24995449999999997], "xyz": [6.54769660537508, 4.1248980724727105, 11.017436461555999], "label": "S", "properties": {}}, {"species": [{"element": "S", "occu": 1}], "abc": [0.08770454, 0.47668914, 0.27619404999999997], "xyz": [3.1970211637555, 2.52674179230798, 12.174017258880399], "label": "S", "properties": {}}, {"species": [{"element": "S", "occu": 1}], "abc": [0.40660631, 0.14232386, 0.37720954], "xyz": [4.68467852993495, 0.75440284858302, 16.62655459150672], "label": "S", "properties": {}}, {"species": [{"element": "S", "occu": 1}], "abc": [0.51155974, 0.31873245, 0.31676463], "xyz": [6.57865502950898, 1.68947545559715, 13.962277871745838], "label": "S", "properties": {}}, {"species": [{"element": "S", "occu": 1}], "abc": [0.59610243, 0.79088957, 0.31215514], "xyz": [9.72245419904167, 4.1921947909689905, 13.759101840927519], "label": "S", "properties": {}}, {"species": [{"element": "S", "occu": 1}], "abc": [0.85559436, 0.80569054, 0.35942085], "xyz": [12.33942426346004, 4.27064891615778, 15.8424688406628], "label": "S", "properties": {}}, {"species": [{"element": "S", "occu": 1}], "abc": [0.69312155, 0.43466513, 0.39489747999999997], "xyz": [8.92730920327919, 2.30398903073391, 17.40619950722464], "label": "S", "properties": {}}, {"species": [{"element": "S", "occu": 1}], "abc": [0.18313183, 0.7960979, 0.41547003], "xyz": [5.69867300777391, 4.219802101425301, 18.312991593293038], "label": "S", "properties": {}}, {"species": [{"element": "Cl", "occu": 1}], "abc": [0.6976666, 0.72914958, 0.003989180000000002], "xyz": [10.41563443972364, 3.86493536779506, 0.17583415055024007], "label": "Cl", "properties": {}}, {"species": [{"element": "Cl", "occu": 1}], "abc": [0.13121768, 0.89049687, 0.11354265999999999], "xyz": [5.65244408140732, 4.72017394260009, 5.00470702558288], "label": "Cl", "properties": {}}, {"species": [{"element": "Cl", "occu": 1}], "abc": [0.54393602, 0.9900551, 0.22580497], "xyz": [10.187387439545539, 5.2478929934457, 9.95297908090696], "label": "Cl", "properties": {}}, {"species": [{"element": "Cl", "occu": 1}], "abc": [0.03117846, 0.09486567, 0.327011], "xyz": [0.77081019204858, 0.5028456344616901, 14.413914991448], "label": "Cl", "properties": {}}, {"species": [{"element": "Cl", "occu": 1}], "abc": [0.75872032, 0.9180456, 0.44104895], "xyz": [11.94038121200864, 4.8661989336792, 19.440453294743598], "label": "Cl", "properties": {}}]}, "formula": "(Li3PS4)3.0(Li2S)6.0(LiCl)5.0", "bandgap": 1.9617999999999998, "slab_thickness": 19.436045517943597}