{"miller": "110_0.38", "final_energy": -429.85651198, "gamma": 0.023133530883623573, "work_function": "Not calculated", "ionization_potentail": "Not calculated", "electron_affinity": "Not calculated", "is_stochiometric": true, "incar_parameters": {"SYSTEM": "unknown system", "LCOMPAT": false, "PREC": "normal", "ENMAX": 520.0, "ENAUG": 628.945, "EDIFF": 1e-05, "IALGO": 38, "IWAVPR": 11, "NBANDS": 293, "NBANDSLOW": -1, "NBANDSHIGH": -1, "NELECT": 480.0, "TURBO": 0, "IRESTART": 0, "NREBOOT": 0, "NMIN": 0, "EREF": 0.0, "ISMEAR": 0, "SIGMA": 0.05, "KSPACING": 0.5, "KGAMMA": true, "KBLOWUP": true, "LREAL": true, "ROPT": [-0.0005, -0.0005, -0.0005, -0.0005], "LMAXPAW": -100, "LMAXMIX": 2, "NLSPLINE": false, "ISTART": 0, "ICHARG": 2, "INIWAV": 1, "ISPIN": 1, "LNONCOLLINEAR": false, "MAGMOM": [0.6, 0.6, 0.6, 0.6, 0.6, 0.6, 0.6, 0.6, 0.6, 0.6, 0.6, 0.6, 0.6, 0.6, 0.6, 0.6, 0.6, 0.6, 0.6, 0.6, 0.6, 0.6, 0.6, 0.6, 0.6, 0.6, 0.6, 0.6, 0.6, 0.6, 0.6, 0.6, 0.6, 0.6, 0.6, 0.6, 0.6, 0.6, 0.6, 0.6, 0.6, 0.6, 0.6, 0.6, 0.6, 0.6, 0.6, 0.6, 0.6, 0.6, 0.6, 0.6, 0.6, 0.6, 0.6, 0.6, 0.6, 0.6, 0.6, 0.6, 0.6, 0.6, 0.6, 0.6, 0.6, 0.6, 0.6, 0.6, 0.6, 0.6, 0.6, 0.6, 0.6, 0.6, 0.6, 0.6, 0.6, 0.6, 0.6, 0.6, 0.6, 0.6, 0.6, 0.6, 0.6, 0.6, 0.6, 0.6, 0.6, 0.6, 0.6, 0.6, 0.6, 0.6, 0.6, 0.6, 0.6, 0.6, 0.6, 0.6, 0.6, 0.6, 0.6, 0.6], "NUPDOWN": -1.0, "LSORBIT": false, "SAXIS": [0.0, 0.0, 1.0], "LSPIRAL": false, "QSPIRAL": [0.0, 0.0, 0.0], "LZEROZ": false, "LASPH": false, "LMETAGGA": false, "NELM": 100, "NELMDL": -5, "NELMIN": 6, "ENINI": 520.0, "LDIAG": true, "LSUBROT": false, "WEIMIN": 0.001, "EBREAK": 1e-08, "DEPER": 0.3, "NRMM": 4, "TIME": 0.4, "AMIX": 0.4, "BMIX": 1.0, "AMIN": 0.1, "AMIX_MAG": 1.6, "BMIX_MAG": 1.0, "IMIX": 4, "MIXFIRST": false, "MAXMIX": -45, "WC": 100.0, "INIMIX": 1, "MIXPRE": 1, "MREMOVE": 5, "LDIPOL": false, "LMONO": false, "IDIPOL": 0, "EPSILON": 1.0, "DIPOL": [-100.0, -100.0, -100.0], "EFIELD": 0.0, "NGX": 60, "NGY": 56, "NGZ": 250, "NGXF": 120, "NGYF": 112, "NGZF": 500, "ADDGRID": false, "NSW": 150, "IBRION": 2, "MDALGO": 0, "ISIF": 2, "PSTRESS": 0.0, "EDIFFG": -0.01, "NFREE": 1, "POTIM": 0.5, "SMASS": -3.0, "SCALEE": 1.0, "TEBEG": 0.0001, "TEEND": 0.0001, "NBLOCK": 1, "KBLOCK": 150, "NPACO": 256, "APACO": 10.0, "ISYM": 0, "SYMPREC": 1e-05, "LORBIT": 11, "RWIGS": [-1.0, -1.0, -1.0, -1.0], "NEDOS": 301, "EMIN": 10.0, "EMAX": -10.0, "EFERMI": 0.0, "NWRITE": 2, "LWAVE": false, "LDOWNSAMPLE": false, "LCHARG": false, "LPARD": false, "LVTOT": false, "LVHAR": false, "LELF": false, "LOPTICS": false, "STM": [0.0, 0.0, 0.0, 0.0, 0.0, 0.0, 0.0], "NPAR": 1, "NSIM": 1, "NBLK": -1, "LPLANE": true, "LSCALAPACK": true, "LSCAAWARE": false, "LSCALU": false, "LASYNC": false, "LORBITALREAL": false, "IDIOT": 3, "PHON_NSTRUCT": -1, "LMUSIC": false, "POMASS": [7.01, 30.974, 32.066, 35.453], "DARWINR": [0.0, 0.0, 0.0, 0.0], "DARWINV": [1.0, 1.0, 1.0, 1.0], "LCORR": true, "GGA_COMPAT": true, "LBERRY": false, "ICORELEVEL": 0, "LDAU": false, "I_CONSTRAINED_M": 0, "GGA": "--", "VOSKOWN": 0, "LHFCALC": false, "PRECFOCK": "", "LSYMGRAD": false, "LHFONE": false, "LRHFCALC": false, "LTHOMAS": false, "LMODELHF": false, "LFOCKACE": false, "ENCUT4O": -1.0, "EXXOEP": 0, "FOURORBIT": 0, "AEXX": 0.0, "HFALPHA": 0.0, "MCALPHA": 0.0, "ALDAX": 1.0, "AGGAX": 1.0, "ALDAC": 1.0, "AGGAC": 1.0, "NKREDX": 1, "NKREDY": 1, "NKREDZ": 1, "SHIFTRED": false, "ODDONLY": false, "EVENONLY": false, "LMAXFOCK": 0, "NMAXFOCKAE": 0, "LFOCKAEDFT": false, "HFSCREEN": 0.0, "HFSCREENC": 0.0, "NBANDSGWLOW": 0, "LUSE_VDW": false, "Zab_VDW": -0.8491, "PARAM1": 0.1234, "PARAM2": 1.0, "PARAM3": 0.0, "MODEL_GW": 0, "MODEL_EPS0": 26.42375803, "MODEL_ALPHA": 1.0, "LEPSILON": false, "LRPA": false, "LNABLA": false, "LVEL": false, "CSHIFT": 0.1, "OMEGAMAX": -1.0, "DEG_THRESHOLD": 0.002, "RTIME": -0.1, "WPLASMAI": 0.0, "DFIELD": [0.0, 0.0, 0.0], "WPLASMA": [0.0, 0.0, 0.0, 0.0, 0.0, 0.0, 0.0, 0.0, 0.0], "NUCIND": false, "MAGPOS": [0.0, 0.0, 0.0], "LNICSALL": true, "ORBITALMAG": false, "LMAGBLOCH": false, "LCHIMAG": false, "LGAUGE": true, "MAGATOM": 0, "MAGDIPOL": [0.0, 0.0, 0.0], "AVECCONST": [0.0, 0.0, 0.0], "LFINITE_TEMPERATURE": false, "LADDER": false, "LRPAFORCE": false, "LFXC": false, "LHARTREE": true, "IBSE": 0, "KPOINT": [-1, 0, 0, 0], "LTCTC": false, "LTCTE": false, "LTETE": false, "LTRIPLET": false, "LFXCEPS": false, "LFXHEG": false, "NATURALO": 2, "LHOLEGF": false, "L2ORDER": false, "LDMP1": false, "LMP2LT": false, "LSMP2LT": false, "LGWLF": false, "ENCUTGW": -2.0, "ENCUTGWSOFT": -2.0, "ENCUTLF": -1.0, "LESF_SPLINES": false, "LMAXMP2": -1, "SCISSOR": 0.0, "NOMEGA": 0, "NOMEGAR": 0, "NBANDSGW": -1, "NBANDSO": -1, "NBANDSV": -1, "NELMGW": 1, "NELMHF": 1, "DIM": 3, "IESPILON": 4, "ANTIRES": 0, "OMEGAMIN": -30.0, "OMEGATL": -200.0, "OMEGAGRID": 0, "LSELFENERGY": false, "LSPECTRAL": false, "LSPECTRALGW": false, "LSINGLES": false, "LFERMIGW": false, "ODDONLYGW": false, "EVENONLYGW": false, "NKREDLFX": 1, "NKREDLFY": 1, "NKREDLFZ": 1, "MAXMEM": 2800, "TELESCOPE": 0, "NTAUPAR": -1, "NOMEGAPAR": -1, "DAMP_NEWTON": 0.80000001, "LAMBDA": 1.0, "OFIELD_KAPPA": 0.0, "OFIELD_K": [0.0, 0.0, 0.0], "OFIELD_Q6_NEAR": 0.0, "OFIELD_Q6_FAR": 0.0, "OFIELD_A": 0.0, "KPOINTS_OPT_MODE": 1, "LKPOINTS_OPT": false, "@module": "pymatgen.io.vasp.inputs", "@class": "Incar"}, "relaxed_structures": {"@module": "pymatgen.core.structure", "@class": "Structure", "charge": 0, "lattice": {"matrix": [[10.604103, 0.0, 0.0], [0.0, 9.802244, 0.0], [0.0, 0.0, 44.063321]], "a": 10.604103, "b": 9.802244, "c": 44.063321, "alpha": 90.0, "beta": 90.0, "gamma": 90.0, "volume": 4580.118058654865}, "sites": [{"species": [{"element": "Li", "occu": 1}], "abc": [0.6072397, 0.78475954, 0.00010000000000000026], "xyz": [6.439232324489101, 7.692404492407761, 0.0044063321000000115], "label": "Li", "properties": {}}, {"species": [{"element": "Li", "occu": 1}], "abc": [0.77578447, 0.49971163, 0.06078936], "xyz": [8.22649842568041, 4.8982953268977205, 2.67858108306456], "label": "Li", "properties": {}}, {"species": [{"element": "Li", "occu": 1}], "abc": [0.89218425, 0.11230265, 0.0066314500000000005], "xyz": [9.46081368197775, 1.1008179771466, 0.29220371004545004], "label": "Li", "properties": {}}, {"species": [{"element": "Li", "occu": 1}], "abc": [0.55778687, 0.0209279, 0.0367315], "xyz": [5.91482942152761, 0.2051403822076, 1.6185118753115], "label": "Li", "properties": {}}, {"species": [{"element": "Li", "occu": 1}], "abc": [0.276767, 0.97676509, 0.0640814], "xyz": [2.934865775001, 9.57448974286196, 2.8236392983294], "label": "Li", "properties": {}}, {"species": [{"element": "Li", "occu": 1}], "abc": [0.3041659, 0.3847142, 0.05877059], "xyz": [3.2254065326877, 3.7710624586648, 2.58962737252939], "label": "Li", "properties": {}}, {"species": [{"element": "Li", "occu": 1}], "abc": [0.98080729, 0.5081512, 0.10476106], "xyz": [10.40058152631087, 4.9810220512928005, 4.616120215080261], "label": "Li", "properties": {}}, {"species": [{"element": "Li", "occu": 1}], "abc": [0.02697968, 0.87953256, 0.1002863], "xyz": [0.28609530562704, 8.62139275906464, 4.4189474288023], "label": "Li", "properties": {}}, {"species": [{"element": "Li", "occu": 1}], "abc": [0.79730826, 0.88411341, 0.0526102], "xyz": [8.45473891179078, 8.66629536849204, 2.3181801304742002], "label": "Li", "properties": {}}, {"species": [{"element": "Li", "occu": 1}], "abc": [0.5747032, 0.30335473, 0.10433278], "xyz": [6.0942119272296, 2.97355708201412, 4.59724877596238], "label": "Li", "properties": {}}, {"species": [{"element": "Li", "occu": 1}], "abc": [0.81071014, 0.24011037, 0.12716721], "xyz": [8.59685382770442, 2.35362043367028, 5.60340959490441], "label": "Li", "properties": {}}, {"species": [{"element": "Li", "occu": 1}], "abc": [0.7838756, 0.70385671, 0.10916265], "xyz": [8.3122976015868, 6.89937521245724, 4.81006888816065], "label": "Li", "properties": {}}, {"species": [{"element": "Li", "occu": 1}], "abc": [0.80426518, 0.01542159, 0.17844158], "xyz": [8.528510808033541, 0.15116618804796, 7.8627286192871795], "label": "Li", "properties": {}}, {"species": [{"element": "Li", "occu": 1}], "abc": [0.77810536, 0.45772123, 0.16889746], "xyz": [8.25110938229208, 4.48669518044012, 7.44218299606466], "label": "Li", "properties": {}}, {"species": [{"element": "Li", "occu": 1}], "abc": [0.28500632, 0.73869626, 0.12198421000000001], "xyz": [3.02223637293096, 7.24088098240744, 5.3750294021614105], "label": "Li", "properties": {}}, {"species": [{"element": "Li", "occu": 1}], "abc": [0.31853085, 0.17831487, 0.11038279], "xyz": [3.37773394207755, 1.7478858645682798, 4.86383230864559], "label": "Li", "properties": {}}, {"species": [{"element": "Li", "occu": 1}], "abc": [0.30148989, 0.50969114, 0.17784551], "xyz": [3.19702984701867, 4.99611691891816, 7.836463795538711], "label": "Li", "properties": {}}, {"species": [{"element": "Li", "occu": 1}], "abc": [0.28656395, 0.9406036, 0.16751325], "xyz": [3.03875364188685, 9.2200259944784, 7.381190106503251], "label": "Li", "properties": {}}, {"species": [{"element": "Li", "occu": 1}], "abc": [0.06177538, 0.12312872, 0.12901343], "xyz": [0.65507249238414, 1.20693775684768, 5.684760179401031], "label": "Li", "properties": {}}, {"species": [{"element": "Li", "occu": 1}], "abc": [0.04093184, 0.39225113, 0.2083321], "xyz": [0.43404544733952, 3.84494128553572, 9.1798041969041], "label": "Li", "properties": {}}, {"species": [{"element": "Li", "occu": 1}], "abc": [0.54149406, 0.58417765, 0.12614516], "xyz": [5.74205878612818, 5.7262518646466, 5.558374677676361], "label": "Li", "properties": {}}, {"species": [{"element": "Li", "occu": 1}], "abc": [0.54210079, 0.8862718, 0.20715211], "xyz": [5.74849261354137, 8.6874524339192, 9.127809918757311], "label": "Li", "properties": {}}, {"species": [{"element": "Li", "occu": 1}], "abc": [0.79383789, 0.76221967, 0.23600347], "xyz": [8.417938750862671, 7.47146318693948, 10.39909665572387], "label": "Li", "properties": {}}, {"species": [{"element": "Li", "occu": 1}], "abc": [0.7944675, 0.21602983, 0.22300628], "xyz": [8.4246152001525, 2.11757710493852, 9.82639730065588], "label": "Li", "properties": {}}, {"species": [{"element": "Li", "occu": 1}], "abc": [0.78441117, 0.53054236, 0.28975459000000003], "xyz": [8.31797684103051, 5.200505665055839, 12.767549510393392], "label": "Li", "properties": {}}, {"species": [{"element": "Li", "occu": 1}], "abc": [0.80208615, 0.9639651, 0.27883276999999995], "xyz": [8.505404149473451, 9.449021117684401, 12.286297849829168], "label": "Li", "properties": {}}, {"species": [{"element": "Li", "occu": 1}], "abc": [0.29393781, 0.25764448, 0.2339842], "xyz": [3.1169468128344304, 2.5254940582131202, 10.3101209135282], "label": "Li", "properties": {}}, {"species": [{"element": "Li", "occu": 1}], "abc": [0.29483057, 0.71067197, 0.22129159], "xyz": [3.1264137318287104, 6.96618005390068, 9.75084236477039], "label": "Li", "properties": {}}, {"species": [{"element": "Li", "occu": 1}], "abc": [0.27525799, 0.01462163, 0.28825555], "xyz": [2.91886407753297, 0.14332478493772, 12.701496829681552], "label": "Li", "properties": {}}, {"species": [{"element": "Li", "occu": 1}], "abc": [0.3042378, 0.45842091, 0.27877331000000005], "xyz": [3.2261689676934, 4.49355361452204, 12.283677844762513], "label": "Li", "properties": {}}, {"species": [{"element": "Li", "occu": 1}], "abc": [0.0439222, 0.5880605, 0.25024641999999997], "xyz": [0.46575553278660003, 5.764312507762, 11.02668833356082], "label": "Li", "properties": {}}, {"species": [{"element": "Li", "occu": 1}], "abc": [0.03874865, 0.89103203, 0.33082332000000003], "xyz": [0.41089467571095006, 8.73411336987532, 14.577174143445722], "label": "Li", "properties": {}}, {"species": [{"element": "Li", "occu": 1}], "abc": [0.54012264, 0.08404478, 0.24878319000000002], "xyz": [5.72751610719192, 0.82382744048632, 10.962213560373991], "label": "Li", "properties": {}}, {"species": [{"element": "Li", "occu": 1}], "abc": [0.5615296, 0.34967239, 0.32827545], "xyz": [5.9545177159488, 3.42757408684316, 14.464906529769452], "label": "Li", "properties": {}}, {"species": [{"element": "Li", "occu": 1}], "abc": [0.81733427, 0.29554563, 0.34727113], "xyz": [8.66709678450981, 2.89701037839372, 15.30191927522273], "label": "Li", "properties": {}}, {"species": [{"element": "Li", "occu": 1}], "abc": [0.78440206, 0.73512123, 0.33470007], "xyz": [8.317880237652181, 7.20583766604012, 14.74799662313247], "label": "Li", "properties": {}}, {"species": [{"element": "Li", "occu": 1}], "abc": [0.8025616, 0.08889986, 0.39862484], "xyz": [8.5104458702448, 0.87141811928584, 17.56473428349364], "label": "Li", "properties": {}}, {"species": [{"element": "Li", "occu": 1}], "abc": [0.77487759, 0.49735188, 0.39325381000000004], "xyz": [8.21688177675177, 4.87516448161872, 17.328068864503013], "label": "Li", "properties": {}}, {"species": [{"element": "Li", "occu": 1}], "abc": [0.28196945, 0.77193727, 0.34752098], "xyz": [2.99003309065335, 7.56671747323388, 15.31292849597458], "label": "Li", "properties": {}}, {"species": [{"element": "Li", "occu": 1}], "abc": [0.30870181, 0.23397864, 0.32975184999999996], "xyz": [3.27350578952643, 2.29351572006816, 14.529961616893848], "label": "Li", "properties": {}}, {"species": [{"element": "Li", "occu": 1}], "abc": [0.38928464, 0.3593686, 0.45085394], "xyz": [4.12801441887792, 3.5226187031384, 19.866121882334742], "label": "Li", "properties": {}}, {"species": [{"element": "Li", "occu": 1}], "abc": [0.2778193, 0.97262157, 0.39619868999999996], "xyz": [2.9460244725879, 9.53387394880308, 17.457830057249488], "label": "Li", "properties": {}}, {"species": [{"element": "Li", "occu": 1}], "abc": [0.07270672, 0.17091552, 0.35296762000000004], "xyz": [0.77098954767216, 1.67535563042688, 15.552925542666022], "label": "Li", "properties": {}}, {"species": [{"element": "Li", "occu": 1}], "abc": [0.29455293, 0.58615513, 0.40447521], "xyz": [3.12346960867179, 5.74563560611172, 17.82252101477241], "label": "Li", "properties": {}}, {"species": [{"element": "Li", "occu": 1}], "abc": [0.52616049, 0.59508091, 0.35678542999999996], "xyz": [5.57946003049047, 5.83312827956204, 15.721150930213028], "label": "Li", "properties": {}}, {"species": [{"element": "Li", "occu": 1}], "abc": [0.48018111, 0.96665281, 0.35181700000000005], "xyz": [5.09188994909433, 9.47536670690564, 15.502225404257002], "label": "Li", "properties": {}}, {"species": [{"element": "Li", "occu": 1}], "abc": [0.05544089, 0.45254092, 0.42029131], "xyz": [0.58790090797167, 4.43591651782448, 18.51943090604051], "label": "Li", "properties": {}}, {"species": [{"element": "Li", "occu": 1}], "abc": [0.10504887, 0.68915412, 0.45683335999999997], "xyz": [1.11394903751361, 6.7552568378452795, 20.12959498518856], "label": "Li", "properties": {}}, {"species": [{"element": "P", "occu": 1}], "abc": [0.49964672, 0.70221948, 0.05858407], "xyz": [5.29830528249216, 6.88332668451312, 2.58140868189647], "label": "P", "properties": {}}, {"species": [{"element": "P", "occu": 1}], "abc": [0.01006973, 0.20692539, 0.06126817], "xyz": [0.10678045410219, 2.02833316257516, 2.69967904179257], "label": "P", "properties": {}}, {"species": [{"element": "P", "occu": 1}], "abc": [0.52450984, 0.22990788, 0.17312843], "xyz": [5.56195636787352, 2.25361313728272, 7.62861358531603], "label": "P", "properties": {}}, {"species": [{"element": "P", "occu": 1}], "abc": [0.01527435, 0.7247114, 0.17394357], "xyz": [0.16197078065805, 7.1037979723816, 7.66453136079597], "label": "P", "properties": {}}, {"species": [{"element": "P", "occu": 1}], "abc": [0.51436208, 0.74942555, 0.28303275000000006], "xyz": [5.454348475614241, 7.3460521009342, 12.471362916762754], "label": "P", "properties": {}}, {"species": [{"element": "P", "occu": 1}], "abc": [0.02320477, 0.24459379, 0.28404334], "xyz": [0.24606577117131, 2.39756801046476, 12.51589286833214], "label": "P", "properties": {}}, {"species": [{"element": "P", "occu": 1}], "abc": [0.50860212, 0.26758051, 0.39593023000000005], "xyz": [5.39326926649836, 2.62288944866444, 17.446000818093832], "label": "P", "properties": {}}, {"species": [{"element": "P", "occu": 1}], "abc": [0.99881863, 0.77110951, 0.39837122], "xyz": [10.591575630838891, 7.55860356774044, 17.55355894402162], "label": "P", "properties": {}}, {"species": [{"element": "S", "occu": 1}], "abc": [0.5996661, 0.57524903, 0.03094524], "xyz": [6.3589210900083, 5.638731352823321, 1.36355004354204], "label": "S", "properties": {}}, {"species": [{"element": "S", "occu": 1}], "abc": [0.60309819, 0.81936304, 0.08862053], "xyz": [6.39531532587357, 8.03159644266176, 3.9049148605801305], "label": "S", "properties": {}}, {"species": [{"element": "S", "occu": 1}], "abc": [0.11061367, 0.08410566, 0.03342886], "xyz": [1.17295874988801, 0.82442420110104, 1.4729865888440599], "label": "S", "properties": {}}, {"species": [{"element": "S", "occu": 1}], "abc": [0.12302757, 0.31829041, 0.09187358], "xyz": [1.30459702411971, 3.11996026168004, 4.04825504695918], "label": "S", "properties": {}}, {"species": [{"element": "S", "occu": 1}], "abc": [0.3984912, 0.82899069, 0.03063193], "xyz": [4.2256417293936, 8.12596901710836, 1.34974456443953], "label": "S", "properties": {}}, {"species": [{"element": "S", "occu": 1}], "abc": [0.38019472, 0.58431652, 0.08574544], "xyz": [4.03162397093616, 5.72761310227088, 3.7782288470062406], "label": "S", "properties": {}}, {"species": [{"element": "S", "occu": 1}], "abc": [0.90787869, 0.33391207, 0.03486019], "xyz": [9.62723914026507, 3.27308758468508, 1.53605574209099], "label": "S", "properties": {}}, {"species": [{"element": "S", "occu": 1}], "abc": [0.89533852, 0.08658896, 0.0896806], "xyz": [9.49426188594756, 0.8487661136262401, 3.9516250652726], "label": "S", "properties": {}}, {"species": [{"element": "S", "occu": 1}], "abc": [0.72762578, 0.96942672, 0.0073725200000000005], "xyz": [7.71581871657534, 9.502557249559679, 0.32485771533892005], "label": "S", "properties": {}}, {"species": [{"element": "S", "occu": 1}], "abc": [0.62674728, 0.10738558, 0.14452125], "xyz": [6.646092712089841, 1.0526196572415198, 6.36808623007125], "label": "S", "properties": {}}, {"species": [{"element": "S", "occu": 1}], "abc": [0.62061365, 0.35419365, 0.20192894], "xyz": [6.581051067805951, 3.4718925805506005, 8.89765970240974], "label": "S", "properties": {}}, {"species": [{"element": "S", "occu": 1}], "abc": [0.11758966, 0.59406284, 0.14656523], "xyz": [1.24693286637498, 5.82314890901296, 6.4581507769288296], "label": "S", "properties": {}}, {"species": [{"element": "S", "occu": 1}], "abc": [0.11862618, 0.84851992, 0.20120073], "xyz": [1.25792423121654, 8.31739929470048, 8.86557235142433], "label": "S", "properties": {}}, {"species": [{"element": "S", "occu": 1}], "abc": [0.41312549, 0.3497988, 0.14479022], "xyz": [4.38082524788547, 3.4288131885072004, 6.3799379415206205], "label": "S", "properties": {}}, {"species": [{"element": "S", "occu": 1}], "abc": [0.40726298, 0.10553645, 0.19929696], "xyz": [4.31865858800694, 1.0344940337938, 8.78168592280416], "label": "S", "properties": {}}, {"species": [{"element": "S", "occu": 1}], "abc": [0.89649088, 0.8399035, 0.14717727], "xyz": [9.506481630080641, 8.232939043454, 6.48511929191367], "label": "S", "properties": {}}, {"species": [{"element": "S", "occu": 1}], "abc": [0.90327353, 0.60306698, 0.20213574], "xyz": [9.57840554929359, 5.91140968630312, 8.906771997192541], "label": "S", "properties": {}}, {"species": [{"element": "S", "occu": 1}], "abc": [0.22539434, 0.96563313, 0.11682868], "xyz": [2.39010479697702, 9.465371554743719, 5.14785962884628], "label": "S", "properties": {}}, {"species": [{"element": "S", "occu": 1}], "abc": [0.74577497, 0.46608674, 0.1157401], "xyz": [7.908274596701911, 4.56869595064456, 5.0998931788721], "label": "S", "properties": {}}, {"species": [{"element": "S", "occu": 1}], "abc": [0.61750872, 0.62475024, 0.25591980999999997], "xyz": [6.54812607027816, 6.12395429153856, 11.276676738289009], "label": "S", "properties": {}}, {"species": [{"element": "S", "occu": 1}], "abc": [0.61732018, 0.8796763, 0.31032919999999997], "xyz": [6.54612677269854, 8.6228017336172, 13.6741351552732], "label": "S", "properties": {}}, {"species": [{"element": "S", "occu": 1}], "abc": [0.11932605, 0.12001225, 0.25528856], "xyz": [1.26534572478315, 1.176389357489, 11.24886176690776], "label": "S", "properties": {}}, {"species": [{"element": "S", "occu": 1}], "abc": [0.12552406, 0.36709212, 0.31262011999999995], "xyz": [1.33107006121818, 3.59832653071728, 13.775080698618519], "label": "S", "properties": {}}, {"species": [{"element": "S", "occu": 1}], "abc": [0.40250383, 0.87151517, 0.25491374], "xyz": [4.26819207121449, 8.54280434604148, 11.23234595293054], "label": "S", "properties": {}}, {"species": [{"element": "S", "occu": 1}], "abc": [0.39513772, 0.63501533, 0.30982337000000004], "xyz": [4.19008108206516, 6.22457520840052, 13.651846605611773], "label": "S", "properties": {}}, {"species": [{"element": "S", "occu": 1}], "abc": [0.90686956, 0.36916703, 0.25768542000000005], "xyz": [9.61653822180468, 3.61866530481532, 11.354475378479822], "label": "S", "properties": {}}, {"species": [{"element": "S", "occu": 1}], "abc": [0.9108466, 0.12520771, 0.31228409999999995], "xyz": [9.658711163599799, 1.22731652410124, 13.760274541496099], "label": "S", "properties": {}}, {"species": [{"element": "S", "occu": 1}], "abc": [0.23116261, 0.48470518, 0.22860396], "xyz": [2.45127212618883, 4.75119844242392, 10.07304967135116], "label": "S", "properties": {}}, {"species": [{"element": "S", "occu": 1}], "abc": [0.73037566, 0.9888796, 0.22845163], "xyz": [7.74497872733298, 9.6932391258224, 10.06633750566323], "label": "S", "properties": {}}, {"species": [{"element": "S", "occu": 1}], "abc": [0.62189021, 0.15570805, 0.36545918], "xyz": [6.59458784153163, 1.5262882988642, 16.10334516073678], "label": "S", "properties": {}}, {"species": [{"element": "S", "occu": 1}], "abc": [0.60901209, 0.39033897, 0.42380487], "xyz": [6.45802693060527, 3.8261978266486802, 18.674250028173272], "label": "S", "properties": {}}, {"species": [{"element": "S", "occu": 1}], "abc": [0.10170104, 0.65369567, 0.36829785000000004], "xyz": [1.0784483033671202, 6.407684459083479, 16.228426388159853], "label": "S", "properties": {}}, {"species": [{"element": "S", "occu": 1}], "abc": [0.09968943, 0.89763395, 0.42590456], "xyz": [1.05711698373129, 8.7988270005838, 18.76676934264376], "label": "S", "properties": {}}, {"species": [{"element": "S", "occu": 1}], "abc": [0.39413539, 0.3874815, 0.36739029], "xyz": [4.17945227150517, 3.7981882084859997, 16.18843628055309], "label": "S", "properties": {}}, {"species": [{"element": "S", "occu": 1}], "abc": [0.40625617, 0.14068522, 0.42233973999999996], "xyz": [4.3079822710655105, 1.37903085363368, 18.60969153467654], "label": "S", "properties": {}}, {"species": [{"element": "S", "occu": 1}], "abc": [0.87889794, 0.88948781, 0.37137677], "xyz": [9.31992428224782, 8.71897654864564, 16.36409382845317], "label": "S", "properties": {}}, {"species": [{"element": "S", "occu": 1}], "abc": [0.8976296, 0.64461444, 0.42643104], "xyz": [9.5185567342488, 6.31866802680336, 18.78996779988384], "label": "S", "properties": {}}, {"species": [{"element": "S", "occu": 1}], "abc": [0.24412507, 0.00873395, 0.34128369999999997], "xyz": [2.58872738716221, 0.08561230898380001, 15.0380932251677], "label": "S", "properties": {}}, {"species": [{"element": "S", "occu": 1}], "abc": [0.72430582, 0.50802947, 0.34044660000000004], "xyz": [7.68061351877946, 4.97982882413068, 15.001207819158603], "label": "S", "properties": {}}, {"species": [{"element": "S", "occu": 1}], "abc": [0.22502067, 0.50315429, 0.44990348999999996], "xyz": [2.3861423618090103, 4.93204112022676, 19.82424189889029], "label": "S", "properties": {}}, {"species": [{"element": "Cl", "occu": 1}], "abc": [0.93980181, 0.69813133, 0.07012102], "xyz": [9.96575519282643, 6.84325364070452, 3.0897650131074204], "label": "Cl", "properties": {}}, {"species": [{"element": "Cl", "occu": 1}], "abc": [0.44632723, 0.19977423, 0.06554025], "xyz": [4.732899918624691, 1.95823574737212, 2.88792107417025], "label": "Cl", "properties": {}}, {"species": [{"element": "Cl", "occu": 1}], "abc": [0.94173832, 0.22924912, 0.17283346], "xyz": [9.98629014432696, 2.24715581102528, 7.61561622752066], "label": "Cl", "properties": {}}, {"species": [{"element": "Cl", "occu": 1}], "abc": [0.43222691, 0.72628621, 0.17137136], "xyz": [4.5833786730117305, 7.119234644255241, 7.55119124588656], "label": "Cl", "properties": {}}, {"species": [{"element": "Cl", "occu": 1}], "abc": [0.932027, 0.74793178, 0.28591188999999995], "xyz": [9.883310306781, 7.331409802914321, 12.598227386786688], "label": "Cl", "properties": {}}, {"species": [{"element": "Cl", "occu": 1}], "abc": [0.44110577, 0.24558521, 0.28432828], "xyz": [4.67753101897431, 2.40728615121124, 12.52844827101788], "label": "Cl", "properties": {}}, {"species": [{"element": "Cl", "occu": 1}], "abc": [0.9454217, 0.27302241, 0.39181382], "xyz": [10.025349085235101, 2.67623228028804, 17.26461812289622], "label": "Cl", "properties": {}}, {"species": [{"element": "Cl", "occu": 1}], "abc": [0.43734352, 0.7763085, 0.38673261999999997], "xyz": [4.63763573246256, 7.609565336274, 17.04072357623102], "label": "Cl", "properties": {}}]}, "formula": "(Li3PS4)8.0(Li2S)8.0(LiCl)8.0", "bandgap": 1.3072, "slab_thickness": 20.12518865308856}