{"miller": "001_0.04", "final_energy": -228.90073514, "gamma": 0.015939119336752967, "work_function": 5.362895525033218, "ionization_potentail": -5.613795525033218, "electron_affinity": -3.2269955250332183, "is_stochiometric": true, "incar_parameters": {"SYSTEM": "unknown system", "LCOMPAT": false, "PREC": "normal", "ENMAX": 520.0, "ENAUG": 368.056, "EDIFF": 1e-05, "IALGO": 38, "IWAVPR": 11, "NBANDS": 210, "NBANDSLOW": -1, "NBANDSHIGH": -1, "NELECT": 350.0, "TURBO": 0, "IRESTART": 0, "NREBOOT": 0, "NMIN": 0, "EREF": 0.0, "ISMEAR": 0, "SIGMA": 0.05, "KSPACING": 0.5, "KGAMMA": true, "KBLOWUP": true, "LREAL": true, "ROPT": [-0.0005, -0.0005, -0.0005], "LMAXPAW": -100, "LMAXMIX": 2, "NLSPLINE": false, "ISTART": 0, "ICHARG": 2, "INIWAV": 1, "ISPIN": 1, "LNONCOLLINEAR": false, "MAGMOM": [0.6, 0.6, 0.6, 0.6, 0.6, 0.6, 0.6, 0.6, 0.6, 0.6, 0.6, 0.6, 0.6, 0.6, 0.6, 0.6, 0.6, 0.6, 0.6, 0.6, 0.6, 0.6, 0.6, 0.6, 0.6, 0.6, 0.6, 0.6, 0.6, 0.6, 0.6, 0.6, 0.6, 0.6, 0.6, 0.6, 0.6, 0.6, 0.6, 0.6, 0.6, 0.6, 0.6, 0.6, 0.6, 0.6, 0.6, 0.6, 0.6, 0.6, 0.6, 0.6, 0.6, 0.6, 0.6, 0.6], "NUPDOWN": -1.0, "LSORBIT": false, "SAXIS": [0.0, 0.0, 1.0], "LSPIRAL": false, "QSPIRAL": [0.0, 0.0, 0.0], "LZEROZ": false, "LASPH": false, "LMETAGGA": false, "NELM": 100, "NELMDL": -5, "NELMIN": 6, "ENINI": 520.0, "LDIAG": true, "LSUBROT": false, "WEIMIN": 0.001, "EBREAK": 1e-08, "DEPER": 0.3, "NRMM": 4, "TIME": 0.4, "AMIX": 0.4, "BMIX": 1.0, "AMIN": 0.1, "AMIX_MAG": 1.6, "BMIX_MAG": 1.0, "IMIX": 4, "MIXFIRST": false, "MAXMIX": -45, "WC": 100.0, "INIMIX": 1, "MIXPRE": 1, "MREMOVE": 5, "LDIPOL": false, "LMONO": false, "IDIPOL": 0, "EPSILON": 1.0, "DIPOL": [-100.0, -100.0, -100.0], "EFIELD": 0.0, "NGX": 40, "NGY": 40, "NGZ": 280, "NGXF": 80, "NGYF": 80, "NGZF": 560, "ADDGRID": false, "NSW": 150, "IBRION": 2, "MDALGO": 0, "ISIF": 2, "PSTRESS": 0.0, "EDIFFG": -0.01, "NFREE": 1, "POTIM": 0.5, "SMASS": -3.0, "SCALEE": 1.0, "TEBEG": 0.0001, "TEEND": 0.0001, "NBLOCK": 1, "KBLOCK": 150, "NPACO": 256, "APACO": 10.0, "ISYM": 0, "SYMPREC": 1e-05, "LORBIT": 11, "RWIGS": [-1.0, -1.0, -1.0], "NEDOS": 301, "EMIN": 10.0, "EMAX": -10.0, "EFERMI": 0.0, "NWRITE": 2, "LWAVE": false, "LDOWNSAMPLE": false, "LCHARG": false, "LPARD": false, "LVTOT": false, "LVHAR": false, "LELF": false, "LOPTICS": false, "STM": [0.0, 0.0, 0.0, 0.0, 0.0, 0.0, 0.0], "NPAR": 1, "NSIM": 4, "NBLK": -1, "LPLANE": true, "LSCALAPACK": true, "LSCAAWARE": false, "LSCALU": false, "LASYNC": false, "LORBITALREAL": false, "IDIOT": 3, "PHON_NSTRUCT": -1, "LMUSIC": false, "POMASS": [22.99, 30.974, 32.066], "DARWINR": [0.0, 0.0, 0.0], "DARWINV": [1.0, 1.0, 1.0], "LCORR": true, "GGA_COMPAT": true, "LBERRY": false, "ICORELEVEL": 0, "LDAU": false, "I_CONSTRAINED_M": 0, "GGA": "--", "VOSKOWN": 0, "LHFCALC": false, "PRECFOCK": "", "LSYMGRAD": false, "LHFONE": false, "LRHFCALC": false, "LTHOMAS": false, "LMODELHF": false, "LFOCKACE": false, "ENCUT4O": -1.0, "EXXOEP": 0, "FOURORBIT": 0, "AEXX": 0.0, "HFALPHA": 0.0, "MCALPHA": 0.0, "ALDAX": 1.0, "AGGAX": 1.0, "ALDAC": 1.0, "AGGAC": 1.0, "NKREDX": 1, "NKREDY": 1, "NKREDZ": 1, "SHIFTRED": false, "ODDONLY": false, "EVENONLY": false, "LMAXFOCK": 0, "NMAXFOCKAE": 0, "LFOCKAEDFT": false, "HFSCREEN": 0.0, "HFSCREENC": 0.0, "NBANDSGWLOW": 0, "LUSE_VDW": false, "Zab_VDW": -0.8491, "PARAM1": 0.1234, "PARAM2": 1.0, "PARAM3": 0.0, "MODEL_GW": 0, "MODEL_EPS0": 26.39742296, "MODEL_ALPHA": 1.0, "LEPSILON": false, "LRPA": false, "LNABLA": false, "LVEL": false, "CSHIFT": 0.1, "OMEGAMAX": -1.0, "DEG_THRESHOLD": 0.002, "RTIME": -0.1, "WPLASMAI": 0.0, "DFIELD": [0.0, 0.0, 0.0], "WPLASMA": [0.0, 0.0, 0.0, 0.0, 0.0, 0.0, 0.0, 0.0, 0.0], "NUCIND": false, "MAGPOS": [0.0, 0.0, 0.0], "LNICSALL": true, "ORBITALMAG": false, "LMAGBLOCH": false, "LCHIMAG": false, "LGAUGE": true, "MAGATOM": 0, "MAGDIPOL": [0.0, 0.0, 0.0], "AVECCONST": [0.0, 0.0, 0.0], "LFINITE_TEMPERATURE": false, "LADDER": false, "LRPAFORCE": false, "LFXC": false, "LHARTREE": true, "IBSE": 0, "KPOINT": [-1, 0, 0, 0], "LTCTC": false, "LTCTE": false, "LTETE": false, "LTRIPLET": false, "LFXCEPS": false, "LFXHEG": false, "NATURALO": 2, "LHOLEGF": false, "L2ORDER": false, "LDMP1": false, "LMP2LT": false, "LSMP2LT": false, "LGWLF": false, "ENCUTGW": -2.0, "ENCUTGWSOFT": -2.0, "ENCUTLF": -1.0, "LESF_SPLINES": false, "LMAXMP2": -1, "SCISSOR": 0.0, "NOMEGA": 0, "NOMEGAR": 0, "NBANDSGW": -1, "NBANDSO": -1, "NBANDSV": -1, "NELMGW": 1, "NELMHF": 1, "DIM": 3, "IESPILON": 4, "ANTIRES": 0, "OMEGAMIN": -30.0, "OMEGATL": -200.0, "OMEGAGRID": 0, "LSELFENERGY": false, "LSPECTRAL": false, "LSPECTRALGW": false, "LSINGLES": false, "LFERMIGW": false, "ODDONLYGW": false, "EVENONLYGW": false, "NKREDLFX": 1, "NKREDLFY": 1, "NKREDLFZ": 1, "MAXMEM": 2800, "TELESCOPE": 0, "NTAUPAR": -1, "NOMEGAPAR": -1, "DAMP_NEWTON": 0.80000001, "LAMBDA": 1.0, "OFIELD_KAPPA": 0.0, "OFIELD_K": [0.0, 0.0, 0.0], "OFIELD_Q6_NEAR": 0.0, "OFIELD_Q6_FAR": 0.0, "OFIELD_A": 0.0, "KPOINTS_OPT_MODE": 1, "LKPOINTS_OPT": false, "@module": "pymatgen.io.vasp.inputs", "@class": "Incar"}, "relaxed_structures": {"@module": "pymatgen.core.structure", "@class": "Structure", "charge": 0, "lattice": {"matrix": [[7.00642, 0.0, 0.0], [0.000173, 7.00642, 0.0], [0.0, 0.0, 50.188703]], "a": 7.00642, "b": 7.006420002135827, "c": 50.188703, "alpha": 90.0, "beta": 90.0, "gamma": 89.99858527324173, "volume": 2463.7594762232984}, "sites": [{"species": [{"element": "Na", "occu": 1}], "abc": [0.50567813, 0.48418383, 0.015739749999999997], "xyz": [3.54307712739719, 3.3923952701886, 0.7899576380442498], "label": "Na", "properties": {}}, {"species": [{"element": "Na", "occu": 1}], "abc": [0.50833972, 0.49088425, 0.08715389000000001], "xyz": [3.561726503977651, 3.4393412268850003, 4.37414070050467], "label": "Na", "properties": {}}, {"species": [{"element": "Na", "occu": 1}], "abc": [0.48029665, 0.98270713, 0.09962020000000002], "xyz": [3.3653300628264904, 6.8852588897746, 4.999808630600601], "label": "Na", "properties": {}}, {"species": [{"element": "Na", "occu": 1}], "abc": [0.01293219, 0.58156069, 0.034621759999999994], "xyz": [0.09070896465917001, 4.0746584496298, 1.7376212299772795], "label": "Na", "properties": {}}, {"species": [{"element": "Na", "occu": 1}], "abc": [0.99148349, 0.04433841, 0.033581599999999996], "xyz": [6.94675742455073, 0.3106535225922, 1.6854169486647996], "label": "Na", "properties": {}}, {"species": [{"element": "Na", "occu": 1}], "abc": [0.50213275, 0.50356051, 0.15992476], "xyz": [3.5182400582232303, 3.5281564284742, 8.026416281986279], "label": "Na", "properties": {}}, {"species": [{"element": "Na", "occu": 1}], "abc": [0.4939228, 0.50657085, 0.23156119], "xyz": [3.46071822113305, 3.549248134857, 11.62175579123657], "label": "Na", "properties": {}}, {"species": [{"element": "Na", "occu": 1}], "abc": [0.49223252, 0.00896057, 0.24362887000000003], "xyz": [3.44878932295701, 0.06278151685939999, 12.22741699865561], "label": "Na", "properties": {}}, {"species": [{"element": "Na", "occu": 1}], "abc": [0.0077096, 0.50494856, 0.17236717000000001], "xyz": [0.05410405173288, 3.5378816897552, 8.65088470208051], "label": "Na", "properties": {}}, {"species": [{"element": "Na", "occu": 1}], "abc": [0.99337672, 0.00546894, 0.18370061000000001], "xyz": [6.96001546466902, 0.0383176905948, 9.21969535620883], "label": "Na", "properties": {}}, {"species": [{"element": "Na", "occu": 1}], "abc": [0.98662723, 0.00936254, 0.11163521000000001], "xyz": [6.91272637653602, 0.06559788750680001, 5.60282639903263], "label": "Na", "properties": {}}, {"species": [{"element": "Na", "occu": 1}], "abc": [0.47557241, 0.4959933, 0.30363435], "xyz": [3.3321458517131, 3.4751373769860003, 15.23901421274805], "label": "Na", "properties": {}}, {"species": [{"element": "Na", "occu": 1}], "abc": [0.49539694, 0.49378006, 0.37555095], "xyz": [3.4710444523051804, 3.4596304879852005, 18.848415090917847], "label": "Na", "properties": {}}, {"species": [{"element": "Na", "occu": 1}], "abc": [0.55144664, 0.99613847, 0.38749249999999996], "xyz": [3.86383909938411, 6.9793644989774, 19.447745997227496], "label": "Na", "properties": {}}, {"species": [{"element": "Na", "occu": 1}], "abc": [0.96792993, 0.48994786, 0.31482419], "xyz": [6.78180838113038, 3.4327804852612003, 15.80061776912557], "label": "Na", "properties": {}}, {"species": [{"element": "Na", "occu": 1}], "abc": [0.00010847, 0.99211844, 0.32694624], "xyz": [0.00093162286752, 6.951198480384801, 16.409007736326718], "label": "Na", "properties": {}}, {"species": [{"element": "Na", "occu": 1}], "abc": [0.98945324, 0.00193087, 0.25554032], "xyz": [6.93252530384131, 0.0135284861854, 12.825237225004958], "label": "Na", "properties": {}}, {"species": [{"element": "Na", "occu": 1}], "abc": [0.47185374, 0.48304615, 0.45282753], "xyz": [3.3060890479947505, 3.384424206283, 22.72682641339359], "label": "Na", "properties": {}}, {"species": [{"element": "Na", "occu": 1}], "abc": [0.9328129, 0.50580671, 0.45250584], "xyz": [6.53576646337883, 3.5438942490782, 22.710681209525518], "label": "Na", "properties": {}}, {"species": [{"element": "Na", "occu": 1}], "abc": [0.03120173, 0.99683195, 0.47044646999999995], "xyz": [0.21878487703395, 6.984223311119001, 23.611098160228405], "label": "Na", "properties": {}}, {"species": [{"element": "Na", "occu": 1}], "abc": [0.03690524, 0.9950449, 0.39894901], "xyz": [0.2587457544085, 6.971702488258001, 20.02273337503403], "label": "Na", "properties": {}}, {"species": [{"element": "P", "occu": 1}], "abc": [0.49682133, 0.98678622, 0.025282230000000003], "xyz": [3.48110961695466, 6.913838707532401, 1.2688823326476901], "label": "P", "properties": {}}, {"species": [{"element": "P", "occu": 1}], "abc": [0.00996016, 0.50980762, 0.10118766000000001], "xyz": [0.06987326094546001, 3.5719263049204004, 5.07847741500498], "label": "P", "properties": {}}, {"species": [{"element": "P", "occu": 1}], "abc": [0.49243937, 0.00297954, 0.17199995], "xyz": [3.45023756621582, 0.0208759086468, 8.63245440656485], "label": "P", "properties": {}}, {"species": [{"element": "P", "occu": 1}], "abc": [0.99192766, 0.50300373, 0.24360956000000003], "xyz": [6.9499488152224895, 3.5242553939466, 12.22644785480068], "label": "P", "properties": {}}, {"species": [{"element": "P", "occu": 1}], "abc": [0.4980346, 0.99533581, 0.31531950999999997], "xyz": [3.48961177522713, 6.973740725900201, 15.825477237495527], "label": "P", "properties": {}}, {"species": [{"element": "P", "occu": 1}], "abc": [0.99509438, 0.49884054, 0.38582363], "xyz": [6.97213546533302, 3.4950863362668003, 19.363987576451887], "label": "P", "properties": {}}, {"species": [{"element": "P", "occu": 1}], "abc": [0.5294975, 0.98815789, 0.46141495], "xyz": [3.71005282526497, 6.9234492036538, 23.157817885309846], "label": "P", "properties": {}}, {"species": [{"element": "S", "occu": 1}], "abc": [0.67128263, 0.13496812, 0.00010000000000000286], "xyz": [4.7033113939693605, 0.9456433353304, 0.005018870300000144], "label": "S", "properties": {}}, {"species": [{"element": "S", "occu": 1}], "abc": [0.16799784, 0.71048137, 0.08044162999999999], "xyz": [1.17718633940981, 4.9779308803954, 4.037261076905889], "label": "S", "properties": {}}, {"species": [{"element": "S", "occu": 1}], "abc": [0.3532467, 0.17857027, 0.050141780000000004], "xyz": [2.4750256364707104, 1.2511383111334, 2.51655090431134], "label": "S", "properties": {}}, {"species": [{"element": "S", "occu": 1}], "abc": [0.664375, 0.8035383, 0.04861582], "xyz": [4.655029299625901, 5.629926815886001, 2.4399649510814596], "label": "S", "properties": {}}, {"species": [{"element": "S", "occu": 1}], "abc": [0.29521687, 0.8263788, 0.005068419999999997], "xyz": [2.0685563458378002, 5.789956951896, 0.25437742605925984], "label": "S", "properties": {}}, {"species": [{"element": "S", "occu": 1}], "abc": [0.86675466, 0.33165934, 0.07490009], "xyz": [6.07290456198302, 2.3237446329628004, 3.75913837168327], "label": "S", "properties": {}}, {"species": [{"element": "S", "occu": 1}], "abc": [0.6789974, 0.15028486, 0.14748401], "xyz": [4.75736696258878, 1.0529588488012, 7.4020311751390295], "label": "S", "properties": {}}, {"species": [{"element": "S", "occu": 1}], "abc": [0.14408203, 0.69387643, 0.22046592], "xyz": [1.00961925725499, 4.8615896966806, 11.06489858050176], "label": "S", "properties": {}}, {"species": [{"element": "S", "occu": 1}], "abc": [0.34433671, 0.19609611, 0.19535126], "xyz": [2.41260153630523, 1.3739317070262, 9.80442636881578], "label": "S", "properties": {}}, {"species": [{"element": "S", "occu": 1}], "abc": [0.19125479, 0.34760326, 0.12420578000000002], "xyz": [1.34007152111578, 2.4354544329292005, 6.233727003303341], "label": "S", "properties": {}}, {"species": [{"element": "S", "occu": 1}], "abc": [0.64539774, 0.81706088, 0.19576917000000002], "xyz": [4.522068985023041, 5.7246716908496005, 9.82540072968651], "label": "S", "properties": {}}, {"species": [{"element": "S", "occu": 1}], "abc": [0.8113486, 0.65153269, 0.12427033000000001], "xyz": [5.68476177316737, 4.5649116698698, 6.23696668408199], "label": "S", "properties": {}}, {"species": [{"element": "S", "occu": 1}], "abc": [0.30064856, 0.85010734, 0.14928658], "xyz": [2.10661715232502, 5.9562090691228, 7.49249982550574], "label": "S", "properties": {}}, {"species": [{"element": "S", "occu": 1}], "abc": [0.84312075, 0.31448374, 0.21966792], "xyz": [5.9073124909020205, 2.2034051656108002, 11.02484799550776], "label": "S", "properties": {}}, {"species": [{"element": "S", "occu": 1}], "abc": [0.68469796, 0.15426285, 0.29225336999999996], "xyz": [4.797308168376251, 1.0808303174970002, 14.667817587679107], "label": "S", "properties": {}}, {"species": [{"element": "S", "occu": 1}], "abc": [0.15116105, 0.67521422, 0.36135069], "xyz": [1.05921461600106, 4.7308344152924, 18.135722459255067], "label": "S", "properties": {}}, {"species": [{"element": "S", "occu": 1}], "abc": [0.35001368, 0.17603036, 0.34041749], "xyz": [2.45237330107788, 1.2333426349112, 17.085112301615467], "label": "S", "properties": {}}, {"species": [{"element": "S", "occu": 1}], "abc": [0.17962192, 0.34995924, 0.26724277999999996], "xyz": [1.25856715567492, 2.4519614183208, 13.412568514314337], "label": "S", "properties": {}}, {"species": [{"element": "S", "occu": 1}], "abc": [0.65064852, 0.79907595, 0.33746171999999997], "xyz": [4.55885504363775, 5.598661717599, 16.936766038949155], "label": "S", "properties": {}}, {"species": [{"element": "S", "occu": 1}], "abc": [0.80042977, 0.65126625, 0.26703466], "xyz": [5.60825981818465, 4.563044879325001, 13.402123241445977], "label": "S", "properties": {}}, {"species": [{"element": "S", "occu": 1}], "abc": [0.30676857, 0.85323106, 0.2911044], "xyz": [2.14949705319278, 5.9780951634052, 14.610152273593199], "label": "S", "properties": {}}, {"species": [{"element": "S", "occu": 1}], "abc": [0.84744199, 0.29668009, 0.36397597], "xyz": [5.9375858332313705, 2.0786653161778, 18.26748185746691], "label": "S", "properties": {}}, {"species": [{"element": "S", "occu": 1}], "abc": [0.71570341, 0.15633377, 0.43867452999999995], "xyz": [5.014545731634411, 1.0953400528034, 22.016505699834585], "label": "S", "properties": {}}, {"species": [{"element": "S", "occu": 1}], "abc": [0.37852667, 0.16174105, 0.4863676], "xyz": [2.65214481242305, 1.133225727541, 24.4101590252228], "label": "S", "properties": {}}, {"species": [{"element": "S", "occu": 1}], "abc": [0.17874155, 0.3599272, 0.41184573999999996], "xyz": [1.2524006381566, 2.521801132624, 20.670003526675217], "label": "S", "properties": {}}, {"species": [{"element": "S", "occu": 1}], "abc": [0.68776555, 0.78587072, 0.48179878], "xyz": [4.81891026046556, 5.506140330022401, 24.18085587518234], "label": "S", "properties": {}}, {"species": [{"element": "S", "occu": 1}], "abc": [0.80020216, 0.66182776, 0.40677054999999995], "xyz": [5.60666691406968, 4.6370432542192, 20.415286323096645], "label": "S", "properties": {}}, {"species": [{"element": "S", "occu": 1}], "abc": [0.34100188, 0.84560857, 0.43593276999999997], "xyz": [2.38934868235221, 5.9246887970194, 21.87890032149731], "label": "S", "properties": {}}]}, "formula": "", "bandgap": 2.3869, "slab_thickness": 24.4051401549228}