{"miller": "101_0.39", "final_energy": -261.39412817, "gamma": 0.014202423892072574, "work_function": "Not calculated", "ionization_potentail": "Not calculated", "electron_affinity": "Not calculated", "is_stochiometric": true, "incar_parameters": {"SYSTEM": "unknown system", "LCOMPAT": false, "PREC": "normal", "ENMAX": 520.0, "ENAUG": 368.056, "EDIFF": 1e-05, "IALGO": 38, "IWAVPR": 11, "NBANDS": 240, "NBANDSLOW": -1, "NBANDSHIGH": -1, "NELECT": 400.0, "TURBO": 0, "IRESTART": 0, "NREBOOT": 0, "NMIN": 0, "EREF": 0.0, "ISMEAR": 0, "SIGMA": 0.05, "KSPACING": 0.5, "KGAMMA": true, "KBLOWUP": true, "LREAL": true, "ROPT": [-0.0005, -0.0005, -0.0005], "LMAXPAW": -100, "LMAXMIX": 2, "NLSPLINE": false, "ISTART": 0, "ICHARG": 2, "INIWAV": 1, "ISPIN": 1, "LNONCOLLINEAR": false, "MAGMOM": [0.6, 0.6, 0.6, 0.6, 0.6, 0.6, 0.6, 0.6, 0.6, 0.6, 0.6, 0.6, 0.6, 0.6, 0.6, 0.6, 0.6, 0.6, 0.6, 0.6, 0.6, 0.6, 0.6, 0.6, 0.6, 0.6, 0.6, 0.6, 0.6, 0.6, 0.6, 0.6, 0.6, 0.6, 0.6, 0.6, 0.6, 0.6, 0.6, 0.6, 0.6, 0.6, 0.6, 0.6, 0.6, 0.6, 0.6, 0.6, 0.6, 0.6, 0.6, 0.6, 0.6, 0.6, 0.6, 0.6, 0.6, 0.6, 0.6, 0.6, 0.6, 0.6, 0.6, 0.6], "NUPDOWN": -1.0, "LSORBIT": false, "SAXIS": [0.0, 0.0, 1.0], "LSPIRAL": false, "QSPIRAL": [0.0, 0.0, 0.0], "LZEROZ": false, "LASPH": false, "LMETAGGA": false, "NELM": 100, "NELMDL": -5, "NELMIN": 6, "ENINI": 520.0, "LDIAG": true, "LSUBROT": false, "WEIMIN": 0.001, "EBREAK": 1e-08, "DEPER": 0.3, "NRMM": 4, "TIME": 0.4, "AMIX": 0.4, "BMIX": 1.0, "AMIN": 0.1, "AMIX_MAG": 1.6, "BMIX_MAG": 1.0, "IMIX": 4, "MIXFIRST": false, "MAXMIX": -45, "WC": 100.0, "INIMIX": 1, "MIXPRE": 1, "MREMOVE": 5, "LDIPOL": false, "LMONO": false, "IDIPOL": 0, "EPSILON": 1.0, "DIPOL": [-100.0, -100.0, -100.0], "EFIELD": 0.0, "NGX": 40, "NGY": 56, "NGZ": 224, "NGXF": 80, "NGYF": 112, "NGZF": 448, "ADDGRID": false, "NSW": 150, "IBRION": 2, "MDALGO": 0, "ISIF": 2, "PSTRESS": 0.0, "EDIFFG": -0.01, "NFREE": 1, "POTIM": 0.5, "SMASS": -3.0, "SCALEE": 1.0, "TEBEG": 0.0001, "TEEND": 0.0001, "NBLOCK": 1, "KBLOCK": 150, "NPACO": 256, "APACO": 10.0, "ISYM": 0, "SYMPREC": 1e-05, "LORBIT": 11, "RWIGS": [-1.0, -1.0, -1.0], "NEDOS": 301, "EMIN": 10.0, "EMAX": -10.0, "EFERMI": 0.0, "NWRITE": 2, "LWAVE": false, "LDOWNSAMPLE": false, "LCHARG": false, "LPARD": false, "LVTOT": false, "LVHAR": false, "LELF": false, "LOPTICS": false, "STM": [0.0, 0.0, 0.0, 0.0, 0.0, 0.0, 0.0], "NPAR": 1, "NSIM": 4, "NBLK": -1, "LPLANE": true, "LSCALAPACK": true, "LSCAAWARE": false, "LSCALU": false, "LASYNC": false, "LORBITALREAL": false, "IDIOT": 3, "PHON_NSTRUCT": -1, "LMUSIC": false, "POMASS": [22.99, 30.974, 32.066], "DARWINR": [0.0, 0.0, 0.0], "DARWINV": [1.0, 1.0, 1.0], "LCORR": true, "GGA_COMPAT": true, "LBERRY": false, "ICORELEVEL": 0, "LDAU": false, "I_CONSTRAINED_M": 0, "GGA": "--", "VOSKOWN": 0, "LHFCALC": false, "PRECFOCK": "", "LSYMGRAD": false, "LHFONE": false, "LRHFCALC": false, "LTHOMAS": false, "LMODELHF": false, "LFOCKACE": false, "ENCUT4O": -1.0, "EXXOEP": 0, "FOURORBIT": 0, "AEXX": 0.0, "HFALPHA": 0.0, "MCALPHA": 0.0, "ALDAX": 1.0, "AGGAX": 1.0, "ALDAC": 1.0, "AGGAC": 1.0, "NKREDX": 1, "NKREDY": 1, "NKREDZ": 1, "SHIFTRED": false, "ODDONLY": false, "EVENONLY": false, "LMAXFOCK": 0, "NMAXFOCKAE": 0, "LFOCKAEDFT": false, "HFSCREEN": 0.0, "HFSCREENC": 0.0, "NBANDSGWLOW": 0, "LUSE_VDW": false, "Zab_VDW": -0.8491, "PARAM1": 0.1234, "PARAM2": 1.0, "PARAM3": 0.0, "MODEL_GW": 0, "MODEL_EPS0": 26.39742306, "MODEL_ALPHA": 1.0, "LEPSILON": false, "LRPA": false, "LNABLA": false, "LVEL": false, "CSHIFT": 0.1, "OMEGAMAX": -1.0, "DEG_THRESHOLD": 0.002, "RTIME": -0.1, "WPLASMAI": 0.0, "DFIELD": [0.0, 0.0, 0.0], "WPLASMA": [0.0, 0.0, 0.0, 0.0, 0.0, 0.0, 0.0, 0.0, 0.0], "NUCIND": false, "MAGPOS": [0.0, 0.0, 0.0], "LNICSALL": true, "ORBITALMAG": false, "LMAGBLOCH": false, "LCHIMAG": false, "LGAUGE": true, "MAGATOM": 0, "MAGDIPOL": [0.0, 0.0, 0.0], "AVECCONST": [0.0, 0.0, 0.0], "LFINITE_TEMPERATURE": false, "LADDER": false, "LRPAFORCE": false, "LFXC": false, "LHARTREE": true, "IBSE": 0, "KPOINT": [-1, 0, 0, 0], "LTCTC": false, "LTCTE": false, "LTETE": false, "LTRIPLET": false, "LFXCEPS": false, "LFXHEG": false, "NATURALO": 2, "LHOLEGF": false, "L2ORDER": false, "LDMP1": false, "LMP2LT": false, "LSMP2LT": false, "LGWLF": false, "ENCUTGW": -2.0, "ENCUTGWSOFT": -2.0, "ENCUTLF": -1.0, "LESF_SPLINES": false, "LMAXMP2": -1, "SCISSOR": 0.0, "NOMEGA": 0, "NOMEGAR": 0, "NBANDSGW": -1, "NBANDSO": -1, "NBANDSV": -1, "NELMGW": 1, "NELMHF": 1, "DIM": 3, "IESPILON": 4, "ANTIRES": 0, "OMEGAMIN": -30.0, "OMEGATL": -200.0, "OMEGAGRID": 0, "LSELFENERGY": false, "LSPECTRAL": false, "LSPECTRALGW": false, "LSINGLES": false, "LFERMIGW": false, "ODDONLYGW": false, "EVENONLYGW": false, "NKREDLFX": 1, "NKREDLFY": 1, "NKREDLFZ": 1, "MAXMEM": 2800, "TELESCOPE": 0, "NTAUPAR": -1, "NOMEGAPAR": -1, "DAMP_NEWTON": 0.80000001, "LAMBDA": 1.0, "OFIELD_KAPPA": 0.0, "OFIELD_K": [0.0, 0.0, 0.0], "OFIELD_Q6_NEAR": 0.0, "OFIELD_Q6_FAR": 0.0, "OFIELD_A": 0.0, "KPOINTS_OPT_MODE": 1, "LKPOINTS_OPT": false, "@module": "pymatgen.io.vasp.inputs", "@class": "Incar"}, "relaxed_structures": {"@module": "pymatgen.core.structure", "@class": "Structure", "charge": 0, "lattice": {"matrix": [[7.00642, 0.0, 0.0], [-0.000714, 10.025156, 0.0], [0.0, 0.0, 40.086944]], "a": 7.00642, "b": 10.02515602542584, "c": 40.086944, "alpha": 90.0, "beta": 90.0, "gamma": 90.00408065335873, "volume": 2815.7251260500366}, "sites": [{"species": [{"element": "Na", "occu": 1}], "abc": [0.51550734, 0.16122728, 0.03460646], "xyz": [3.61174582084488, 1.6163286334556801, 1.38726722405824], "label": "Na", "properties": {}}, {"species": [{"element": "Na", "occu": 1}], "abc": [0.00074554, 0.92714506, 9.99999999999994e-05], "xyz": [0.004561584793960001, 9.29477386112936, 0.004008694399999976], "label": "Na", "properties": {}}, {"species": [{"element": "Na", "occu": 1}], "abc": [0.01198128, 0.47519214, 0.0024533899999999997], "xyz": [0.08360659262964, 4.76387533347384, 0.09834890754016], "label": "Na", "properties": {}}, {"species": [{"element": "Na", "occu": 1}], "abc": [0.98262118, 0.72723414, 0.06252358], "xyz": [6.8841374427996405, 7.29063570202584, 2.50637925013952], "label": "Na", "properties": {}}, {"species": [{"element": "Na", "occu": 1}], "abc": [0.49454951, 0.67344754, 0.16078681], "xyz": [3.46454073631064, 6.75141664631624, 6.4454518484086405], "label": "Na", "properties": {}}, {"species": [{"element": "Na", "occu": 1}], "abc": [0.5205733, 0.42122377, 0.09737697], "xyz": [3.6470544268142207, 4.22283400515812, 3.90354514327968], "label": "Na", "properties": {}}, {"species": [{"element": "Na", "occu": 1}], "abc": [0.02381585, 0.43529975, 0.116339], "xyz": [0.1665530437355, 4.3639479005110005, 4.663674978016], "label": "Na", "properties": {}}, {"species": [{"element": "Na", "occu": 1}], "abc": [0.49671316, 0.96640169, 0.10568778000000001], "xyz": [3.47949100768054, 9.688327700913641, 4.236700118344321], "label": "Na", "properties": {}}, {"species": [{"element": "Na", "occu": 1}], "abc": [0.99540998, 0.00052112, 0.12376718], "xyz": [6.97426001999192, 0.005224309294720001, 4.961448013697921], "label": "Na", "properties": {}}, {"species": [{"element": "Na", "occu": 1}], "abc": [0.99806172, 0.24820001, 0.18754341], "xyz": [6.99266238143526, 2.48824381945156, 7.51804217423904], "label": "Na", "properties": {}}, {"species": [{"element": "Na", "occu": 1}], "abc": [0.49805579, 0.18692086, 0.2870226], "xyz": [3.4894545866777604, 1.8739107811541602, 11.505858892934402], "label": "Na", "properties": {}}, {"species": [{"element": "Na", "occu": 1}], "abc": [0.49729433, 0.92443382, 0.22541107], "xyz": [3.4835928938511205, 9.267593257175921, 9.03604094007008], "label": "Na", "properties": {}}, {"species": [{"element": "Na", "occu": 1}], "abc": [0.99883215, 0.95481278, 0.24064595], "xyz": [6.99755581607808, 9.572147070293681, 9.6467607214768], "label": "Na", "properties": {}}, {"species": [{"element": "Na", "occu": 1}], "abc": [0.49906277, 0.48043025, 0.23395581999999998], "xyz": [3.4963003457849, 4.816388203369001, 9.37857385481408], "label": "Na", "properties": {}}, {"species": [{"element": "Na", "occu": 1}], "abc": [0.99752133, 0.5101908, 0.24931968999999998], "xyz": [6.9886891207074004, 5.114742359764801, 9.99446445112736], "label": "Na", "properties": {}}, {"species": [{"element": "Na", "occu": 1}], "abc": [0.99420798, 0.76079559, 0.31379006], "xyz": [6.96529546718034, 7.62709447386204, 12.57888456297664], "label": "Na", "properties": {}}, {"species": [{"element": "Na", "occu": 1}], "abc": [0.48132925, 0.70732974, 0.41200451], "xyz": [3.37188985035064, 7.091090986939441, 16.51600172011744], "label": "Na", "properties": {}}, {"species": [{"element": "Na", "occu": 1}], "abc": [0.49580727, 0.4336813, 0.35087804], "xyz": [3.4735243242252003, 4.3477226867828005, 14.065628340309761], "label": "Na", "properties": {}}, {"species": [{"element": "Na", "occu": 1}], "abc": [0.99757876, 0.46809083, 0.36871873], "xyz": [6.9891215587865805, 4.69268359291948, 14.78080708126112], "label": "Na", "properties": {}}, {"species": [{"element": "Na", "occu": 1}], "abc": [0.52027181, 0.99966208, 0.35821498], "xyz": [3.6445290562950805, 10.021768299284481, 14.359743843221121], "label": "Na", "properties": {}}, {"species": [{"element": "Na", "occu": 1}], "abc": [0.01790295, 0.01314937, 0.37711431], "xyz": [0.12542619828882, 0.13182448555172002, 15.11736022656864], "label": "Na", "properties": {}}, {"species": [{"element": "Na", "occu": 1}], "abc": [0.01344467, 0.27282706, 0.43995509], "xyz": [0.09400420626056, 2.7351338375213605, 17.63645505534496], "label": "Na", "properties": {}}, {"species": [{"element": "Na", "occu": 1}], "abc": [0.50894236, 0.95863957, 0.47207156], "xyz": [3.56517946129822, 9.610511237022921, 18.923906189712643], "label": "Na", "properties": {}}, {"species": [{"element": "Na", "occu": 1}], "abc": [0.49833423, 0.50736929, 0.47428454000000003], "xyz": [3.49117665408354, 5.08645628185924, 19.012617795045763], "label": "Na", "properties": {}}, {"species": [{"element": "P", "occu": 1}], "abc": [0.01130594, 0.19570952, 0.05036404], "xyz": [0.07907442753752, 1.96201846868512, 2.0189404510937603], "label": "P", "properties": {}}, {"species": [{"element": "P", "occu": 1}], "abc": [0.48442737, 0.70475412, 0.04137417], "xyz": [3.3935984192737205, 7.065269994642721, 1.6585640358364802], "label": "P", "properties": {}}, {"species": [{"element": "P", "occu": 1}], "abc": [0.99829003, 0.70635921, 0.17503906], "xyz": [6.993934891516661, 7.0813612722867605, 7.01678099603264], "label": "P", "properties": {}}, {"species": [{"element": "P", "occu": 1}], "abc": [0.50040579, 0.21336717, 0.17345814], "xyz": [3.50590079101242, 2.13903916452852, 6.953406744524161], "label": "P", "properties": {}}, {"species": [{"element": "P", "occu": 1}], "abc": [0.00056159, 0.22103191, 0.30104521], "xyz": [0.0037769186240600005, 2.2158793787279603, 12.06798247473824], "label": "P", "properties": {}}, {"species": [{"element": "P", "occu": 1}], "abc": [0.49811863, 0.72772943, 0.29981169], "xyz": [3.48950873279158, 7.295601061541081, 12.01853442757536], "label": "P", "properties": {}}, {"species": [{"element": "P", "occu": 1}], "abc": [0.98191394, 0.72994923, 0.43302971], "xyz": [6.87918028374458, 7.317854902829881, 17.358837735106242], "label": "P", "properties": {}}, {"species": [{"element": "P", "occu": 1}], "abc": [0.50898629, 0.23852865, 0.42423898], "xyz": [3.5660014125257, 2.3912869267194004, 17.006444233877122], "label": "P", "properties": {}}, {"species": [{"element": "S", "occu": 1}], "abc": [0.16256887, 0.02138877, 0.05766388], "xyz": [1.1390105105636201, 0.21442575589812002, 2.31156872838272], "label": "S", "properties": {}}, {"species": [{"element": "S", "occu": 1}], "abc": [0.66470156, 0.5439447, 0.03667126], "xyz": [4.656789927499401, 5.4531304728732, 1.47003874602944], "label": "S", "properties": {}}, {"species": [{"element": "S", "occu": 1}], "abc": [0.19921598, 0.35295755, 0.053024009999999996], "xyz": [1.3955388149008998, 3.5384545001278003, 2.12557051952544], "label": "S", "properties": {}}, {"species": [{"element": "S", "occu": 1}], "abc": [0.35733705, 0.69631988, 0.08836176], "xyz": [2.5031562814666803, 6.98071542290128, 3.54215292486144], "label": "S", "properties": {}}, {"species": [{"element": "S", "occu": 1}], "abc": [0.80371717, 0.21047955, 0.08696484], "xyz": [5.631029771832701, 2.1100903235598, 3.4861546710489604], "label": "S", "properties": {}}, {"species": [{"element": "S", "occu": 1}], "abc": [0.64868414, 0.87633945, 0.03853199], "xyz": [4.5443278258115, 8.7854396952042, 1.5446297253385601], "label": "S", "properties": {}}, {"species": [{"element": "S", "occu": 1}], "abc": [0.88845464, 0.19659951, 0.0033669799999999986], "xyz": [6.22474598673866, 1.9709407572735602, 0.13497193870911994], "label": "S", "properties": {}}, {"species": [{"element": "S", "occu": 1}], "abc": [0.26847742, 0.70385357, 0.00561623], "xyz": [1.8805630135874203, 7.056241840406921, 0.22513749750112], "label": "S", "properties": {}}, {"species": [{"element": "S", "occu": 1}], "abc": [0.15628686, 0.53321572, 0.17990314], "xyz": [1.09463066561712, 5.34557077465232, 7.21176709860416], "label": "S", "properties": {}}, {"species": [{"element": "S", "occu": 1}], "abc": [0.68227607, 0.05123577, 0.17104517], "xyz": [4.780276120029621, 0.51364658703012, 6.85667815126048], "label": "S", "properties": {}}, {"species": [{"element": "S", "occu": 1}], "abc": [0.18138973, 0.86760276, 0.1764479], "xyz": [1.27027316369596, 8.69785301503056, 7.0732570862176], "label": "S", "properties": {}}, {"species": [{"element": "S", "occu": 1}], "abc": [0.35483545, 0.20715536, 0.21837247], "xyz": [2.48597828466196, 2.0767648002361603, 8.753884976031681], "label": "S", "properties": {}}, {"species": [{"element": "S", "occu": 1}], "abc": [0.80332322, 0.7178471, 0.21363546], "xyz": [5.627907332243001, 7.1965291616476, 8.563992721434241], "label": "S", "properties": {}}, {"species": [{"element": "S", "occu": 1}], "abc": [0.65656408, 0.38756723, 0.16979844], "xyz": [4.59988697839138, 3.88542194123788, 6.80670055556736], "label": "S", "properties": {}}, {"species": [{"element": "S", "occu": 1}], "abc": [0.85188222, 0.70617121, 0.13015964], "xyz": [5.96814041760846, 7.079476542958761, 5.2177021997401605], "label": "S", "properties": {}}, {"species": [{"element": "S", "occu": 1}], "abc": [0.30741704, 0.20626375, 0.13465619], "xyz": [2.1537456250793, 2.067826270895, 5.39795514778336], "label": "S", "properties": {}}, {"species": [{"element": "S", "occu": 1}], "abc": [0.15634244, 0.0466037, 0.30460979], "xyz": [1.095367523423, 0.46720936267720004, 12.210875593581761], "label": "S", "properties": {}}, {"species": [{"element": "S", "occu": 1}], "abc": [0.68196022, 0.56686272, 0.29830179], "xyz": [4.777694984630321, 5.682887198584321, 11.958007150829761], "label": "S", "properties": {}}, {"species": [{"element": "S", "occu": 1}], "abc": [0.18316656, 0.38272945, 0.3034043], "xyz": [1.2830685804879, 3.8369224420442007, 12.162551183459202], "label": "S", "properties": {}}, {"species": [{"element": "S", "occu": 1}], "abc": [0.35093063, 0.72690544, 0.34457211], "xyz": [2.45824837416044, 7.287340433248641, 13.81284287753184], "label": "S", "properties": {}}, {"species": [{"element": "S", "occu": 1}], "abc": [0.80820739, 0.22824786, 0.33993757], "xyz": [5.6624774524717605, 2.2882204031661604, 13.627058332086081], "label": "S", "properties": {}}, {"species": [{"element": "S", "occu": 1}], "abc": [0.65548852, 0.90118962, 0.29504539], "xyz": [4.59198442690972, 9.03456652608072, 11.82746802638816], "label": "S", "properties": {}}, {"species": [{"element": "S", "occu": 1}], "abc": [0.85444307, 0.2275521, 0.2561978], "xyz": [5.98642454231, 2.2812453006276003, 10.2701868615232], "label": "S", "properties": {}}, {"species": [{"element": "S", "occu": 1}], "abc": [0.30339813, 0.71655017, 0.26113583], "xyz": [2.12522310917322, 7.183527236076521, 10.468137393603522], "label": "S", "properties": {}}, {"species": [{"element": "S", "occu": 1}], "abc": [0.14668317, 0.55855377, 0.43577174], "xyz": [1.0273250885596201, 5.59958867863812, 17.46875733816256], "label": "S", "properties": {}}, {"species": [{"element": "S", "occu": 1}], "abc": [0.69540273, 0.08047783, 0.42133665], "xyz": [4.87222613435598, 0.8068028002914801, 16.8900986936976], "label": "S", "properties": {}}, {"species": [{"element": "S", "occu": 1}], "abc": [0.16139158, 0.89111256, 0.43774665], "xyz": [1.13014093957576, 8.933542427559361, 17.5479254447376], "label": "S", "properties": {}}, {"species": [{"element": "S", "occu": 1}], "abc": [0.38666463, 0.23743425, 0.47129108], "xyz": [2.7089652688701, 2.380315395993, 18.89261913165952], "label": "S", "properties": {}}, {"species": [{"element": "S", "occu": 1}], "abc": [0.76583519, 0.73057229, 0.46881665], "xyz": [5.36524136330474, 7.324101176527241, 18.793426794817602], "label": "S", "properties": {}}, {"species": [{"element": "S", "occu": 1}], "abc": [0.66149426, 0.41231012, 0.41699794], "xyz": [4.63441222372352, 4.13347327337872, 16.716173068895362], "label": "S", "properties": {}}, {"species": [{"element": "S", "occu": 1}], "abc": [0.85494083, 0.73810179, 0.386011], "xyz": [5.989547525450541, 7.3995855886292405, 15.474001340384001], "label": "S", "properties": {}}, {"species": [{"element": "S", "occu": 1}], "abc": [0.30093606, 0.22488133, 0.38769292], "xyz": [2.10832386423558, 2.25447041473748, 15.541424373236481], "label": "S", "properties": {}}]}, "formula": "", "bandgap": 2.4208, "slab_thickness": 19.008609100645764}