{"miller": "101_0.03", "final_energy": -261.39496263, "gamma": 0.014196483867781563, "work_function": 4.049930118331472, "ionization_potentail": -4.338430118331472, "electron_affinity": -1.9190301183314724, "is_stochiometric": true, "incar_parameters": {"SYSTEM": "unknown system", "LCOMPAT": false, "PREC": "normal", "ENMAX": 520.0, "ENAUG": 368.056, "EDIFF": 1e-05, "IALGO": 38, "IWAVPR": 11, "NBANDS": 240, "NBANDSLOW": -1, "NBANDSHIGH": -1, "NELECT": 400.0, "TURBO": 0, "IRESTART": 0, "NREBOOT": 0, "NMIN": 0, "EREF": 0.0, "ISMEAR": 0, "SIGMA": 0.05, "KSPACING": 0.5, "KGAMMA": true, "KBLOWUP": true, "LREAL": true, "ROPT": [-0.0005, -0.0005, -0.0005], "LMAXPAW": -100, "LMAXMIX": 2, "NLSPLINE": false, "ISTART": 0, "ICHARG": 2, "INIWAV": 1, "ISPIN": 1, "LNONCOLLINEAR": false, "MAGMOM": [0.6, 0.6, 0.6, 0.6, 0.6, 0.6, 0.6, 0.6, 0.6, 0.6, 0.6, 0.6, 0.6, 0.6, 0.6, 0.6, 0.6, 0.6, 0.6, 0.6, 0.6, 0.6, 0.6, 0.6, 0.6, 0.6, 0.6, 0.6, 0.6, 0.6, 0.6, 0.6, 0.6, 0.6, 0.6, 0.6, 0.6, 0.6, 0.6, 0.6, 0.6, 0.6, 0.6, 0.6, 0.6, 0.6, 0.6, 0.6, 0.6, 0.6, 0.6, 0.6, 0.6, 0.6, 0.6, 0.6, 0.6, 0.6, 0.6, 0.6, 0.6, 0.6, 0.6, 0.6], "NUPDOWN": -1.0, "LSORBIT": false, "SAXIS": [0.0, 0.0, 1.0], "LSPIRAL": false, "QSPIRAL": [0.0, 0.0, 0.0], "LZEROZ": false, "LASPH": false, "LMETAGGA": false, "NELM": 100, "NELMDL": -5, "NELMIN": 6, "ENINI": 520.0, "LDIAG": true, "LSUBROT": false, "WEIMIN": 0.001, "EBREAK": 1e-08, "DEPER": 0.3, "NRMM": 4, "TIME": 0.4, "AMIX": 0.4, "BMIX": 1.0, "AMIN": 0.1, "AMIX_MAG": 1.6, "BMIX_MAG": 1.0, "IMIX": 4, "MIXFIRST": false, "MAXMIX": -45, "WC": 100.0, "INIMIX": 1, "MIXPRE": 1, "MREMOVE": 5, "LDIPOL": false, "LMONO": false, "IDIPOL": 0, "EPSILON": 1.0, "DIPOL": [-100.0, -100.0, -100.0], "EFIELD": 0.0, "NGX": 40, "NGY": 56, "NGZ": 224, "NGXF": 80, "NGYF": 112, "NGZF": 448, "ADDGRID": false, "NSW": 150, "IBRION": 2, "MDALGO": 0, "ISIF": 2, "PSTRESS": 0.0, "EDIFFG": -0.01, "NFREE": 1, "POTIM": 0.5, "SMASS": -3.0, "SCALEE": 1.0, "TEBEG": 0.0001, "TEEND": 0.0001, "NBLOCK": 1, "KBLOCK": 150, "NPACO": 256, "APACO": 10.0, "ISYM": 0, "SYMPREC": 1e-05, "LORBIT": 11, "RWIGS": [-1.0, -1.0, -1.0], "NEDOS": 301, "EMIN": 10.0, "EMAX": -10.0, "EFERMI": 0.0, "NWRITE": 2, "LWAVE": false, "LDOWNSAMPLE": false, "LCHARG": false, "LPARD": false, "LVTOT": false, "LVHAR": false, "LELF": false, "LOPTICS": false, "STM": [0.0, 0.0, 0.0, 0.0, 0.0, 0.0, 0.0], "NPAR": 1, "NSIM": 4, "NBLK": -1, "LPLANE": true, "LSCALAPACK": true, "LSCAAWARE": false, "LSCALU": false, "LASYNC": false, "LORBITALREAL": false, "IDIOT": 3, "PHON_NSTRUCT": -1, "LMUSIC": false, "POMASS": [22.99, 30.974, 32.066], "DARWINR": [0.0, 0.0, 0.0], "DARWINV": [1.0, 1.0, 1.0], "LCORR": true, "GGA_COMPAT": true, "LBERRY": false, "ICORELEVEL": 0, "LDAU": false, "I_CONSTRAINED_M": 0, "GGA": "--", "VOSKOWN": 0, "LHFCALC": false, "PRECFOCK": "", "LSYMGRAD": false, "LHFONE": false, "LRHFCALC": false, "LTHOMAS": false, "LMODELHF": false, "LFOCKACE": false, "ENCUT4O": -1.0, "EXXOEP": 0, "FOURORBIT": 0, "AEXX": 0.0, "HFALPHA": 0.0, "MCALPHA": 0.0, "ALDAX": 1.0, "AGGAX": 1.0, "ALDAC": 1.0, "AGGAC": 1.0, "NKREDX": 1, "NKREDY": 1, "NKREDZ": 1, "SHIFTRED": false, "ODDONLY": false, "EVENONLY": false, "LMAXFOCK": 0, "NMAXFOCKAE": 0, "LFOCKAEDFT": false, "HFSCREEN": 0.0, "HFSCREENC": 0.0, "NBANDSGWLOW": 0, "LUSE_VDW": false, "Zab_VDW": -0.8491, "PARAM1": 0.1234, "PARAM2": 1.0, "PARAM3": 0.0, "MODEL_GW": 0, "MODEL_EPS0": 26.39742306, "MODEL_ALPHA": 1.0, "LEPSILON": false, "LRPA": false, "LNABLA": false, "LVEL": false, "CSHIFT": 0.1, "OMEGAMAX": -1.0, "DEG_THRESHOLD": 0.002, "RTIME": -0.1, "WPLASMAI": 0.0, "DFIELD": [0.0, 0.0, 0.0], "WPLASMA": [0.0, 0.0, 0.0, 0.0, 0.0, 0.0, 0.0, 0.0, 0.0], "NUCIND": false, "MAGPOS": [0.0, 0.0, 0.0], "LNICSALL": true, "ORBITALMAG": false, "LMAGBLOCH": false, "LCHIMAG": false, "LGAUGE": true, "MAGATOM": 0, "MAGDIPOL": [0.0, 0.0, 0.0], "AVECCONST": [0.0, 0.0, 0.0], "LFINITE_TEMPERATURE": false, "LADDER": false, "LRPAFORCE": false, "LFXC": false, "LHARTREE": true, "IBSE": 0, "KPOINT": [-1, 0, 0, 0], "LTCTC": false, "LTCTE": false, "LTETE": false, "LTRIPLET": false, "LFXCEPS": false, "LFXHEG": false, "NATURALO": 2, "LHOLEGF": false, "L2ORDER": false, "LDMP1": false, "LMP2LT": false, "LSMP2LT": false, "LGWLF": false, "ENCUTGW": -2.0, "ENCUTGWSOFT": -2.0, "ENCUTLF": -1.0, "LESF_SPLINES": false, "LMAXMP2": -1, "SCISSOR": 0.0, "NOMEGA": 0, "NOMEGAR": 0, "NBANDSGW": -1, "NBANDSO": -1, "NBANDSV": -1, "NELMGW": 1, "NELMHF": 1, "DIM": 3, "IESPILON": 4, "ANTIRES": 0, "OMEGAMIN": -30.0, "OMEGATL": -200.0, "OMEGAGRID": 0, "LSELFENERGY": false, "LSPECTRAL": false, "LSPECTRALGW": false, "LSINGLES": false, "LFERMIGW": false, "ODDONLYGW": false, "EVENONLYGW": false, "NKREDLFX": 1, "NKREDLFY": 1, "NKREDLFZ": 1, "MAXMEM": 2800, "TELESCOPE": 0, "NTAUPAR": -1, "NOMEGAPAR": -1, "DAMP_NEWTON": 0.80000001, "LAMBDA": 1.0, "OFIELD_KAPPA": 0.0, "OFIELD_K": [0.0, 0.0, 0.0], "OFIELD_Q6_NEAR": 0.0, "OFIELD_Q6_FAR": 0.0, "OFIELD_A": 0.0, "KPOINTS_OPT_MODE": 1, "LKPOINTS_OPT": false, "@module": "pymatgen.io.vasp.inputs", "@class": "Incar"}, "relaxed_structures": {"@module": "pymatgen.core.structure", "@class": "Structure", "charge": 0, "lattice": {"matrix": [[7.00642, 0.0, 0.0], [-0.000714, 10.025156, 0.0], [0.0, 0.0, 40.086944]], "a": 7.00642, "b": 10.02515602542584, "c": 40.086944, "alpha": 90.0, "beta": 90.0, "gamma": 90.00408065335873, "volume": 2815.7251260500366}, "sites": [{"species": [{"element": "Na", "occu": 1}], "abc": [0.51378498, 0.99064197, 0.03430443], "xyz": [3.5990860412050196, 9.93134028939732, 1.37515976436192], "label": "Na", "properties": {}}, {"species": [{"element": "Na", "occu": 1}], "abc": [0.99887579, 0.75553371, 0.00010000000000000286], "xyz": [6.99800386150286, 7.574343306008761, 0.004008694400000115], "label": "Na", "properties": {}}, {"species": [{"element": "Na", "occu": 1}], "abc": [0.00965347, 0.3037293, 0.0019227299999999975], "xyz": [0.06741940255720001, 3.0449336142708, 0.0770763698371199], "label": "Na", "properties": {}}, {"species": [{"element": "Na", "occu": 1}], "abc": [0.49528347, 0.50031508, 0.1605151], "xyz": [3.46980678491028, 5.015736726152481, 6.4345598248544], "label": "Na", "properties": {}}, {"species": [{"element": "Na", "occu": 1}], "abc": [0.51940797, 0.24928006, 0.09708069], "xyz": [3.6390124032045605, 2.4990714891893604, 3.89166818351136], "label": "Na", "properties": {}}, {"species": [{"element": "Na", "occu": 1}], "abc": [0.02054806, 0.26069048, 0.11647186000000001], "xyz": [0.14378220554248, 2.6134627297148803, 4.669000929395841], "label": "Na", "properties": {}}, {"species": [{"element": "Na", "occu": 1}], "abc": [0.49907297, 0.79405056, 0.1052536], "xyz": [3.4961478863675604, 7.96048073588736, 4.2192951689984], "label": "Na", "properties": {}}, {"species": [{"element": "Na", "occu": 1}], "abc": [0.997422, 0.82727095, 0.12318082999999999], "xyz": [6.9877667777817, 8.2935203280182, 4.93794303408352], "label": "Na", "properties": {}}, {"species": [{"element": "Na", "occu": 1}], "abc": [0.98229327, 0.55284874, 0.06222760999999999], "xyz": [6.88196447879304, 5.54239486290344, 2.4945147173238396], "label": "Na", "properties": {}}, {"species": [{"element": "Na", "occu": 1}], "abc": [0.49954333, 0.01171858, 0.28666365], "xyz": [3.50000201111248, 0.11748059259848, 11.491469684385601], "label": "Na", "properties": {}}, {"species": [{"element": "Na", "occu": 1}], "abc": [0.4980259, 0.75031144, 0.22502414999999998], "xyz": [3.4888429039098403, 7.521989234584641, 9.0205304996976], "label": "Na", "properties": {}}, {"species": [{"element": "Na", "occu": 1}], "abc": [0.99911193, 0.77902407, 0.24026578999999998], "xyz": [6.9996415854046194, 7.809837829504921, 9.63152126884576], "label": "Na", "properties": {}}, {"species": [{"element": "Na", "occu": 1}], "abc": [0.5012909, 0.30527898, 0.23351501000000002], "xyz": [3.51203661838628, 3.06046939802088, 9.360903129029442], "label": "Na", "properties": {}}, {"species": [{"element": "Na", "occu": 1}], "abc": [0.99868452, 0.33543583, 0.24882664999999998], "xyz": [6.99696369343578, 3.36279652373948, 9.9746999842576], "label": "Na", "properties": {}}, {"species": [{"element": "Na", "occu": 1}], "abc": [0.00101114, 0.07239324, 0.18724436], "xyz": [0.00703278274544, 0.72575352434544, 7.506054173635841], "label": "Na", "properties": {}}, {"species": [{"element": "Na", "occu": 1}], "abc": [0.47998128, 0.53186191, 0.41160553], "xyz": [3.36257069041386, 5.331998618207961, 16.50000783120032], "label": "Na", "properties": {}}, {"species": [{"element": "Na", "occu": 1}], "abc": [0.49433633, 0.25844988, 0.35036125], "xyz": [3.46334341602428, 2.5910003651812805, 14.044911808520002], "label": "Na", "properties": {}}, {"species": [{"element": "Na", "occu": 1}], "abc": [0.99464825, 0.29361807, 0.36790186], "xyz": [6.968713748463021, 2.94356695616892, 14.748061259315842], "label": "Na", "properties": {}}, {"species": [{"element": "Na", "occu": 1}], "abc": [0.52195875, 0.82322511, 0.35787472], "xyz": [3.65647444244646, 8.25296015086716, 14.34610385965568], "label": "Na", "properties": {}}, {"species": [{"element": "Na", "occu": 1}], "abc": [0.01798024, 0.83766835, 0.3766974], "xyz": [0.12537901793890002, 8.3977558850126, 15.100647578745601], "label": "Na", "properties": {}}, {"species": [{"element": "Na", "occu": 1}], "abc": [0.99578393, 0.58682036, 0.31328391], "xyz": [6.9764614530935605, 5.882965652976161, 12.558594556271041], "label": "Na", "properties": {}}, {"species": [{"element": "Na", "occu": 1}], "abc": [0.50731487, 0.783699, 0.47149739999999996], "xyz": [3.5539014903794, 7.856704732044001, 18.9008898699456], "label": "Na", "properties": {}}, {"species": [{"element": "Na", "occu": 1}], "abc": [0.4954459, 0.33130251, 0.47379909], "xyz": [3.4710655126858603, 3.32135934594156, 18.99315758808096], "label": "Na", "properties": {}}, {"species": [{"element": "Na", "occu": 1}], "abc": [0.01133892, 0.09806196, 0.43907110000000005], "xyz": [0.07937521962696001, 0.9830864466657602, 17.601018597718404], "label": "Na", "properties": {}}, {"species": [{"element": "P", "occu": 1}], "abc": [0.00972493, 0.02461102, 0.05011601], "xyz": [0.06811937178232, 0.24672931481912003, 2.0089976863734402], "label": "P", "properties": {}}, {"species": [{"element": "P", "occu": 1}], "abc": [0.48335547, 0.53258327, 0.04119441], "xyz": [3.38621116766262, 5.339230364740121, 1.6513580067830402], "label": "P", "properties": {}}, {"species": [{"element": "P", "occu": 1}], "abc": [0.99928438, 0.53254822, 0.17469425], "xyz": [7.00102582629052, 5.338878983022321, 7.002958616872], "label": "P", "properties": {}}, {"species": [{"element": "P", "occu": 1}], "abc": [0.50367973, 0.0397767, 0.17297898], "xyz": [3.5289633333028, 0.3987676226652, 6.934198684437121], "label": "P", "properties": {}}, {"species": [{"element": "P", "occu": 1}], "abc": [0.00146141, 0.04519974, 0.30051003], "xyz": [0.010206979637840001, 0.4531344446594401, 12.04652874404832], "label": "P", "properties": {}}, {"species": [{"element": "P", "occu": 1}], "abc": [0.49965702, 0.55218611, 0.29943328], "xyz": [3.50041267718586, 5.53575189378316, 12.003365127096322], "label": "P", "properties": {}}, {"species": [{"element": "P", "occu": 1}], "abc": [0.98055444, 0.55446825, 0.43247860000000005], "xyz": [6.869780349174301, 5.558630703297, 17.336745419398405], "label": "P", "properties": {}}, {"species": [{"element": "P", "occu": 1}], "abc": [0.50748733, 0.06309712, 0.4236216], "xyz": [3.5556243273149204, 0.6325584711507202, 16.9816953563904], "label": "P", "properties": {}}, {"species": [{"element": "S", "occu": 1}], "abc": [0.16352453, 0.85121915, 0.057148050000000006], "xyz": [1.1451137670095, 8.533604768937401, 2.2908906800592], "label": "S", "properties": {}}, {"species": [{"element": "S", "occu": 1}], "abc": [0.66290978, 0.37152629, 0.036388729999999994], "xyz": [4.64435907101654, 3.7246090153512403, 1.45871298174112], "label": "S", "properties": {}}, {"species": [{"element": "S", "occu": 1}], "abc": [0.19466985, 0.18349627, 0.0530959], "xyz": [1.36380771410022, 1.83957873216812, 2.1284523699296], "label": "S", "properties": {}}, {"species": [{"element": "S", "occu": 1}], "abc": [0.64824598, 0.70404416, 0.038582240000000004], "xyz": [4.54138091166136, 7.058152534888961, 1.5466440942745603], "label": "S", "properties": {}}, {"species": [{"element": "S", "occu": 1}], "abc": [0.88710282, 0.02547528, 0.0030851600000000035], "xyz": [6.21539675075448, 0.25539365614368004, 0.12367463615104014], "label": "S", "properties": {}}, {"species": [{"element": "S", "occu": 1}], "abc": [0.26772155, 0.53228137, 0.0053846599999999994], "xyz": [1.8753895734528199, 5.336203770143721, 0.21585456387903998], "label": "S", "properties": {}}, {"species": [{"element": "S", "occu": 1}], "abc": [0.15739846, 0.35948988, 0.1795582], "xyz": [1.1025430423388798, 3.60394212742128, 7.1979395081408], "label": "S", "properties": {}}, {"species": [{"element": "S", "occu": 1}], "abc": [0.68471122, 0.87715152, 0.17062528999999999], "xyz": [4.79674809984712, 8.79358082363712, 6.83984644521376], "label": "S", "properties": {}}, {"species": [{"element": "S", "occu": 1}], "abc": [0.18207644, 0.69398421, 0.17616781], "xyz": [1.27520850601886, 6.957299966786761, 7.062029134072641], "label": "S", "properties": {}}, {"species": [{"element": "S", "occu": 1}], "abc": [0.35626166, 0.52423465, 0.08818381], "xyz": [2.4957445163171, 5.255534146855401, 3.5350194531766403], "label": "S", "properties": {}}, {"species": [{"element": "S", "occu": 1}], "abc": [0.80166653, 0.03674653, 0.08665725999999999], "xyz": [5.61678617210018, 0.36838969570868, 3.47382472881344], "label": "S", "properties": {}}, {"species": [{"element": "S", "occu": 1}], "abc": [0.66004451, 0.21385187, 0.16937595], "xyz": [4.62439636551902, 2.1438983576417203, 6.7897642225968005], "label": "S", "properties": {}}, {"species": [{"element": "S", "occu": 1}], "abc": [0.8527742, 0.53288113, 0.12986722], "xyz": [5.974513733237181, 5.3422164577062805, 5.205979975575681], "label": "S", "properties": {}}, {"species": [{"element": "S", "occu": 1}], "abc": [0.31060843, 0.03299498, 0.13416455], "xyz": [2.1762295577048802, 0.33077982171688003, 5.3782468026352], "label": "S", "properties": {}}, {"species": [{"element": "S", "occu": 1}], "abc": [0.15830209, 0.87126764, 0.30404123], "xyz": [1.10850884432284, 8.734594008751841, 12.18808376070112], "label": "S", "properties": {}}, {"species": [{"element": "S", "occu": 1}], "abc": [0.68387982, 0.39149277, 0.29802515], "xyz": [4.79126972260662, 3.92477609212212, 11.946917498641602], "label": "S", "properties": {}}, {"species": [{"element": "S", "occu": 1}], "abc": [0.18307879, 0.20751732, 0.30289198], "xyz": [1.28257872846532, 2.0803935057019203, 12.14201384030912], "label": "S", "properties": {}}, {"species": [{"element": "S", "occu": 1}], "abc": [0.35827449, 0.03376215, 0.21789798999999999], "xyz": [2.5101974460507, 0.3384708206454, 8.73486452284256], "label": "S", "properties": {}}, {"species": [{"element": "S", "occu": 1}], "abc": [0.80367547, 0.54355265, 0.21323839], "xyz": [5.6304997899253, 5.4492001104634005, 8.54807539858016], "label": "S", "properties": {}}, {"species": [{"element": "S", "occu": 1}], "abc": [0.65674601, 0.72577728, 0.29466746], "xyz": [4.60092017440628, 7.2760304532556805, 11.81231796764224], "label": "S", "properties": {}}, {"species": [{"element": "S", "occu": 1}], "abc": [0.85576338, 0.05134434, 0.25562479], "xyz": [5.99580100104084, 0.51473501821704, 10.24721664174176], "label": "S", "properties": {}}, {"species": [{"element": "S", "occu": 1}], "abc": [0.30546071, 0.54109614, 0.2606996], "xyz": [2.13979968511424, 5.42457321449784, 10.4506502660224], "label": "S", "properties": {}}, {"species": [{"element": "S", "occu": 1}], "abc": [0.14497395, 0.38286668, 0.43508557000000003], "xyz": [1.0154750159494799, 3.8382981942020806, 17.441250879798083], "label": "S", "properties": {}}, {"species": [{"element": "S", "occu": 1}], "abc": [0.69617384, 0.90622689, 0.42114729], "xyz": [4.8770392700533405, 9.08506594364484, 16.882507829981762], "label": "S", "properties": {}}, {"species": [{"element": "S", "occu": 1}], "abc": [0.16021892, 0.71552081, 0.43733199], "xyz": [1.12205016360806, 7.173207741496361, 17.53130299253856], "label": "S", "properties": {}}, {"species": [{"element": "S", "occu": 1}], "abc": [0.35176218, 0.55152087, 0.34413983], "xyz": [2.46419978729442, 5.529082759005721, 13.79551409337952], "label": "S", "properties": {}}, {"species": [{"element": "S", "occu": 1}], "abc": [0.80877033, 0.05220348, 0.33936003], "xyz": [5.66654734223388, 0.52334803074288, 13.60390651844832], "label": "S", "properties": {}}, {"species": [{"element": "S", "occu": 1}], "abc": [0.65870336, 0.23751548, 0.41645441], "xyz": [4.61498280951848, 2.38112973941488, 16.69438461222304], "label": "S", "properties": {}}, {"species": [{"element": "S", "occu": 1}], "abc": [0.85397954, 0.56323025, 0.38545676], "xyz": [5.982937182248301, 5.646471120169001, 15.45178355254144], "label": "S", "properties": {}}, {"species": [{"element": "S", "occu": 1}], "abc": [0.30161072, 0.04811534, 0.38678679], "xyz": [2.11317702646964, 0.48236378949304004, 15.50510039066976], "label": "S", "properties": {}}, {"species": [{"element": "S", "occu": 1}], "abc": [0.38278735, 0.06199114, 0.47046884], "xyz": [2.68192468311304, 0.62147084911784, 18.85965804282496], "label": "S", "properties": {}}, {"species": [{"element": "S", "occu": 1}], "abc": [0.76453918, 0.5547679, 0.46824728000000004], "xyz": [5.356286497255, 5.5616347412924005, 18.770602491512324], "label": "S", "properties": {}}]}, "formula": "", "bandgap": 2.4194, "slab_thickness": 18.989148893680962}