{"miller": "101_0.33", "final_energy": -261.39372593, "gamma": 0.014205287199325869, "work_function": "Not calculated", "ionization_potentail": "Not calculated", "electron_affinity": "Not calculated", "is_stochiometric": true, "incar_parameters": {"SYSTEM": "unknown system", "LCOMPAT": false, "PREC": "normal", "ENMAX": 520.0, "ENAUG": 368.056, "EDIFF": 1e-05, "IALGO": 38, "IWAVPR": 11, "NBANDS": 240, "NBANDSLOW": -1, "NBANDSHIGH": -1, "NELECT": 400.0, "TURBO": 0, "IRESTART": 0, "NREBOOT": 0, "NMIN": 0, "EREF": 0.0, "ISMEAR": 0, "SIGMA": 0.05, "KSPACING": 0.5, "KGAMMA": true, "KBLOWUP": true, "LREAL": true, "ROPT": [-0.0005, -0.0005, -0.0005], "LMAXPAW": -100, "LMAXMIX": 2, "NLSPLINE": false, "ISTART": 0, "ICHARG": 2, "INIWAV": 1, "ISPIN": 1, "LNONCOLLINEAR": false, "MAGMOM": [0.6, 0.6, 0.6, 0.6, 0.6, 0.6, 0.6, 0.6, 0.6, 0.6, 0.6, 0.6, 0.6, 0.6, 0.6, 0.6, 0.6, 0.6, 0.6, 0.6, 0.6, 0.6, 0.6, 0.6, 0.6, 0.6, 0.6, 0.6, 0.6, 0.6, 0.6, 0.6, 0.6, 0.6, 0.6, 0.6, 0.6, 0.6, 0.6, 0.6, 0.6, 0.6, 0.6, 0.6, 0.6, 0.6, 0.6, 0.6, 0.6, 0.6, 0.6, 0.6, 0.6, 0.6, 0.6, 0.6, 0.6, 0.6, 0.6, 0.6, 0.6, 0.6, 0.6, 0.6], "NUPDOWN": -1.0, "LSORBIT": false, "SAXIS": [0.0, 0.0, 1.0], "LSPIRAL": false, "QSPIRAL": [0.0, 0.0, 0.0], "LZEROZ": false, "LASPH": false, "LMETAGGA": false, "NELM": 100, "NELMDL": -5, "NELMIN": 6, "ENINI": 520.0, "LDIAG": true, "LSUBROT": false, "WEIMIN": 0.001, "EBREAK": 1e-08, "DEPER": 0.3, "NRMM": 4, "TIME": 0.4, "AMIX": 0.4, "BMIX": 1.0, "AMIN": 0.1, "AMIX_MAG": 1.6, "BMIX_MAG": 1.0, "IMIX": 4, "MIXFIRST": false, "MAXMIX": -45, "WC": 100.0, "INIMIX": 1, "MIXPRE": 1, "MREMOVE": 5, "LDIPOL": false, "LMONO": false, "IDIPOL": 0, "EPSILON": 1.0, "DIPOL": [-100.0, -100.0, -100.0], "EFIELD": 0.0, "NGX": 40, "NGY": 56, "NGZ": 224, "NGXF": 80, "NGYF": 112, "NGZF": 448, "ADDGRID": false, "NSW": 150, "IBRION": 2, "MDALGO": 0, "ISIF": 2, "PSTRESS": 0.0, "EDIFFG": -0.01, "NFREE": 1, "POTIM": 0.5, "SMASS": -3.0, "SCALEE": 1.0, "TEBEG": 0.0001, "TEEND": 0.0001, "NBLOCK": 1, "KBLOCK": 150, "NPACO": 256, "APACO": 10.0, "ISYM": 0, "SYMPREC": 1e-05, "LORBIT": 11, "RWIGS": [-1.0, -1.0, -1.0], "NEDOS": 301, "EMIN": 10.0, "EMAX": -10.0, "EFERMI": 0.0, "NWRITE": 2, "LWAVE": false, "LDOWNSAMPLE": false, "LCHARG": false, "LPARD": false, "LVTOT": false, "LVHAR": false, "LELF": false, "LOPTICS": false, "STM": [0.0, 0.0, 0.0, 0.0, 0.0, 0.0, 0.0], "NPAR": 1, "NSIM": 4, "NBLK": -1, "LPLANE": true, "LSCALAPACK": true, "LSCAAWARE": false, "LSCALU": false, "LASYNC": false, "LORBITALREAL": false, "IDIOT": 3, "PHON_NSTRUCT": -1, "LMUSIC": false, "POMASS": [22.99, 30.974, 32.066], "DARWINR": [0.0, 0.0, 0.0], "DARWINV": [1.0, 1.0, 1.0], "LCORR": true, "GGA_COMPAT": true, "LBERRY": false, "ICORELEVEL": 0, "LDAU": false, "I_CONSTRAINED_M": 0, "GGA": "--", "VOSKOWN": 0, "LHFCALC": false, "PRECFOCK": "", "LSYMGRAD": false, "LHFONE": false, "LRHFCALC": false, "LTHOMAS": false, "LMODELHF": false, "LFOCKACE": false, "ENCUT4O": -1.0, "EXXOEP": 0, "FOURORBIT": 0, "AEXX": 0.0, "HFALPHA": 0.0, "MCALPHA": 0.0, "ALDAX": 1.0, "AGGAX": 1.0, "ALDAC": 1.0, "AGGAC": 1.0, "NKREDX": 1, "NKREDY": 1, "NKREDZ": 1, "SHIFTRED": false, "ODDONLY": false, "EVENONLY": false, "LMAXFOCK": 0, "NMAXFOCKAE": 0, "LFOCKAEDFT": false, "HFSCREEN": 0.0, "HFSCREENC": 0.0, "NBANDSGWLOW": 0, "LUSE_VDW": false, "Zab_VDW": -0.8491, "PARAM1": 0.1234, "PARAM2": 1.0, "PARAM3": 0.0, "MODEL_GW": 0, "MODEL_EPS0": 26.39742306, "MODEL_ALPHA": 1.0, "LEPSILON": false, "LRPA": false, "LNABLA": false, "LVEL": false, "CSHIFT": 0.1, "OMEGAMAX": -1.0, "DEG_THRESHOLD": 0.002, "RTIME": -0.1, "WPLASMAI": 0.0, "DFIELD": [0.0, 0.0, 0.0], "WPLASMA": [0.0, 0.0, 0.0, 0.0, 0.0, 0.0, 0.0, 0.0, 0.0], "NUCIND": false, "MAGPOS": [0.0, 0.0, 0.0], "LNICSALL": true, "ORBITALMAG": false, "LMAGBLOCH": false, "LCHIMAG": false, "LGAUGE": true, "MAGATOM": 0, "MAGDIPOL": [0.0, 0.0, 0.0], "AVECCONST": [0.0, 0.0, 0.0], "LFINITE_TEMPERATURE": false, "LADDER": false, "LRPAFORCE": false, "LFXC": false, "LHARTREE": true, "IBSE": 0, "KPOINT": [-1, 0, 0, 0], "LTCTC": false, "LTCTE": false, "LTETE": false, "LTRIPLET": false, "LFXCEPS": false, "LFXHEG": false, "NATURALO": 2, "LHOLEGF": false, "L2ORDER": false, "LDMP1": false, "LMP2LT": false, "LSMP2LT": false, "LGWLF": false, "ENCUTGW": -2.0, "ENCUTGWSOFT": -2.0, "ENCUTLF": -1.0, "LESF_SPLINES": false, "LMAXMP2": -1, "SCISSOR": 0.0, "NOMEGA": 0, "NOMEGAR": 0, "NBANDSGW": -1, "NBANDSO": -1, "NBANDSV": -1, "NELMGW": 1, "NELMHF": 1, "DIM": 3, "IESPILON": 4, "ANTIRES": 0, "OMEGAMIN": -30.0, "OMEGATL": -200.0, "OMEGAGRID": 0, "LSELFENERGY": false, "LSPECTRAL": false, "LSPECTRALGW": false, "LSINGLES": false, "LFERMIGW": false, "ODDONLYGW": false, "EVENONLYGW": false, "NKREDLFX": 1, "NKREDLFY": 1, "NKREDLFZ": 1, "MAXMEM": 2800, "TELESCOPE": 0, "NTAUPAR": -1, "NOMEGAPAR": -1, "DAMP_NEWTON": 0.80000001, "LAMBDA": 1.0, "OFIELD_KAPPA": 0.0, "OFIELD_K": [0.0, 0.0, 0.0], "OFIELD_Q6_NEAR": 0.0, "OFIELD_Q6_FAR": 0.0, "OFIELD_A": 0.0, "KPOINTS_OPT_MODE": 1, "LKPOINTS_OPT": false, "@module": "pymatgen.io.vasp.inputs", "@class": "Incar"}, "relaxed_structures": {"@module": "pymatgen.core.structure", "@class": "Structure", "charge": 0, "lattice": {"matrix": [[7.00642, 0.0, 0.0], [-0.000714, 10.025156, 0.0], [0.0, 0.0, 40.086944]], "a": 7.00642, "b": 10.02515602542584, "c": 40.086944, "alpha": 90.0, "beta": 90.0, "gamma": 90.00408065335873, "volume": 2815.7251260500366}, "sites": [{"species": [{"element": "Na", "occu": 1}], "abc": [0.51484563, 0.13656825, 0.034155780000000004], "xyz": [3.607127209214101, 1.369118010897, 1.3692008401363203], "label": "Na", "properties": {}}, {"species": [{"element": "Na", "occu": 1}], "abc": [0.99760935, 0.90163521, 0.00010000000000000286], "xyz": [6.989026334487059, 9.039033635342761, 0.004008694400000115], "label": "Na", "properties": {}}, {"species": [{"element": "Na", "occu": 1}], "abc": [0.00885818, 0.45092107, 0.0022914100000000076], "xyz": [0.061742171871620004, 4.52055407043692, 0.0918556243510403], "label": "Na", "properties": {}}, {"species": [{"element": "Na", "occu": 1}], "abc": [0.98148358, 0.70142422, 0.06256275], "xyz": [6.87618536769052, 7.031887227678321, 2.507949455736], "label": "Na", "properties": {}}, {"species": [{"element": "Na", "occu": 1}], "abc": [0.49394938, 0.64900933, 0.16085492], "xyz": [3.46035342235798, 6.506419778705481, 6.448182170164481], "label": "Na", "properties": {}}, {"species": [{"element": "Na", "occu": 1}], "abc": [0.51835074, 0.39535228, 0.09748413], "xyz": [3.6315007102228805, 3.9634682819556804, 3.9078408601987205], "label": "Na", "properties": {}}, {"species": [{"element": "Na", "occu": 1}], "abc": [0.02141093, 0.40982278, 0.11628289], "xyz": [0.14972135470568004, 4.10853730185368, 4.66142569958816], "label": "Na", "properties": {}}, {"species": [{"element": "Na", "occu": 1}], "abc": [0.49611019, 0.94173156, 0.10558841999999999], "xyz": [3.47528396108596, 9.441005799123362, 4.23271707958848], "label": "Na", "properties": {}}, {"species": [{"element": "Na", "occu": 1}], "abc": [0.99490018, 0.97532981, 0.12328731000000001], "xyz": [6.96999213367126, 9.77783349670036, 4.942211491880641], "label": "Na", "properties": {}}, {"species": [{"element": "Na", "occu": 1}], "abc": [0.9974263, 0.22290298, 0.18750819], "xyz": [6.98822842411828, 2.23463714736488, 7.51663031207136], "label": "Na", "properties": {}}, {"species": [{"element": "Na", "occu": 1}], "abc": [0.49627777, 0.16150342, 0.28708682], "xyz": [3.47701517984152, 1.6190969800335202, 11.508433276478081], "label": "Na", "properties": {}}, {"species": [{"element": "Na", "occu": 1}], "abc": [0.49635277, 0.89963915, 0.22535265999999998], "xyz": [3.4770136324303, 9.019022822457401, 9.03369946167104], "label": "Na", "properties": {}}, {"species": [{"element": "Na", "occu": 1}], "abc": [0.99746889, 0.9299309, 0.24041287], "xyz": [6.988022009611201, 9.322702341720401, 9.63741725656928], "label": "Na", "properties": {}}, {"species": [{"element": "Na", "occu": 1}], "abc": [0.49961451, 0.45492021, 0.23408368000000002], "xyz": [3.5001842821242604, 4.5606460728027605, 9.383699371473922], "label": "Na", "properties": {}}, {"species": [{"element": "Na", "occu": 1}], "abc": [0.99751381, 0.48530871, 0.24918363999999998], "xyz": [6.988654198241259, 4.86529552590876, 9.98901062239616], "label": "Na", "properties": {}}, {"species": [{"element": "Na", "occu": 1}], "abc": [0.99419963, 0.73716708, 0.31343435], "xyz": [6.965253834329481, 7.39021497506448, 12.5646252361264], "label": "Na", "properties": {}}, {"species": [{"element": "Na", "occu": 1}], "abc": [0.4845928, 0.6815086, 0.41173378], "xyz": [3.3947740886356, 6.8322300303416, 16.505148981768322], "label": "Na", "properties": {}}, {"species": [{"element": "Na", "occu": 1}], "abc": [0.49467038, 0.40919068, 0.35085731], "xyz": [3.46557628169408, 4.10220040074608, 14.06479733796064], "label": "Na", "properties": {}}, {"species": [{"element": "Na", "occu": 1}], "abc": [0.99592914, 0.44378899, 0.36855059], "xyz": [6.97758097973994, 4.449053855832441, 14.774066862496962], "label": "Na", "properties": {}}, {"species": [{"element": "Na", "occu": 1}], "abc": [0.52315663, 0.97414962, 0.35842615], "xyz": [3.66475953273592, 9.766001907840721, 14.368209003185601], "label": "Na", "properties": {}}, {"species": [{"element": "Na", "occu": 1}], "abc": [0.01991043, 0.98902199, 0.37715386], "xyz": [0.13879467325974001, 9.91509973718044, 15.11894566520384], "label": "Na", "properties": {}}, {"species": [{"element": "Na", "occu": 1}], "abc": [0.01578256, 0.24882981, 0.44003058], "xyz": [0.11040157955086001, 2.4945576627003603, 17.63948121874752], "label": "Na", "properties": {}}, {"species": [{"element": "Na", "occu": 1}], "abc": [0.51199776, 0.9340043, 0.47213708000000004], "xyz": [3.586604466549, 9.3635388121708, 18.926532686283522], "label": "Na", "properties": {}}, {"species": [{"element": "Na", "occu": 1}], "abc": [0.50012633, 0.48300933, 0.47436779999999995], "xyz": [3.50375025237698, 4.84224388270548, 19.0159554340032], "label": "Na", "properties": {}}, {"species": [{"element": "P", "occu": 1}], "abc": [0.0107429, 0.17113608, 0.04987429000000001], "xyz": [0.07514707825688, 1.7156658992284801, 1.9993078702697604], "label": "P", "properties": {}}, {"species": [{"element": "P", "occu": 1}], "abc": [0.4824955, 0.67932903, 0.04157782000000001], "xyz": [3.3800810801825802, 6.810379501078681, 1.6667277419820805], "label": "P", "properties": {}}, {"species": [{"element": "P", "occu": 1}], "abc": [0.9979961, 0.68186379, 0.17482733], "xyz": [6.991892984215941, 6.835790865501241, 7.008293387379521], "label": "P", "properties": {}}, {"species": [{"element": "P", "occu": 1}], "abc": [0.4998698, 0.18840644, 0.17352901], "xyz": [3.50216324191784, 1.8888039524046403, 6.956247706245441], "label": "P", "properties": {}}, {"species": [{"element": "P", "occu": 1}], "abc": [0.99833804, 0.19620339, 0.30101708], "xyz": [6.99463552099634, 1.9669695924788402, 12.066854829003521], "label": "P", "properties": {}}, {"species": [{"element": "P", "occu": 1}], "abc": [0.49769092, 0.70332326, 0.29966419], "xyz": [3.48652944289876, 7.050925399928561, 12.012621603335361], "label": "P", "properties": {}}, {"species": [{"element": "P", "occu": 1}], "abc": [0.98592573, 0.70518538, 0.43294034], "xyz": [6.90730625082528, 7.06959344341928, 17.355255164920962], "label": "P", "properties": {}}, {"species": [{"element": "P", "occu": 1}], "abc": [0.51167148, 0.21405063, 0.42441045], "xyz": [3.5848324587517797, 2.1458909576482803, 17.0133179421648], "label": "P", "properties": {}}, {"species": [{"element": "S", "occu": 1}], "abc": [0.16297759, 0.99724675, 0.05706482000000001], "xyz": [1.1411774119483002, 9.997554239243, 2.2875542437100806], "label": "S", "properties": {}}, {"species": [{"element": "S", "occu": 1}], "abc": [0.66274468, 0.51836718, 0.03706575], "xyz": [4.64309746667908, 5.196711844780081, 1.4858526445680003], "label": "S", "properties": {}}, {"species": [{"element": "S", "occu": 1}], "abc": [0.1974396, 0.32900344, 0.05273223000000001], "xyz": [1.3831098537758402, 3.29831081053664, 2.1138739510051208], "label": "S", "properties": {}}, {"species": [{"element": "S", "occu": 1}], "abc": [0.80301736, 0.18478104, 0.08652753000000002], "xyz": [5.62614495778864, 1.8524587518422402, 3.468624249568321], "label": "S", "properties": {}}, {"species": [{"element": "S", "occu": 1}], "abc": [0.64752656, 0.85070714, 0.03884174000000001], "xyz": [4.53623563561724, 8.52847178881384, 1.5570466562425604], "label": "S", "properties": {}}, {"species": [{"element": "S", "occu": 1}], "abc": [0.88792588, 0.1721051, 0.0028707800000000033], "xyz": [6.2210587611082, 1.7253804758956002, 0.11508079709632014], "label": "S", "properties": {}}, {"species": [{"element": "S", "occu": 1}], "abc": [0.26754029, 0.67861972, 0.005639980000000003], "xyz": [1.8740151041817203, 6.803268557676321, 0.22608956242112013], "label": "S", "properties": {}}, {"species": [{"element": "S", "occu": 1}], "abc": [0.15591484, 0.50867517, 0.17968631], "xyz": [1.0920416592014202, 5.09954793257652, 7.2030750465366395], "label": "S", "properties": {}}, {"species": [{"element": "S", "occu": 1}], "abc": [0.68207195, 0.02646127, 0.1710972], "xyz": [4.778863658572219, 0.26527835970812, 6.858763874956801], "label": "S", "properties": {}}, {"species": [{"element": "S", "occu": 1}], "abc": [0.1809691, 0.84322845, 0.17622276], "xyz": [1.2673434565086998, 8.453496754888201, 7.06423191164544], "label": "S", "properties": {}}, {"species": [{"element": "S", "occu": 1}], "abc": [0.35483572, 0.67135474, 0.08853613000000002], "xyz": [2.4856487380380403, 6.73043599983944, 3.549142885286721], "label": "S", "properties": {}}, {"species": [{"element": "S", "occu": 1}], "abc": [0.80335217, 0.69298839, 0.21351052], "xyz": [5.628127917220941, 6.9473167159388405, 8.55898425865088], "label": "S", "properties": {}}, {"species": [{"element": "S", "occu": 1}], "abc": [0.6560375, 0.36260474, 0.16989304], "xyz": [4.596215360965641, 3.6351690848394402, 6.81049278046976], "label": "S", "properties": {}}, {"species": [{"element": "S", "occu": 1}], "abc": [0.85073054, 0.68144808, 0.13003852], "xyz": [5.96008891613768, 6.831623307900481, 5.21284686908288], "label": "S", "properties": {}}, {"species": [{"element": "S", "occu": 1}], "abc": [0.30720361, 0.18135071, 0.13462896], "xyz": [2.15226803276926, 1.8180691584607602, 5.39686358029824], "label": "S", "properties": {}}, {"species": [{"element": "S", "occu": 1}], "abc": [0.15475864, 0.02199737, 0.30449327], "xyz": [1.0842883243466201, 0.22052706583972, 12.20620466286688], "label": "S", "properties": {}}, {"species": [{"element": "S", "occu": 1}], "abc": [0.68175018, 0.54261528, 0.29829498], "xyz": [4.776240668845681, 5.439802829983681, 11.95773415874112], "label": "S", "properties": {}}, {"species": [{"element": "S", "occu": 1}], "abc": [0.18058046, 0.35822707, 0.30356051], "xyz": [1.26496677242522, 3.59128226017292, 12.16881316498144], "label": "S", "properties": {}}, {"species": [{"element": "S", "occu": 1}], "abc": [0.35383558, 0.18212358, 0.2183971], "xyz": [2.47899064818748, 1.8258173007784801, 8.7548723174624], "label": "S", "properties": {}}, {"species": [{"element": "S", "occu": 1}], "abc": [0.80579778, 0.20309382, 0.33987448], "xyz": [5.64561267276012, 2.0360472281359203, 13.62452924678912], "label": "S", "properties": {}}, {"species": [{"element": "S", "occu": 1}], "abc": [0.65455513, 0.87690525, 0.29479139], "xyz": [4.585462043586101, 8.791111928469, 11.81728594261216], "label": "S", "properties": {}}, {"species": [{"element": "S", "occu": 1}], "abc": [0.85270613, 0.20302179, 0.25613703], "xyz": [5.97427232579654, 2.0353251161492403, 10.26775077793632], "label": "S", "properties": {}}, {"species": [{"element": "S", "occu": 1}], "abc": [0.30320302, 0.69147949, 0.26098657], "xyz": [2.12387398703254, 6.93218975805044, 10.46215401634208], "label": "S", "properties": {}}, {"species": [{"element": "S", "occu": 1}], "abc": [0.14978324, 0.53330505, 0.43547045], "xyz": [1.0490635085951001, 5.3464663218378, 17.456679542804803], "label": "S", "properties": {}}, {"species": [{"element": "S", "occu": 1}], "abc": [0.69948665, 0.05671977, 0.42177892], "xyz": [4.9008567563772205, 0.5686245425341201, 16.907827946420483], "label": "S", "properties": {}}, {"species": [{"element": "S", "occu": 1}], "abc": [0.16709616, 0.86558766, 0.43744799], "xyz": [1.17012784775796, 8.67765132317496, 17.53595307804256], "label": "S", "properties": {}}, {"species": [{"element": "S", "occu": 1}], "abc": [0.3507246, 0.7028438, 0.3444495], "xyz": [2.4568220214588004, 7.046118738632801, 13.807927817328002], "label": "S", "properties": {}}, {"species": [{"element": "S", "occu": 1}], "abc": [0.77063672, 0.70630627, 0.46879927000000005], "xyz": [5.398900225065621, 7.080830540528121, 18.792730083730884], "label": "S", "properties": {}}, {"species": [{"element": "S", "occu": 1}], "abc": [0.66314235, 0.38830507, 0.41706881], "xyz": [4.64597657406702, 3.89281890234092, 16.71901403061664], "label": "S", "properties": {}}, {"species": [{"element": "S", "occu": 1}], "abc": [0.85822114, 0.71378383, 0.38597783], "xyz": [6.01254811806418, 7.15579424602748, 15.472671656451523], "label": "S", "properties": {}}, {"species": [{"element": "S", "occu": 1}], "abc": [0.3043477, 0.19954782, 0.38774419], "xyz": [2.13224533509052, 2.0004980249599202, 15.54347963085536], "label": "S", "properties": {}}, {"species": [{"element": "S", "occu": 1}], "abc": [0.38873483, 0.21303788, 0.47139643999999997], "xyz": [2.72348737856228, 2.1357379809092802, 18.89684269207936], "label": "S", "properties": {}}]}, "formula": "", "bandgap": 2.4208999999999996, "slab_thickness": 19.0119467396032}