{"miller": "102_0.03", "final_energy": -391.54292667, "gamma": 0.0160534393395959, "work_function": "Not calculated", "ionization_potentail": "Not calculated", "electron_affinity": "Not calculated", "is_stochiometric": true, "incar_parameters": {"SYSTEM": "unknown system", "LCOMPAT": false, "PREC": "normal", "ENMAX": 520.0, "ENAUG": 368.056, "EDIFF": 1e-05, "IALGO": 38, "IWAVPR": 11, "NBANDS": 360, "NBANDSLOW": -1, "NBANDSHIGH": -1, "NELECT": 600.0, "TURBO": 0, "IRESTART": 0, "NREBOOT": 0, "NMIN": 0, "EREF": 0.0, "ISMEAR": 0, "SIGMA": 0.05, "KSPACING": 0.5, "KGAMMA": true, "KBLOWUP": true, "LREAL": true, "ROPT": [-0.0005, -0.0005, -0.0005], "LMAXPAW": -100, "LMAXMIX": 2, "NLSPLINE": false, "ISTART": 0, "ICHARG": 2, "INIWAV": 1, "ISPIN": 1, "LNONCOLLINEAR": false, "MAGMOM": [0.6, 0.6, 0.6, 0.6, 0.6, 0.6, 0.6, 0.6, 0.6, 0.6, 0.6, 0.6, 0.6, 0.6, 0.6, 0.6, 0.6, 0.6, 0.6, 0.6, 0.6, 0.6, 0.6, 0.6, 0.6, 0.6, 0.6, 0.6, 0.6, 0.6, 0.6, 0.6, 0.6, 0.6, 0.6, 0.6, 0.6, 0.6, 0.6, 0.6, 0.6, 0.6, 0.6, 0.6, 0.6, 0.6, 0.6, 0.6, 0.6, 0.6, 0.6, 0.6, 0.6, 0.6, 0.6, 0.6, 0.6, 0.6, 0.6, 0.6, 0.6, 0.6, 0.6, 0.6, 0.6, 0.6, 0.6, 0.6, 0.6, 0.6, 0.6, 0.6, 0.6, 0.6, 0.6, 0.6, 0.6, 0.6, 0.6, 0.6, 0.6, 0.6, 0.6, 0.6, 0.6, 0.6, 0.6, 0.6, 0.6, 0.6, 0.6, 0.6, 0.6, 0.6, 0.6, 0.6], "NUPDOWN": -1.0, "LSORBIT": false, "SAXIS": [0.0, 0.0, 1.0], "LSPIRAL": false, "QSPIRAL": [0.0, 0.0, 0.0], "LZEROZ": false, "LASPH": false, "LMETAGGA": false, "NELM": 100, "NELMDL": -5, "NELMIN": 6, "ENINI": 520.0, "LDIAG": true, "LSUBROT": false, "WEIMIN": 0.001, "EBREAK": 1e-08, "DEPER": 0.3, "NRMM": 4, "TIME": 0.4, "AMIX": 0.4, "BMIX": 1.0, "AMIN": 0.1, "AMIX_MAG": 1.6, "BMIX_MAG": 1.0, "IMIX": 4, "MIXFIRST": false, "MAXMIX": -45, "WC": 100.0, "INIMIX": 1, "MIXPRE": 1, "MREMOVE": 5, "LDIPOL": false, "LMONO": false, "IDIPOL": 0, "EPSILON": 1.0, "DIPOL": [-100.0, -100.0, -100.0], "EFIELD": 0.0, "NGX": 40, "NGY": 90, "NGZ": 250, "NGXF": 80, "NGYF": 180, "NGZF": 500, "ADDGRID": false, "NSW": 150, "IBRION": 2, "MDALGO": 0, "ISIF": 2, "PSTRESS": 0.0, "EDIFFG": -0.01, "NFREE": 1, "POTIM": 0.5, "SMASS": -3.0, "SCALEE": 1.0, "TEBEG": 0.0001, "TEEND": 0.0001, "NBLOCK": 1, "KBLOCK": 150, "NPACO": 256, "APACO": 10.0, "ISYM": 0, "SYMPREC": 1e-05, "LORBIT": 11, "RWIGS": [-1.0, -1.0, -1.0], "NEDOS": 301, "EMIN": 10.0, "EMAX": -10.0, "EFERMI": 0.0, "NWRITE": 2, "LWAVE": false, "LDOWNSAMPLE": false, "LCHARG": false, "LPARD": false, "LVTOT": false, "LVHAR": false, "LELF": false, "LOPTICS": false, "STM": [0.0, 0.0, 0.0, 0.0, 0.0, 0.0, 0.0], "NPAR": 1, "NSIM": 4, "NBLK": -1, "LPLANE": true, "LSCALAPACK": true, "LSCAAWARE": false, "LSCALU": false, "LASYNC": false, "LORBITALREAL": false, "IDIOT": 3, "PHON_NSTRUCT": -1, "LMUSIC": false, "POMASS": [22.99, 30.974, 32.066], "DARWINR": [0.0, 0.0, 0.0], "DARWINV": [1.0, 1.0, 1.0], "LCORR": true, "GGA_COMPAT": true, "LBERRY": false, "ICORELEVEL": 0, "LDAU": false, "I_CONSTRAINED_M": 0, "GGA": "--", "VOSKOWN": 0, "LHFCALC": false, "PRECFOCK": "", "LSYMGRAD": false, "LHFONE": false, "LRHFCALC": false, "LTHOMAS": false, "LMODELHF": false, "LFOCKACE": false, "ENCUT4O": -1.0, "EXXOEP": 0, "FOURORBIT": 0, "AEXX": 0.0, "HFALPHA": 0.0, "MCALPHA": 0.0, "ALDAX": 1.0, "AGGAX": 1.0, "ALDAC": 1.0, "AGGAC": 1.0, "NKREDX": 1, "NKREDY": 1, "NKREDZ": 1, "SHIFTRED": false, "ODDONLY": false, "EVENONLY": false, "LMAXFOCK": 0, "NMAXFOCKAE": 0, "LFOCKAEDFT": false, "HFSCREEN": 0.0, "HFSCREENC": 0.0, "NBANDSGWLOW": 0, "LUSE_VDW": false, "Zab_VDW": -0.8491, "PARAM1": 0.1234, "PARAM2": 1.0, "PARAM3": 0.0, "MODEL_GW": 0, "MODEL_EPS0": 30.79699264, "MODEL_ALPHA": 1.0, "LEPSILON": false, "LRPA": false, "LNABLA": false, "LVEL": false, "CSHIFT": 0.1, "OMEGAMAX": -1.0, "DEG_THRESHOLD": 0.002, "RTIME": -0.1, "WPLASMAI": 0.0, "DFIELD": [0.0, 0.0, 0.0], "WPLASMA": [0.0, 0.0, 0.0, 0.0, 0.0, 0.0, 0.0, 0.0, 0.0], "NUCIND": false, "MAGPOS": [0.0, 0.0, 0.0], "LNICSALL": true, "ORBITALMAG": false, "LMAGBLOCH": false, "LCHIMAG": false, "LGAUGE": true, "MAGATOM": 0, "MAGDIPOL": [0.0, 0.0, 0.0], "AVECCONST": [0.0, 0.0, 0.0], "LFINITE_TEMPERATURE": false, "LADDER": false, "LRPAFORCE": false, "LFXC": false, "LHARTREE": true, "IBSE": 0, "KPOINT": [-1, 0, 0, 0], "LTCTC": false, "LTCTE": false, "LTETE": false, "LTRIPLET": false, "LFXCEPS": false, "LFXHEG": false, "NATURALO": 2, "LHOLEGF": false, "L2ORDER": false, "LDMP1": false, "LMP2LT": false, "LSMP2LT": false, "LGWLF": false, "ENCUTGW": -2.0, "ENCUTGWSOFT": -2.0, "ENCUTLF": -1.0, "LESF_SPLINES": false, "LMAXMP2": -1, "SCISSOR": 0.0, "NOMEGA": 0, "NOMEGAR": 0, "NBANDSGW": -1, "NBANDSO": -1, "NBANDSV": -1, "NELMGW": 1, "NELMHF": 1, "DIM": 3, "IESPILON": 4, "ANTIRES": 0, "OMEGAMIN": -30.0, "OMEGATL": -200.0, "OMEGAGRID": 0, "LSELFENERGY": false, "LSPECTRAL": false, "LSPECTRALGW": false, "LSINGLES": false, "LFERMIGW": false, "ODDONLYGW": false, "EVENONLYGW": false, "NKREDLFX": 1, "NKREDLFY": 1, "NKREDLFZ": 1, "MAXMEM": 2800, "TELESCOPE": 0, "NTAUPAR": -1, "NOMEGAPAR": -1, "DAMP_NEWTON": 0.80000001, "LAMBDA": 1.0, "OFIELD_KAPPA": 0.0, "OFIELD_K": [0.0, 0.0, 0.0], "OFIELD_Q6_NEAR": 0.0, "OFIELD_Q6_FAR": 0.0, "OFIELD_A": 0.0, "KPOINTS_OPT_MODE": 1, "LKPOINTS_OPT": false, "@module": "pymatgen.io.vasp.inputs", "@class": "Incar"}, "relaxed_structures": {"@module": "pymatgen.core.structure", "@class": "Structure", "charge": 0, "lattice": {"matrix": [[7.00642, 0.0, 0.0], [-0.000887, 15.741064, 0.0], [0.0, 0.0, 44.678444]], "a": 7.00642, "b": 15.741064024990973, "c": 44.678444, "alpha": 90.0, "beta": 90.0, "gamma": 90.00322858457183, "volume": 4927.518822672956}, "sites": [{"species": [{"element": "Na", "occu": 1}], "abc": [0.52365477, 0.87445644, 0.052716240000000004], "xyz": [3.6681696107611206, 13.76487478725216, 2.35527957673056], "label": "Na", "properties": {}}, {"species": [{"element": "Na", "occu": 1}], "abc": [0.5126303, 0.38845859, 0.05184924], "xyz": [3.59135862375667, 6.114751526539759, 2.31654336578256], "label": "Na", "properties": {}}, {"species": [{"element": "Na", "occu": 1}], "abc": [0.05565005, 0.39990054, 0.07939694], "xyz": [0.38955291154202004, 6.29485999377456, 3.5473317375613598], "label": "Na", "properties": {}}, {"species": [{"element": "Na", "occu": 1}], "abc": [0.99279039, 0.76416056, 0.00914421], "xyz": [6.955228633887081, 12.028700281235839, 0.40854907440924], "label": "Na", "properties": {}}, {"species": [{"element": "Na", "occu": 1}], "abc": [0.47663919, 0.70564042, 0.10309237999999998], "xyz": [3.33890845054726, 11.10753101220688, 4.606007126656719], "label": "Na", "properties": {}}, {"species": [{"element": "Na", "occu": 1}], "abc": [0.00739703, 0.10254708, 0.04711557], "xyz": [0.05173573967264, 1.61420014929312, 2.10505035577308], "label": "Na", "properties": {}}, {"species": [{"element": "Na", "occu": 1}], "abc": [0.98647933, 0.5877505, 0.042502160000000004], "xyz": [6.911167172605101, 9.251818236532, 1.89893037543904], "label": "Na", "properties": {}}, {"species": [{"element": "Na", "occu": 1}], "abc": [0.49296165, 0.48999924, 0.12685915], "xyz": [3.45346173446712, 7.71310939679136, 5.6678694291626], "label": "Na", "properties": {}}, {"species": [{"element": "Na", "occu": 1}], "abc": [0.49750579, 0.09218147, 0.19621449], "xyz": [3.4856527522079106, 1.45103441888408, 8.76655810345356], "label": "Na", "properties": {}}, {"species": [{"element": "Na", "occu": 1}], "abc": [0.49461329, 0.59234246, 0.20153741], "xyz": [3.4649430395597802, 9.32410057277744, 9.00437788659004], "label": "Na", "properties": {}}, {"species": [{"element": "Na", "occu": 1}], "abc": [0.51331851, 0.99099541, 0.12381074], "xyz": [3.59564606190553, 15.59932217251624, 5.53167121368856], "label": "Na", "properties": {}}, {"species": [{"element": "Na", "occu": 1}], "abc": [0.99540247, 0.59325658, 0.21731052], "xyz": [6.97368155527094, 9.33848979420112, 9.70909589843088], "label": "Na", "properties": {}}, {"species": [{"element": "Na", "occu": 1}], "abc": [0.01342955, 0.98702403, 0.14186309], "xyz": [0.09321757739639001, 15.536808425767921, 6.33822212223196], "label": "Na", "properties": {}}, {"species": [{"element": "Na", "occu": 1}], "abc": [0.4928492, 0.31719019, 0.17522289], "xyz": [3.45282714416547, 4.99291108096216, 7.82868607838316], "label": "Na", "properties": {}}, {"species": [{"element": "Na", "occu": 1}], "abc": [0.49861099, 0.92105785, 0.2447321], "xyz": [3.49266103424285, 14.498430564552399, 10.9342494248524], "label": "Na", "properties": {}}, {"species": [{"element": "Na", "occu": 1}], "abc": [0.98158151, 0.71386758, 0.11598342], "xyz": [6.876739122750741, 11.237035264305119, 5.18195873539848], "label": "Na", "properties": {}}, {"species": [{"element": "Na", "occu": 1}], "abc": [0.98964484, 0.32418, 0.19254784], "xyz": [6.9335798522128, 5.10293812752, 8.60273788676096], "label": "Na", "properties": {}}, {"species": [{"element": "Na", "occu": 1}], "abc": [0.99608311, 0.81078624, 0.18892295], "xyz": [6.97825745617132, 12.76263809415936, 8.440783441889801], "label": "Na", "properties": {}}, {"species": [{"element": "Na", "occu": 1}], "abc": [0.98456313, 0.21628848, 0.11760167999999999], "xyz": [6.898070957412839, 3.40461080614272, 5.254260074185919], "label": "Na", "properties": {}}, {"species": [{"element": "Na", "occu": 1}], "abc": [0.49856191, 0.70375801, 0.27287754999999997], "xyz": [3.4925099041073304, 11.07789987592264, 12.191744336532198], "label": "Na", "properties": {}}, {"species": [{"element": "Na", "occu": 1}], "abc": [0.48886041, 0.2991763, 0.34437321], "xyz": [3.4248959844541003, 4.7093532855832, 15.386059178085238], "label": "Na", "properties": {}}, {"species": [{"element": "Na", "occu": 1}], "abc": [0.4841348, 0.80137716, 0.34563749], "xyz": [3.39134092387508, 12.61452916369824, 15.44254524126556], "label": "Na", "properties": {}}, {"species": [{"element": "Na", "occu": 1}], "abc": [0.48845449, 0.19150459, 0.2695347], "xyz": [3.4221474432544703, 3.01448600748376, 12.0423910000068], "label": "Na", "properties": {}}, {"species": [{"element": "Na", "occu": 1}], "abc": [0.97863514, 0.81036772, 0.35877452], "xyz": [6.8560100214311595, 12.75605014405408, 16.029487300446878], "label": "Na", "properties": {}}, {"species": [{"element": "Na", "occu": 1}], "abc": [0.98893628, 0.19838656, 0.28649129], "xyz": [6.928726962038881, 3.12281553769984, 12.79998505675276], "label": "Na", "properties": {}}, {"species": [{"element": "Na", "occu": 1}], "abc": [0.51956596, 0.52827494, 0.32028584], "xyz": [3.63982875359142, 8.31560964013616, 14.309872966432959], "label": "Na", "properties": {}}, {"species": [{"element": "Na", "occu": 1}], "abc": [0.55621766, 0.1156423, 0.38264246], "xyz": [3.8969919626570997, 1.8203328454072, 17.09586972113224], "label": "Na", "properties": {}}, {"species": [{"element": "Na", "occu": 1}], "abc": [0.99747517, 0.92286535, 0.26021097], "xyz": [6.9879113990259505, 14.5268825377324, 11.62582125133068], "label": "Na", "properties": {}}, {"species": [{"element": "Na", "occu": 1}], "abc": [0.01815404, 0.52449953, 0.33813857999999997], "xyz": [0.12672959785369, 8.256180669699921, 15.107505610769518], "label": "Na", "properties": {}}, {"species": [{"element": "Na", "occu": 1}], "abc": [0.99540164, 0.02568796, 0.33509964], "xyz": [6.97417917330828, 0.40435582238943996, 14.971730500160158], "label": "Na", "properties": {}}, {"species": [{"element": "Na", "occu": 1}], "abc": [0.00118177, 0.42309515, 0.2658392], "xyz": [0.00790469156535, 6.659967834239599, 11.8772818102048], "label": "Na", "properties": {}}, {"species": [{"element": "Na", "occu": 1}], "abc": [0.48796425, 0.92758306, 0.41920372], "xyz": [3.4180597143107803, 14.60114431277584, 18.72936992861168], "label": "Na", "properties": {}}, {"species": [{"element": "Na", "occu": 1}], "abc": [0.51124519, 0.41396848, 0.41505126999999997], "xyz": [3.5816313340780406, 6.51630433766272, 18.54384492382388], "label": "Na", "properties": {}}, {"species": [{"element": "Na", "occu": 1}], "abc": [0.49455845, 0.75261131, 0.45305144999999997], "xyz": [3.46441664901703, 11.84690279783384, 20.241633837943798], "label": "Na", "properties": {}}, {"species": [{"element": "Na", "occu": 1}], "abc": [0.01487188, 0.12698892, 0.40973223999999997], "xyz": [0.10408599829756, 1.99894071701088, 18.30619893983456], "label": "Na", "properties": {}}, {"species": [{"element": "Na", "occu": 1}], "abc": [0.02592208, 0.64200768, 0.40933896], "xyz": [0.18105151894144, 10.10588397937152, 18.288627801378237], "label": "Na", "properties": {}}, {"species": [{"element": "P", "occu": 1}], "abc": [0.01376999, 0.89578929, 0.06930678000000001], "xyz": [0.09568376823557, 14.100676544404559, 3.0965190890503207], "label": "P", "properties": {}}, {"species": [{"element": "P", "occu": 1}], "abc": [0.49080338, 0.21371441, 0.09794096999999999], "xyz": [3.4385850530179303, 3.36409220553224, 4.37585014345068], "label": "P", "properties": {}}, {"species": [{"element": "P", "occu": 1}], "abc": [0.48720529, 0.59398247, 0.03072354], "xyz": [3.41303802551091, 9.34991607514808, 1.37267996137176], "label": "P", "properties": {}}, {"species": [{"element": "P", "occu": 1}], "abc": [0.99362125, 0.50148127, 0.14467423], "xyz": [6.961282984538511, 7.8938487658712795, 6.463819483298119], "label": "P", "properties": {}}, {"species": [{"element": "P", "occu": 1}], "abc": [0.00014275, 0.10495143, 0.21089657], "xyz": [0.00090707453659, 1.6520471765215199, 9.42253059253708], "label": "P", "properties": {}}, {"species": [{"element": "P", "occu": 1}], "abc": [0.50392537, 0.41032317, 0.25116634], "xyz": [3.5303488342236107, 6.45892327965288, 11.221721256374959], "label": "P", "properties": {}}, {"species": [{"element": "P", "occu": 1}], "abc": [0.49725034, 0.80760567, 0.17567228999999998], "xyz": [3.4832283809535105, 12.71257253823288, 7.848764571116759], "label": "P", "properties": {}}, {"species": [{"element": "P", "occu": 1}], "abc": [0.00028917, 0.70722907, 0.28604682], "xyz": [0.00139873428631, 11.13253805353048, 12.78012682874808], "label": "P", "properties": {}}, {"species": [{"element": "P", "occu": 1}], "abc": [0.99426107, 0.30194676, 0.36388486], "xyz": [6.96594281929328, 4.7529632737526395, 16.257809339957838], "label": "P", "properties": {}}, {"species": [{"element": "P", "occu": 1}], "abc": [0.51715623, 0.62063484, 0.39292451], "xyz": [3.62286324989352, 9.769452737069761, 17.55525571626244], "label": "P", "properties": {}}, {"species": [{"element": "P", "occu": 1}], "abc": [0.4968034, 0.01365834, 0.31729744], "xyz": [3.4808011628804203, 0.21499680407375998, 14.176355904383358], "label": "P", "properties": {}}, {"species": [{"element": "P", "occu": 1}], "abc": [0.9888034, 0.92209399, 0.43118044], "xyz": [6.927154020458871, 14.51474051060536, 19.264471142435358], "label": "P", "properties": {}}, {"species": [{"element": "S", "occu": 1}], "abc": [0.16832049, 0.78554149, 0.06340895999999999], "xyz": [1.17862727224417, 12.365258868745359, 2.833013668458239], "label": "S", "properties": {}}, {"species": [{"element": "S", "occu": 1}], "abc": [0.671659, 0.50344249, 0.014542859999999998], "xyz": [4.70547849729137, 7.924720455409359, 0.6497523561098398], "label": "S", "properties": {}}, {"species": [{"element": "S", "occu": 1}], "abc": [0.66897593, 0.11961272, 0.08324343000000001], "xyz": [4.68702023898796, 1.88283148073408, 3.71918692562292], "label": "S", "properties": {}}, {"species": [{"element": "S", "occu": 1}], "abc": [0.19706883, 0.99126095, 0.08237164999999999], "xyz": [1.37986774342595, 15.6035020546508, 3.6802371517125994], "label": "S", "properties": {}}, {"species": [{"element": "S", "occu": 1}], "abc": [0.34276069, 0.54716081, 0.06916542], "xyz": [2.40104002199133, 8.61289332850184, 3.09020334420648], "label": "S", "properties": {}}, {"species": [{"element": "S", "occu": 1}], "abc": [0.80668043, 0.8749431, 0.10158622], "xyz": [5.6511658238309, 13.7725353334584, 4.53871424144168], "label": "S", "properties": {}}, {"species": [{"element": "S", "occu": 1}], "abc": [0.65599107, 0.69614119, 0.04499993], "xyz": [4.59553147543387, 10.958003024826159, 2.01052685250892], "label": "S", "properties": {}}, {"species": [{"element": "S", "occu": 1}], "abc": [0.85650758, 0.53649591, 0.10568842], "xyz": [6.0005759667914305, 8.44501645504824, 4.72199415441848], "label": "S", "properties": {}}, {"species": [{"element": "S", "occu": 1}], "abc": [0.88960402, 0.93106233, 0.029167119999999998], "xyz": [6.23211354552169, 14.65591172451912, 1.3031415375612798], "label": "S", "properties": {}}, {"species": [{"element": "S", "occu": 1}], "abc": [0.27828264, 0.24425017, 0.06633328999999999], "xyz": [1.9495484046480103, 3.8447575579808797, 2.9636681826007596], "label": "S", "properties": {}}, {"species": [{"element": "S", "occu": 1}], "abc": [0.28504248, 0.62577458, 0.00010000000000000286], "xyz": [1.99657227066914, 9.85035771335312, 0.004467844400000128], "label": "S", "properties": {}}, {"species": [{"element": "S", "occu": 1}], "abc": [0.15358606, 0.39159206, 0.13839937], "xyz": [1.07574110034798, 6.16407567835184, 6.18346850218028], "label": "S", "properties": {}}, {"species": [{"element": "S", "occu": 1}], "abc": [0.1550126, 0.99651858, 0.2017772], "xyz": [1.08519946891154, 15.68626274496912, 9.0150913306768], "label": "S", "properties": {}}, {"species": [{"element": "S", "occu": 1}], "abc": [0.6759923, 0.71046271, 0.16224712], "xyz": [4.73565579014223, 11.183438987723441, 7.24894886508128], "label": "S", "properties": {}}, {"species": [{"element": "S", "occu": 1}], "abc": [0.69028492, 0.31508319, 0.23831723999999999], "xyz": [4.83614659039687, 4.95974465911416, 10.647643461574559], "label": "S", "properties": {}}, {"species": [{"element": "S", "occu": 1}], "abc": [0.17279328, 0.59875013, 0.15741104], "xyz": [1.21013120149229, 9.42496411633832, 7.03288033562176], "label": "S", "properties": {}}, {"species": [{"element": "S", "occu": 1}], "abc": [0.18643276, 0.19996074, 0.22397562], "xyz": [1.3060488531428203, 3.1475948058273597, 10.00688219553528], "label": "S", "properties": {}}, {"species": [{"element": "S", "occu": 1}], "abc": [0.3551079, 0.77005131, 0.21412203], "xyz": [2.48735205720603, 12.12142695399384, 9.56663912652132], "label": "S", "properties": {}}, {"species": [{"element": "S", "occu": 1}], "abc": [0.35817104, 0.17411929, 0.13688398], "xyz": [2.50934229426657, 2.74082288752456, 6.115763234927119], "label": "S", "properties": {}}, {"species": [{"element": "S", "occu": 1}], "abc": [0.79140841, 0.47573244, 0.1771239], "xyz": [5.5445177373179195, 7.488534784916159, 7.9136202472115995], "label": "S", "properties": {}}, {"species": [{"element": "S", "occu": 1}], "abc": [0.80656634, 0.07956472, 0.24455396000000001], "xyz": [5.651071961996161, 1.25243334966208, 10.926290406838241], "label": "S", "properties": {}}, {"species": [{"element": "S", "occu": 1}], "abc": [0.65218176, 0.32176645, 0.10606600999999999], "xyz": [4.56917392005805, 5.0649462825028, 4.73886428808844], "label": "S", "properties": {}}, {"species": [{"element": "S", "occu": 1}], "abc": [0.6578828, 0.9152616, 0.18417078], "xyz": [4.6085913705368, 14.4071914223424, 8.22846388066632], "label": "S", "properties": {}}, {"species": [{"element": "S", "occu": 1}], "abc": [0.85719837, 0.74490957, 0.24768405999999998], "xyz": [6.00523106874681, 11.72566921558248, 11.06613840440264], "label": "S", "properties": {}}, {"species": [{"element": "S", "occu": 1}], "abc": [0.85147696, 0.14457849, 0.17328409], "xyz": [5.965676960962569, 2.27581926411336, 7.74206351115596], "label": "S", "properties": {}}, {"species": [{"element": "S", "occu": 1}], "abc": [0.30978377, 0.43479175, 0.21746912000000002], "xyz": [2.1700895415211505, 6.844084763422, 9.71618189964928], "label": "S", "properties": {}}, {"species": [{"element": "S", "occu": 1}], "abc": [0.30221304, 0.83360757, 0.14234676999999998], "xyz": [2.11669207780221, 13.121870110254479, 6.359832192025879], "label": "S", "properties": {}}, {"species": [{"element": "S", "occu": 1}], "abc": [0.16061783, 0.59955584, 0.27759951], "xyz": [1.12482417043852, 9.43764684901376, 12.40271416196244], "label": "S", "properties": {}}, {"species": [{"element": "S", "occu": 1}], "abc": [0.15498941, 0.19384737, 0.35549072], "xyz": [1.08574895939501, 3.0513638574016797, 15.882772226039679], "label": "S", "properties": {}}, {"species": [{"element": "S", "occu": 1}], "abc": [0.67706032, 0.91668893, 0.30473294], "xyz": [4.74295586417349, 14.429659115221519, 13.61499359474536], "label": "S", "properties": {}}, {"species": [{"element": "S", "occu": 1}], "abc": [0.70248492, 0.52558977, 0.38011226], "xyz": [4.92143819506041, 8.27334220731528, 16.982824322123438], "label": "S", "properties": {}}, {"species": [{"element": "S", "occu": 1}], "abc": [0.17926195, 0.80447723, 0.29930727], "xyz": [1.25527094041599, 12.66332756397272, 13.37258310148788], "label": "S", "properties": {}}, {"species": [{"element": "S", "occu": 1}], "abc": [0.1730936, 0.39549039, 0.37882734], "xyz": [1.21241566093607, 6.2254395403749605, 16.92541609585896], "label": "S", "properties": {}}, {"species": [{"element": "S", "occu": 1}], "abc": [0.35884027, 0.97858545, 0.35619309], "xyz": [2.5133176392392502, 15.4039761979188, 15.91415302475196], "label": "S", "properties": {}}, {"species": [{"element": "S", "occu": 1}], "abc": [0.35556852, 0.37127362, 0.28887613], "xyz": [2.49093307019746, 5.8442418139316805, 12.90653599714172], "label": "S", "properties": {}}, {"species": [{"element": "S", "occu": 1}], "abc": [0.80545143, 0.68152513, 0.31942523], "xyz": [5.64272649539029, 10.72793068893832, 14.27142225074212], "label": "S", "properties": {}}, {"species": [{"element": "S", "occu": 1}], "abc": [0.78083822, 0.27124424, 0.39532257], "xyz": [5.47063992773152, 4.26967294147136, 17.66239730568108], "label": "S", "properties": {}}, {"species": [{"element": "S", "occu": 1}], "abc": [0.65792921, 0.51913889, 0.26002373], "xyz": [4.60926789933277, 8.17179849237896, 11.61745565947612], "label": "S", "properties": {}}, {"species": [{"element": "S", "occu": 1}], "abc": [0.65576455, 0.12382839, 0.32365931], "xyz": [4.594452022629071, 1.94919061200696, 14.460594356913639], "label": "S", "properties": {}}, {"species": [{"element": "S", "occu": 1}], "abc": [0.84445567, 0.96838668, 0.39267672], "xyz": [5.91575213641624, 15.24343670662752, 17.54418484462368], "label": "S", "properties": {}}, {"species": [{"element": "S", "occu": 1}], "abc": [0.86208934, 0.34255669, 0.32502011999999997], "xyz": [6.03985614577877, 5.39220678091816, 14.521393230293278], "label": "S", "properties": {}}, {"species": [{"element": "S", "occu": 1}], "abc": [0.31067149, 0.64055873, 0.3604441], "xyz": [2.17612676537229, 10.08307596468872, 16.1040815369804], "label": "S", "properties": {}}, {"species": [{"element": "S", "occu": 1}], "abc": [0.29494728, 0.03892351, 0.28473179], "xyz": [2.06648999638423, 0.61269746201464, 12.721373334534759], "label": "S", "properties": {}}, {"species": [{"element": "S", "occu": 1}], "abc": [0.15762529, 0.81982726, 0.41708846], "xyz": [1.10366179758218, 12.90495336860464, 18.63486340315624], "label": "S", "properties": {}}, {"species": [{"element": "S", "occu": 1}], "abc": [0.17378615, 0.01263394, 0.44721995], "xyz": [1.2176075507782202, 0.19887165811215998, 19.981091491757798], "label": "S", "properties": {}}, {"species": [{"element": "S", "occu": 1}], "abc": [0.39240744, 0.58564556, 0.43302785], "xyz": [2.74885186815308, 9.21868424127584, 19.3470105466654], "label": "S", "properties": {}}, {"species": [{"element": "S", "occu": 1}], "abc": [0.78665855, 0.89077793, 0.46187157], "xyz": [5.510870077867089, 14.021792405917521, 20.63570307543708], "label": "S", "properties": {}}, {"species": [{"element": "S", "occu": 1}], "abc": [0.67005022, 0.73131774, 0.39866640999999997], "xyz": [4.69400458357702, 11.51171934967536, 17.811794873866038], "label": "S", "properties": {}}]}, "formula": "", "bandgap": 2.2746, "slab_thickness": 20.631235231037078}