{"miller": "102_0.30", "final_energy": -391.82631328, "gamma": 0.014768688003185143, "work_function": 4.747778664186827, "ionization_potentail": -4.999078664186827, "electron_affinity": -2.6011786641868273, "is_stochiometric": true, "incar_parameters": {"SYSTEM": "unknown system", "LCOMPAT": false, "PREC": "normal", "ENMAX": 520.0, "ENAUG": 368.056, "EDIFF": 1e-05, "IALGO": 38, "IWAVPR": 11, "NBANDS": 360, "NBANDSLOW": -1, "NBANDSHIGH": -1, "NELECT": 600.0, "TURBO": 0, "IRESTART": 0, "NREBOOT": 0, "NMIN": 0, "EREF": 0.0, "ISMEAR": 0, "SIGMA": 0.05, "KSPACING": 0.5, "KGAMMA": true, "KBLOWUP": true, "LREAL": true, "ROPT": [-0.0005, -0.0005, -0.0005], "LMAXPAW": -100, "LMAXMIX": 2, "NLSPLINE": false, "ISTART": 0, "ICHARG": 2, "INIWAV": 1, "ISPIN": 1, "LNONCOLLINEAR": false, "MAGMOM": [0.6, 0.6, 0.6, 0.6, 0.6, 0.6, 0.6, 0.6, 0.6, 0.6, 0.6, 0.6, 0.6, 0.6, 0.6, 0.6, 0.6, 0.6, 0.6, 0.6, 0.6, 0.6, 0.6, 0.6, 0.6, 0.6, 0.6, 0.6, 0.6, 0.6, 0.6, 0.6, 0.6, 0.6, 0.6, 0.6, 0.6, 0.6, 0.6, 0.6, 0.6, 0.6, 0.6, 0.6, 0.6, 0.6, 0.6, 0.6, 0.6, 0.6, 0.6, 0.6, 0.6, 0.6, 0.6, 0.6, 0.6, 0.6, 0.6, 0.6, 0.6, 0.6, 0.6, 0.6, 0.6, 0.6, 0.6, 0.6, 0.6, 0.6, 0.6, 0.6, 0.6, 0.6, 0.6, 0.6, 0.6, 0.6, 0.6, 0.6, 0.6, 0.6, 0.6, 0.6, 0.6, 0.6, 0.6, 0.6, 0.6, 0.6, 0.6, 0.6, 0.6, 0.6, 0.6, 0.6], "NUPDOWN": -1.0, "LSORBIT": false, "SAXIS": [0.0, 0.0, 1.0], "LSPIRAL": false, "QSPIRAL": [0.0, 0.0, 0.0], "LZEROZ": false, "LASPH": false, "LMETAGGA": false, "NELM": 100, "NELMDL": -5, "NELMIN": 6, "ENINI": 520.0, "LDIAG": true, "LSUBROT": false, "WEIMIN": 0.001, "EBREAK": 1e-08, "DEPER": 0.3, "NRMM": 4, "TIME": 0.4, "AMIX": 0.4, "BMIX": 1.0, "AMIN": 0.1, "AMIX_MAG": 1.6, "BMIX_MAG": 1.0, "IMIX": 4, "MIXFIRST": false, "MAXMIX": -45, "WC": 100.0, "INIMIX": 1, "MIXPRE": 1, "MREMOVE": 5, "LDIPOL": false, "LMONO": false, "IDIPOL": 0, "EPSILON": 1.0, "DIPOL": [-100.0, -100.0, -100.0], "EFIELD": 0.0, "NGX": 40, "NGY": 90, "NGZ": 250, "NGXF": 80, "NGYF": 180, "NGZF": 500, "ADDGRID": false, "NSW": 150, "IBRION": 2, "MDALGO": 0, "ISIF": 2, "PSTRESS": 0.0, "EDIFFG": -0.01, "NFREE": 1, "POTIM": 0.5, "SMASS": -3.0, "SCALEE": 1.0, "TEBEG": 0.0001, "TEEND": 0.0001, "NBLOCK": 1, "KBLOCK": 150, "NPACO": 256, "APACO": 10.0, "ISYM": 0, "SYMPREC": 1e-05, "LORBIT": 11, "RWIGS": [-1.0, -1.0, -1.0], "NEDOS": 301, "EMIN": 10.0, "EMAX": -10.0, "EFERMI": 0.0, "NWRITE": 2, "LWAVE": false, "LDOWNSAMPLE": false, "LCHARG": false, "LPARD": false, "LVTOT": false, "LVHAR": false, "LELF": false, "LOPTICS": false, "STM": [0.0, 0.0, 0.0, 0.0, 0.0, 0.0, 0.0], "NPAR": 1, "NSIM": 4, "NBLK": -1, "LPLANE": true, "LSCALAPACK": true, "LSCAAWARE": false, "LSCALU": false, "LASYNC": false, "LORBITALREAL": false, "IDIOT": 3, "PHON_NSTRUCT": -1, "LMUSIC": false, "POMASS": [22.99, 30.974, 32.066], "DARWINR": [0.0, 0.0, 0.0], "DARWINV": [1.0, 1.0, 1.0], "LCORR": true, "GGA_COMPAT": true, "LBERRY": false, "ICORELEVEL": 0, "LDAU": false, "I_CONSTRAINED_M": 0, "GGA": "--", "VOSKOWN": 0, "LHFCALC": false, "PRECFOCK": "", "LSYMGRAD": false, "LHFONE": false, "LRHFCALC": false, "LTHOMAS": false, "LMODELHF": false, "LFOCKACE": false, "ENCUT4O": -1.0, "EXXOEP": 0, "FOURORBIT": 0, "AEXX": 0.0, "HFALPHA": 0.0, "MCALPHA": 0.0, "ALDAX": 1.0, "AGGAX": 1.0, "ALDAC": 1.0, "AGGAC": 1.0, "NKREDX": 1, "NKREDY": 1, "NKREDZ": 1, "SHIFTRED": false, "ODDONLY": false, "EVENONLY": false, "LMAXFOCK": 0, "NMAXFOCKAE": 0, "LFOCKAEDFT": false, "HFSCREEN": 0.0, "HFSCREENC": 0.0, "NBANDSGWLOW": 0, "LUSE_VDW": false, "Zab_VDW": -0.8491, "PARAM1": 0.1234, "PARAM2": 1.0, "PARAM3": 0.0, "MODEL_GW": 0, "MODEL_EPS0": 30.79699264, "MODEL_ALPHA": 1.0, "LEPSILON": false, "LRPA": false, "LNABLA": false, "LVEL": false, "CSHIFT": 0.1, "OMEGAMAX": -1.0, "DEG_THRESHOLD": 0.002, "RTIME": -0.1, "WPLASMAI": 0.0, "DFIELD": [0.0, 0.0, 0.0], "WPLASMA": [0.0, 0.0, 0.0, 0.0, 0.0, 0.0, 0.0, 0.0, 0.0], "NUCIND": false, "MAGPOS": [0.0, 0.0, 0.0], "LNICSALL": true, "ORBITALMAG": false, "LMAGBLOCH": false, "LCHIMAG": false, "LGAUGE": true, "MAGATOM": 0, "MAGDIPOL": [0.0, 0.0, 0.0], "AVECCONST": [0.0, 0.0, 0.0], "LFINITE_TEMPERATURE": false, "LADDER": false, "LRPAFORCE": false, "LFXC": false, "LHARTREE": true, "IBSE": 0, "KPOINT": [-1, 0, 0, 0], "LTCTC": false, "LTCTE": false, "LTETE": false, "LTRIPLET": false, "LFXCEPS": false, "LFXHEG": false, "NATURALO": 2, "LHOLEGF": false, "L2ORDER": false, "LDMP1": false, "LMP2LT": false, "LSMP2LT": false, "LGWLF": false, "ENCUTGW": -2.0, "ENCUTGWSOFT": -2.0, "ENCUTLF": -1.0, "LESF_SPLINES": false, "LMAXMP2": -1, "SCISSOR": 0.0, "NOMEGA": 0, "NOMEGAR": 0, "NBANDSGW": -1, "NBANDSO": -1, "NBANDSV": -1, "NELMGW": 1, "NELMHF": 1, "DIM": 3, "IESPILON": 4, "ANTIRES": 0, "OMEGAMIN": -30.0, "OMEGATL": -200.0, "OMEGAGRID": 0, "LSELFENERGY": false, "LSPECTRAL": false, "LSPECTRALGW": false, "LSINGLES": false, "LFERMIGW": false, "ODDONLYGW": false, "EVENONLYGW": false, "NKREDLFX": 1, "NKREDLFY": 1, "NKREDLFZ": 1, "MAXMEM": 2800, "TELESCOPE": 0, "NTAUPAR": -1, "NOMEGAPAR": -1, "DAMP_NEWTON": 0.80000001, "LAMBDA": 1.0, "OFIELD_KAPPA": 0.0, "OFIELD_K": [0.0, 0.0, 0.0], "OFIELD_Q6_NEAR": 0.0, "OFIELD_Q6_FAR": 0.0, "OFIELD_A": 0.0, "KPOINTS_OPT_MODE": 1, "LKPOINTS_OPT": false, "@module": "pymatgen.io.vasp.inputs", "@class": "Incar"}, "relaxed_structures": {"@module": "pymatgen.core.structure", "@class": "Structure", "charge": 0, "lattice": {"matrix": [[7.00642, 0.0, 0.0], [-0.000887, 15.741064, 0.0], [0.0, 0.0, 44.678444]], "a": 7.00642, "b": 15.741064024990973, "c": 44.678444, "alpha": 90.0, "beta": 90.0, "gamma": 90.00322858457183, "volume": 4927.518822672956}, "sites": [{"species": [{"element": "Na", "occu": 1}], "abc": [0.50958872, 0.42393127, 0.09712649999999999], "xyz": [3.57001657254591, 6.673129252671281, 4.3394608911659995], "label": "Na", "properties": {}}, {"species": [{"element": "Na", "occu": 1}], "abc": [0.53911941, 0.88744861, 0.02606798], "xyz": [3.77650984969513, 13.96938536672104, 1.16467678462312], "label": "Na", "properties": {}}, {"species": [{"element": "Na", "occu": 1}], "abc": [0.51291797, 0.93561738, 0.09997062999999999], "xyz": [3.5928888307513396, 14.72761305809232, 4.466532194099719], "label": "Na", "properties": {}}, {"species": [{"element": "Na", "occu": 1}], "abc": [0.986385, 0.32008533, 0.04977357], "xyz": [6.91074367601229, 5.03848366499112, 2.22380565992508], "label": "Na", "properties": {}}, {"species": [{"element": "Na", "occu": 1}], "abc": [0.01100618, 0.9294436, 0.11402285], "xyz": [0.07628950320240001, 14.6304311919904, 5.0943635184454], "label": "Na", "properties": {}}, {"species": [{"element": "Na", "occu": 1}], "abc": [0.49522616, 0.6978139, 0.07368299], "xyz": [3.4691435110179003, 10.984333259989599, 3.2920413424675603], "label": "Na", "properties": {}}, {"species": [{"element": "Na", "occu": 1}], "abc": [0.00306788, 0.65620643, 0.08319346999999999], "xyz": [0.02091280068619, 10.32938741184152, 3.7169547905606795], "label": "Na", "properties": {}}, {"species": [{"element": "Na", "occu": 1}], "abc": [0.01368656, 0.04226394, 0.019239700000000002], "xyz": [0.09585629960042001, 0.66527938443216, 0.8595998590268], "label": "Na", "properties": {}}, {"species": [{"element": "Na", "occu": 1}], "abc": [0.97976127, 0.1443692, 0.08853119], "xyz": [6.864490901873, 2.2725248168288, 3.95543581466836], "label": "Na", "properties": {}}, {"species": [{"element": "Na", "occu": 1}], "abc": [0.49641652, 0.63685563, 0.2420707], "xyz": [3.4775377431145897, 10.02478523059032, 10.8153422139908], "label": "Na", "properties": {}}, {"species": [{"element": "Na", "occu": 1}], "abc": [0.49231202, 0.0338449, 0.17125197], "xyz": [3.4493147627421004, 0.5327547369736, 7.65127155153468], "label": "Na", "properties": {}}, {"species": [{"element": "Na", "occu": 1}], "abc": [0.50205003, 0.53449812, 0.16896540000000002], "xyz": [3.51709927136016, 8.41356911479968, 7.5491111618376], "label": "Na", "properties": {}}, {"species": [{"element": "Na", "occu": 1}], "abc": [0.48732667, 0.13911357, 0.24200023], "xyz": [3.4142919334848103, 2.1897956086384798, 10.812193724042121], "label": "Na", "properties": {}}, {"species": [{"element": "Na", "occu": 1}], "abc": [0.01205023, 0.5431728, 0.18397432000000002], "xyz": [0.083947178203, 8.5501178078592, 8.219686353558082], "label": "Na", "properties": {}}, {"species": [{"element": "Na", "occu": 1}], "abc": [0.98743318, 0.15279993, 0.25402943], "xyz": [6.9182360474776905, 2.40523347732552, 11.34963966260692], "label": "Na", "properties": {}}, {"species": [{"element": "Na", "occu": 1}], "abc": [0.47988337, 0.2502763, 0.14460561000000002], "xyz": [3.3620424461572997, 3.9396152559832, 6.460753648470841], "label": "Na", "properties": {}}, {"species": [{"element": "Na", "occu": 1}], "abc": [0.49319312, 0.85383306, 0.2194364], "xyz": [3.4547607899061803, 13.44024084277584, 9.8040769089616], "label": "Na", "properties": {}}, {"species": [{"element": "Na", "occu": 1}], "abc": [0.99071153, 0.86801491, 0.23133501000000004], "xyz": [6.940571148797431, 13.66347825126424, 10.335688289524441], "label": "Na", "properties": {}}, {"species": [{"element": "Na", "occu": 1}], "abc": [0.98305008, 0.26678342, 0.15934419000000002], "xyz": [6.8874251046200605, 4.19945488835888, 7.119250469640361], "label": "Na", "properties": {}}, {"species": [{"element": "Na", "occu": 1}], "abc": [0.99176411, 0.75758785, 0.16040336000000002], "xyz": [6.94804391516325, 11.925238832472399, 7.166572537171841], "label": "Na", "properties": {}}, {"species": [{"element": "Na", "occu": 1}], "abc": [0.99583778, 0.36945289, 0.23145308], "xyz": [6.97693003383417, 5.815581586474959, 10.34096347340752], "label": "Na", "properties": {}}, {"species": [{"element": "Na", "occu": 1}], "abc": [0.48346794, 0.86165639, 0.38442154], "xyz": [3.3866151549568704, 13.56338838099896, 17.17535624728376], "label": "Na", "properties": {}}, {"species": [{"element": "Na", "occu": 1}], "abc": [0.49153039, 0.24842367, 0.31312039999999997], "xyz": [3.44364800330851, 3.91045288858488, 13.989732256657598], "label": "Na", "properties": {}}, {"species": [{"element": "Na", "occu": 1}], "abc": [0.48268285, 0.74016897, 0.31396556999999997], "xyz": [3.38122224402061, 11.65104712758408, 14.027493137173078], "label": "Na", "properties": {}}, {"species": [{"element": "Na", "occu": 1}], "abc": [0.50625001, 0.35155378, 0.39014039], "xyz": [3.5466883668613405, 5.53383055042192, 17.43086556675316], "label": "Na", "properties": {}}, {"species": [{"element": "Na", "occu": 1}], "abc": [0.97814135, 0.75849691, 0.32831988], "xyz": [6.852596330707831, 11.939548404112239, 14.66882137266672], "label": "Na", "properties": {}}, {"species": [{"element": "Na", "occu": 1}], "abc": [0.99789883, 0.30871177, 0.40002719], "xyz": [6.99142449314861, 4.85945172912328, 17.87259240689236], "label": "Na", "properties": {}}, {"species": [{"element": "Na", "occu": 1}], "abc": [0.5178051, 0.46255669, 0.28963105], "xyz": [3.6275497209579703, 7.281134460918159, 12.940264648086199], "label": "Na", "properties": {}}, {"species": [{"element": "Na", "occu": 1}], "abc": [0.52063032, 0.07588469, 0.35989324], "xyz": [3.64768737693437, 1.19450576191016, 16.07946996931856], "label": "Na", "properties": {}}, {"species": [{"element": "Na", "occu": 1}], "abc": [0.01983946, 0.07292788, 0.37360627999999996], "xyz": [0.13893890230364, 1.14796242646432, 16.692147259028317], "label": "Na", "properties": {}}, {"species": [{"element": "Na", "occu": 1}], "abc": [0.00590572, 0.47268432, 0.30424154999999997], "xyz": [0.040958683730560004, 7.44055413291648, 13.593039054148198], "label": "Na", "properties": {}}, {"species": [{"element": "Na", "occu": 1}], "abc": [0.99355324, 0.97395389, 0.30215553], "xyz": [6.96038739470037, 15.33107051553896, 13.49983892639532], "label": "Na", "properties": {}}, {"species": [{"element": "Na", "occu": 1}], "abc": [0.01252513, 0.58358754, 0.37594346], "xyz": [0.08723867918662001, 9.186288816742561, 16.79656882477624], "label": "Na", "properties": {}}, {"species": [{"element": "Na", "occu": 1}], "abc": [0.51902521, 0.96616878, 0.45408999], "xyz": [3.63565162014034, 15.208524600781919, 20.28803418917556], "label": "Na", "properties": {}}, {"species": [{"element": "Na", "occu": 1}], "abc": [0.48777884, 0.68715812, 0.42353146999999997], "xyz": [3.41697391090036, 10.81659994503968, 18.922727064632678], "label": "Na", "properties": {}}, {"species": [{"element": "Na", "occu": 1}], "abc": [0.04692455, 0.11920099, 0.44776166], "xyz": [0.32866737433287, 1.87635041245336, 20.00529425165704], "label": "Na", "properties": {}}, {"species": [{"element": "P", "occu": 1}], "abc": [0.00292025, 0.4464279, 0.11078777999999999], "xyz": [0.0200645164577, 7.0272501452856, 4.949825624614319], "label": "P", "properties": {}}, {"species": [{"element": "P", "occu": 1}], "abc": [0.02590804, 0.83656175, 0.038777690000000004], "xyz": [0.18078057934455, 13.168372046702, 1.7325268511143601], "label": "P", "properties": {}}, {"species": [{"element": "P", "occu": 1}], "abc": [0.47722952, 0.14832581, 0.07025174], "xyz": [3.34353888852493, 2.33480606806184, 3.1387384314925595], "label": "P", "properties": {}}, {"species": [{"element": "P", "occu": 1}], "abc": [0.99539618, 0.65177847, 0.25547363], "xyz": [6.97358557597271, 10.25968661009208, 11.41416427143172], "label": "P", "properties": {}}, {"species": [{"element": "P", "occu": 1}], "abc": [0.99357583, 0.0486523, 0.18300698], "xyz": [6.961366412238501, 0.7658389680472, 8.17646710753912], "label": "P", "properties": {}}, {"species": [{"element": "P", "occu": 1}], "abc": [0.49414967, 0.35540792, 0.21792119000000001], "xyz": [3.46190488405636, 5.5944988148268795, 9.73637968382836], "label": "P", "properties": {}}, {"species": [{"element": "P", "occu": 1}], "abc": [0.49330855, 0.75164475, 0.14837909000000002], "xyz": [3.45566018199775, 11.831688115014, 6.629346863335961], "label": "P", "properties": {}}, {"species": [{"element": "P", "occu": 1}], "abc": [0.98106499, 0.85986164, 0.40282948999999996], "xyz": [6.872990669961121, 13.53513710638496, 17.997794810513557], "label": "P", "properties": {}}, {"species": [{"element": "P", "occu": 1}], "abc": [0.9932432, 0.25559587, 0.32509021], "xyz": [6.958852307807311, 4.02335094780568, 14.52452474243324], "label": "P", "properties": {}}, {"species": [{"element": "P", "occu": 1}], "abc": [0.50643162, 0.56110178, 0.36252024], "xyz": [3.5477749337215396, 8.83233902949392, 16.19684024170656], "label": "P", "properties": {}}, {"species": [{"element": "P", "occu": 1}], "abc": [0.49481813, 0.95836703, 0.29030331], "xyz": [3.4660535708389903, 15.08571675471992, 12.970300178849639], "label": "P", "properties": {}}, {"species": [{"element": "P", "occu": 1}], "abc": [0.53129711, 0.17236638, 0.43505309999999997], "xyz": [3.7223378084671404, 2.71323021902832, 19.4374955653764], "label": "P", "properties": {}}, {"species": [{"element": "S", "occu": 1}], "abc": [0.15513523, 0.33500165, 0.10467344999999999], "xyz": [1.0866454317130503, 5.2732824127555995, 4.6766468741118], "label": "S", "properties": {}}, {"species": [{"element": "S", "occu": 1}], "abc": [0.18877879, 0.73028471, 0.03171216], "xyz": [1.32201572729403, 11.495458358331438, 1.41684996467904], "label": "S", "properties": {}}, {"species": [{"element": "S", "occu": 1}], "abc": [0.6610429, 0.05492357, 0.05486135], "xyz": [4.63149547821141, 0.8645554304784799, 2.4511197537394], "label": "S", "properties": {}}, {"species": [{"element": "S", "occu": 1}], "abc": [0.19428047, 0.93290907, 0.05651036999999999], "xyz": [1.36038308027231, 14.68498137705048, 2.5247954014642797], "label": "S", "properties": {}}, {"species": [{"element": "S", "occu": 1}], "abc": [0.34887364, 0.10545501, 0.10947575], "xyz": [2.44426171017493, 1.65997406153064, 4.891206165733], "label": "S", "properties": {}}, {"species": [{"element": "S", "occu": 1}], "abc": [0.81255533, 0.81199289, 0.07097676], "xyz": [5.692383677525171, 12.78163204903496, 3.17113119696144], "label": "S", "properties": {}}, {"species": [{"element": "S", "occu": 1}], "abc": [0.64557708, 0.25238675, 0.08082178999999999], "xyz": [4.522960297806351, 3.972835984502, 3.6109918184947594], "label": "S", "properties": {}}, {"species": [{"element": "S", "occu": 1}], "abc": [0.86566696, 0.48028596, 0.07157379999999999], "xyz": [6.06480028823668, 7.56021203466144, 3.1978060151671994], "label": "S", "properties": {}}, {"species": [{"element": "S", "occu": 1}], "abc": [0.90338314, 0.87883489, 9.99999999999994e-05], "xyz": [6.3287021732113695, 13.83379624892296, 0.004467844399999973], "label": "S", "properties": {}}, {"species": [{"element": "S", "occu": 1}], "abc": [0.26565136, 0.1784226, 0.03954463999999999], "xyz": [1.861106740885, 2.8085615656463996, 1.7667929837401597], "label": "S", "properties": {}}, {"species": [{"element": "S", "occu": 1}], "abc": [0.29380403, 0.78380563, 0.11632447], "xyz": [2.05781919627879, 12.33793458539032, 5.1971963187246795], "label": "S", "properties": {}}, {"species": [{"element": "S", "occu": 1}], "abc": [0.15105521, 0.54360269, 0.24621693000000003], "xyz": [1.05787406886217, 8.55688473386216, 11.000589318856921], "label": "S", "properties": {}}, {"species": [{"element": "S", "occu": 1}], "abc": [0.14799888, 0.93971891, 0.17466356000000002], "xyz": [1.03610878213643, 14.79217550432024, 7.803696084300641], "label": "S", "properties": {}}, {"species": [{"element": "S", "occu": 1}], "abc": [0.67359559, 0.65885339, 0.13224042], "xyz": [4.71890921073087, 10.371053378606959, 5.90829619950648], "label": "S", "properties": {}}, {"species": [{"element": "S", "occu": 1}], "abc": [0.67616895, 0.25934275, 0.20442582], "xyz": [4.73729361763975, 4.082330825686, 9.13342755102408], "label": "S", "properties": {}}, {"species": [{"element": "S", "occu": 1}], "abc": [0.19242404, 0.5416389, 0.121933], "xyz": [1.3477232086325, 8.5259725897896, 5.447776712252], "label": "S", "properties": {}}, {"species": [{"element": "S", "occu": 1}], "abc": [0.17959869, 0.14521845, 0.19478597], "xyz": [1.25821504482465, 2.2858929154308, 8.70273405263068], "label": "S", "properties": {}}, {"species": [{"element": "S", "occu": 1}], "abc": [0.34926807, 0.70729641, 0.18565228], "xyz": [2.44649141909373, 11.13359805678024, 8.29465499545232], "label": "S", "properties": {}}, {"species": [{"element": "S", "occu": 1}], "abc": [0.34884398, 0.31615689, 0.25573389999999996], "xyz": [2.44386700719017, 4.97664583953096, 11.425792730051597], "label": "S", "properties": {}}, {"species": [{"element": "S", "occu": 1}], "abc": [0.80634935, 0.42533653, 0.14455462000000002], "xyz": [5.64924493932489, 6.69524954026792, 6.458475494611281], "label": "S", "properties": {}}, {"species": [{"element": "S", "occu": 1}], "abc": [0.8030205, 0.02541539, 0.21735769000000002], "xyz": [5.62627634815907, 0.40006528057496, 9.71120338063436], "label": "S", "properties": {}}, {"species": [{"element": "S", "occu": 1}], "abc": [0.65110078, 0.46349267, 0.22697003000000002], "xyz": [4.5614744090093104, 7.2958677820008795, 10.14066777503332], "label": "S", "properties": {}}, {"species": [{"element": "S", "occu": 1}], "abc": [0.65244463, 0.85832381, 0.15868995000000002], "xyz": [4.57053977130513, 13.51093002593384, 7.090020044437801], "label": "S", "properties": {}}, {"species": [{"element": "S", "occu": 1}], "abc": [0.84869582, 0.6911845, 0.2178013], "xyz": [5.9457062865129, 10.879979450308, 9.7310231851772], "label": "S", "properties": {}}, {"species": [{"element": "S", "occu": 1}], "abc": [0.8418425, 0.08498794, 0.1453239], "xyz": [5.898226744547221, 1.33780060276816, 6.4928457280116], "label": "S", "properties": {}}, {"species": [{"element": "S", "occu": 1}], "abc": [0.300149, 0.38136444, 0.18430425], "xyz": [2.10263168632172, 6.003082057364161, 8.234427112587], "label": "S", "properties": {}}, {"species": [{"element": "S", "occu": 1}], "abc": [0.30457799, 0.98100914, 0.25586516], "xyz": [2.1331311655886203, 15.442127657324958, 11.431657222611038], "label": "S", "properties": {}}, {"species": [{"element": "S", "occu": 1}], "abc": [0.14817039, 0.75564106, 0.39192446], "xyz": [1.03747373028358, 11.89459428648784, 17.51057503834024], "label": "S", "properties": {}}, {"species": [{"element": "S", "occu": 1}], "abc": [0.15163533, 0.14890577, 0.31457023], "xyz": [1.0622887294006103, 2.34393525553928, 14.05450840512212], "label": "S", "properties": {}}, {"species": [{"element": "S", "occu": 1}], "abc": [0.68171382, 0.86177857, 0.27882851999999997], "xyz": [4.77560894513281, 13.56531162419848, 12.457624416422878], "label": "S", "properties": {}}, {"species": [{"element": "S", "occu": 1}], "abc": [0.69759202, 0.46626406, 0.35170139], "xyz": [4.88720910454718, 7.339492409359839, 15.71347085783716], "label": "S", "properties": {}}, {"species": [{"element": "S", "occu": 1}], "abc": [0.178221, 0.7477267, 0.26885238], "xyz": [1.2480279452371, 11.770013839208799, 12.01190600409672], "label": "S", "properties": {}}, {"species": [{"element": "S", "occu": 1}], "abc": [0.1743369, 0.34805754, 0.34124730999999997], "xyz": [1.22116881586002, 5.47879601282256, 15.246398829985639], "label": "S", "properties": {}}, {"species": [{"element": "S", "occu": 1}], "abc": [0.34259154, 0.92266782, 0.32798739], "xyz": [2.3995218113304606, 14.52377320536048, 14.653966236821159], "label": "S", "properties": {}}, {"species": [{"element": "S", "occu": 1}], "abc": [0.36886919, 0.52715253, 0.40169856], "xyz": [2.58398488590569, 8.29794171249192, 17.94726661784064], "label": "S", "properties": {}}, {"species": [{"element": "S", "occu": 1}], "abc": [0.8023481, 0.62580021, 0.28920888], "xyz": [5.62103269001573, 9.85076115682344, 12.92140274938272], "label": "S", "properties": {}}, {"species": [{"element": "S", "occu": 1}], "abc": [0.79436208, 0.22340331, 0.35721701], "xyz": [5.56543620581763, 3.5166058005218397, 15.95990017713244], "label": "S", "properties": {}}, {"species": [{"element": "S", "occu": 1}], "abc": [0.6570416, 0.67302391, 0.36865612], "xyz": [4.60291243486383, 10.59411244084024, 16.47098181267728], "label": "S", "properties": {}}, {"species": [{"element": "S", "occu": 1}], "abc": [0.64882859, 0.06756441, 0.29852868], "xyz": [4.545905679916131, 1.06353570193224, 13.33779691177392], "label": "S", "properties": {}}, {"species": [{"element": "S", "occu": 1}], "abc": [0.85150599, 0.90390658, 0.36382624999999996], "xyz": [5.965206833319341, 14.22845132580112, 16.255190736354997], "label": "S", "properties": {}}, {"species": [{"element": "S", "occu": 1}], "abc": [0.84867554, 0.30030352, 0.28789802999999997], "xyz": [5.94591090774456, 4.72709692774528, 12.862836011065319], "label": "S", "properties": {}}, {"species": [{"element": "S", "occu": 1}], "abc": [0.31045313, 0.58113963, 0.32862274999999996], "xyz": [2.1746495482427903, 9.14775610876632, 14.682353133000998], "label": "S", "properties": {}}, {"species": [{"element": "S", "occu": 1}], "abc": [0.31816905, 0.19542964, 0.40266659], "xyz": [2.2290526492103204, 3.0762704707369597, 17.99051669198596], "label": "S", "properties": {}}, {"species": [{"element": "S", "occu": 1}], "abc": [0.70243228, 0.0764783, 0.41762313], "xyz": [4.9214677389855, 1.2038498149112, 18.65875162680972], "label": "S", "properties": {}}, {"species": [{"element": "S", "occu": 1}], "abc": [0.16682159, 0.95264457, 0.41824374], "xyz": [1.16797712887421, 14.99563914562248, 18.686479515940558], "label": "S", "properties": {}}, {"species": [{"element": "S", "occu": 1}], "abc": [0.40887198, 0.1298516, 0.47372774], "xyz": [2.8646136397424002, 2.0440023461024, 21.16541830283656], "label": "S", "properties": {}}, {"species": [{"element": "S", "occu": 1}], "abc": [0.77028008, 0.82956147, 0.43359125], "xyz": [5.39616993708971, 13.05818019120408, 19.372182382014998], "label": "S", "properties": {}}, {"species": [{"element": "S", "occu": 1}], "abc": [0.69076104, 0.2796012, 0.44198550999999997], "xyz": [4.839513959612401, 4.4012203836768, 19.74722485734644], "label": "S", "properties": {}}]}, "formula": "", "bandgap": 2.3979, "slab_thickness": 21.16095045843656}