{"miller": "201_0.26", "final_energy": -457.27431595, "gamma": 0.016351339240103284, "work_function": "Not calculated", "ionization_potentail": "Not calculated", "electron_affinity": "Not calculated", "is_stochiometric": true, "incar_parameters": {"SYSTEM": "unknown system", "LCOMPAT": false, "PREC": "normal", "ENMAX": 520.0, "ENAUG": 368.056, "EDIFF": 1e-05, "IALGO": 38, "IWAVPR": 11, "NBANDS": 420, "NBANDSLOW": -1, "NBANDSHIGH": -1, "NELECT": 700.0, "TURBO": 0, "IRESTART": 0, "NREBOOT": 0, "NMIN": 0, "EREF": 0.0, "ISMEAR": 0, "SIGMA": 0.05, "KSPACING": 0.5, "KGAMMA": true, "KBLOWUP": true, "LREAL": true, "ROPT": [-0.0005, -0.0005, -0.0005], "LMAXPAW": -100, "LMAXMIX": 2, "NLSPLINE": false, "ISTART": 0, "ICHARG": 2, "INIWAV": 1, "ISPIN": 1, "LNONCOLLINEAR": false, "MAGMOM": [0.6, 0.6, 0.6, 0.6, 0.6, 0.6, 0.6, 0.6, 0.6, 0.6, 0.6, 0.6, 0.6, 0.6, 0.6, 0.6, 0.6, 0.6, 0.6, 0.6, 0.6, 0.6, 0.6, 0.6, 0.6, 0.6, 0.6, 0.6, 0.6, 0.6, 0.6, 0.6, 0.6, 0.6, 0.6, 0.6, 0.6, 0.6, 0.6, 0.6, 0.6, 0.6, 0.6, 0.6, 0.6, 0.6, 0.6, 0.6, 0.6, 0.6, 0.6, 0.6, 0.6, 0.6, 0.6, 0.6, 0.6, 0.6, 0.6, 0.6, 0.6, 0.6, 0.6, 0.6, 0.6, 0.6, 0.6, 0.6, 0.6, 0.6, 0.6, 0.6, 0.6, 0.6, 0.6, 0.6, 0.6, 0.6, 0.6, 0.6, 0.6, 0.6, 0.6, 0.6, 0.6, 0.6, 0.6, 0.6, 0.6, 0.6, 0.6, 0.6, 0.6, 0.6, 0.6, 0.6, 0.6, 0.6, 0.6, 0.6, 0.6, 0.6, 0.6, 0.6, 0.6, 0.6, 0.6, 0.6, 0.6, 0.6, 0.6, 0.6], "NUPDOWN": -1.0, "LSORBIT": false, "SAXIS": [0.0, 0.0, 1.0], "LSPIRAL": false, "QSPIRAL": [0.0, 0.0, 0.0], "LZEROZ": false, "LASPH": false, "LMETAGGA": false, "NELM": 100, "NELMDL": -5, "NELMIN": 6, "ENINI": 520.0, "LDIAG": true, "LSUBROT": false, "WEIMIN": 0.001, "EBREAK": 1e-08, "DEPER": 0.3, "NRMM": 4, "TIME": 0.4, "AMIX": 0.4, "BMIX": 1.0, "AMIN": 0.1, "AMIX_MAG": 1.6, "BMIX_MAG": 1.0, "IMIX": 4, "MIXFIRST": false, "MAXMIX": -45, "WC": 100.0, "INIMIX": 1, "MIXPRE": 1, "MREMOVE": 5, "LDIPOL": false, "LMONO": false, "IDIPOL": 0, "EPSILON": 1.0, "DIPOL": [-100.0, -100.0, -100.0], "EFIELD": 0.0, "NGX": 40, "NGY": 90, "NGZ": 250, "NGXF": 80, "NGYF": 180, "NGZF": 500, "ADDGRID": false, "NSW": 150, "IBRION": 2, "MDALGO": 0, "ISIF": 2, "PSTRESS": 0.0, "EDIFFG": -0.01, "NFREE": 1, "POTIM": 0.5, "SMASS": -3.0, "SCALEE": 1.0, "TEBEG": 0.0001, "TEEND": 0.0001, "NBLOCK": 1, "KBLOCK": 150, "NPACO": 256, "APACO": 10.0, "ISYM": 0, "SYMPREC": 1e-05, "LORBIT": 11, "RWIGS": [-1.0, -1.0, -1.0], "NEDOS": 301, "EMIN": 10.0, "EMAX": -10.0, "EFERMI": 0.0, "NWRITE": 2, "LWAVE": false, "LDOWNSAMPLE": false, "LCHARG": false, "LPARD": false, "LVTOT": false, "LVHAR": false, "LELF": false, "LOPTICS": false, "STM": [0.0, 0.0, 0.0, 0.0, 0.0, 0.0, 0.0], "NPAR": 1, "NSIM": 4, "NBLK": -1, "LPLANE": true, "LSCALAPACK": true, "LSCAAWARE": false, "LSCALU": false, "LASYNC": false, "LORBITALREAL": false, "IDIOT": 3, "PHON_NSTRUCT": -1, "LMUSIC": false, "POMASS": [22.99, 30.974, 32.066], "DARWINR": [0.0, 0.0, 0.0], "DARWINV": [1.0, 1.0, 1.0], "LCORR": true, "GGA_COMPAT": true, "LBERRY": false, "ICORELEVEL": 0, "LDAU": false, "I_CONSTRAINED_M": 0, "GGA": "--", "VOSKOWN": 0, "LHFCALC": false, "PRECFOCK": "", "LSYMGRAD": false, "LHFONE": false, "LRHFCALC": false, "LTHOMAS": false, "LMODELHF": false, "LFOCKACE": false, "ENCUT4O": -1.0, "EXXOEP": 0, "FOURORBIT": 0, "AEXX": 0.0, "HFALPHA": 0.0, "MCALPHA": 0.0, "ALDAX": 1.0, "AGGAX": 1.0, "ALDAC": 1.0, "AGGAC": 1.0, "NKREDX": 1, "NKREDY": 1, "NKREDZ": 1, "SHIFTRED": false, "ODDONLY": false, "EVENONLY": false, "LMAXFOCK": 0, "NMAXFOCKAE": 0, "LFOCKAEDFT": false, "HFSCREEN": 0.0, "HFSCREENC": 0.0, "NBANDSGWLOW": 0, "LUSE_VDW": false, "Zab_VDW": -0.8491, "PARAM1": 0.1234, "PARAM2": 1.0, "PARAM3": 0.0, "MODEL_GW": 0, "MODEL_EPS0": 26.39742248, "MODEL_ALPHA": 1.0, "LEPSILON": false, "LRPA": false, "LNABLA": false, "LVEL": false, "CSHIFT": 0.1, "OMEGAMAX": -1.0, "DEG_THRESHOLD": 0.002, "RTIME": -0.1, "WPLASMAI": 0.0, "DFIELD": [0.0, 0.0, 0.0], "WPLASMA": [0.0, 0.0, 0.0, 0.0, 0.0, 0.0, 0.0, 0.0, 0.0], "NUCIND": false, "MAGPOS": [0.0, 0.0, 0.0], "LNICSALL": true, "ORBITALMAG": false, "LMAGBLOCH": false, "LCHIMAG": false, "LGAUGE": true, "MAGATOM": 0, "MAGDIPOL": [0.0, 0.0, 0.0], "AVECCONST": [0.0, 0.0, 0.0], "LFINITE_TEMPERATURE": false, "LADDER": false, "LRPAFORCE": false, "LFXC": false, "LHARTREE": true, "IBSE": 0, "KPOINT": [-1, 0, 0, 0], "LTCTC": false, "LTCTE": false, "LTETE": false, "LTRIPLET": false, "LFXCEPS": false, "LFXHEG": false, "NATURALO": 2, "LHOLEGF": false, "L2ORDER": false, "LDMP1": false, "LMP2LT": false, "LSMP2LT": false, "LGWLF": false, "ENCUTGW": -2.0, "ENCUTGWSOFT": -2.0, "ENCUTLF": -1.0, "LESF_SPLINES": false, "LMAXMP2": -1, "SCISSOR": 0.0, "NOMEGA": 0, "NOMEGAR": 0, "NBANDSGW": -1, "NBANDSO": -1, "NBANDSV": -1, "NELMGW": 1, "NELMHF": 1, "DIM": 3, "IESPILON": 4, "ANTIRES": 0, "OMEGAMIN": -30.0, "OMEGATL": -200.0, "OMEGAGRID": 0, "LSELFENERGY": false, "LSPECTRAL": false, "LSPECTRALGW": false, "LSINGLES": false, "LFERMIGW": false, "ODDONLYGW": false, "EVENONLYGW": false, "NKREDLFX": 1, "NKREDLFY": 1, "NKREDLFZ": 1, "MAXMEM": 2800, "TELESCOPE": 0, "NTAUPAR": -1, "NOMEGAPAR": -1, "DAMP_NEWTON": 0.80000001, "LAMBDA": 1.0, "OFIELD_KAPPA": 0.0, "OFIELD_K": [0.0, 0.0, 0.0], "OFIELD_Q6_NEAR": 0.0, "OFIELD_Q6_FAR": 0.0, "OFIELD_A": 0.0, "KPOINTS_OPT_MODE": 1, "LKPOINTS_OPT": false, "@module": "pymatgen.io.vasp.inputs", "@class": "Incar"}, "relaxed_structures": {"@module": "pymatgen.core.structure", "@class": "Structure", "charge": 0, "lattice": {"matrix": [[7.00642, 0.0, 0.0], [-0.001256, 15.960265, 0.0], [0.0, 0.0, 44.064823]], "a": 7.00642, "b": 15.960265049420732, "c": 44.064823, "alpha": 90.0, "beta": 90.0, "gamma": 90.00450891629431, "volume": 4927.518863546162}, "sites": [{"species": [{"element": "Na", "occu": 1}], "abc": [0.52553174, 0.11979664, 0.06100468999999993], "xyz": [3.6819456291909605, 1.9119861205095998, 2.688160867019867], "label": "Na", "properties": {}}, {"species": [{"element": "Na", "occu": 1}], "abc": [0.48837572, 0.52604366, 0.13275880999999992], "xyz": [3.4211047012854405, 8.3957962151699, 5.849993464340626], "label": "Na", "properties": {}}, {"species": [{"element": "Na", "occu": 1}], "abc": [0.51784777, 0.32309984, 0.09881545999999994], "xyz": [3.6278531592843604, 5.1567590678576005, 4.354285754563577], "label": "Na", "properties": {}}, {"species": [{"element": "Na", "occu": 1}], "abc": [0.02523205, 0.35993471, 0.10428026999999994], "xyz": [0.17633426176524, 5.7446533542981495, 4.595091639942207], "label": "Na", "properties": {}}, {"species": [{"element": "Na", "occu": 1}], "abc": [0.01277874, 0.95036612, 0.046951839999999925], "xyz": [0.08833955966408001, 15.1680951222218, 2.0689245191243164], "label": "Na", "properties": {}}, {"species": [{"element": "Na", "occu": 1}], "abc": [0.50059788, 0.06092253, 0.1373724699999999], "xyz": [3.5073224796919207, 0.97233972327045, 6.0532935756228055], "label": "Na", "properties": {}}, {"species": [{"element": "Na", "occu": 1}], "abc": [0.47882538, 0.65192445, 0.06540855999999994], "xyz": [3.3540329018304003, 10.40488698197925, 2.882216619084877], "label": "Na", "properties": {}}, {"species": [{"element": "Na", "occu": 1}], "abc": [0.01628962, 0.28752939, 0.011535519999999931], "xyz": [0.11377078244656001, 4.5890452596883495, 0.5083106470129569], "label": "Na", "properties": {}}, {"species": [{"element": "Na", "occu": 1}], "abc": [0.99251336, 0.68170932, 0.08350821999999994], "xyz": [6.953109228865281, 10.880261400169799, 3.679774933345057], "label": "Na", "properties": {}}, {"species": [{"element": "Na", "occu": 1}], "abc": [0.98390132, 0.88318365, 0.11776385999999993], "xyz": [6.89251660781, 14.09584509766725, 5.189243646696776], "label": "Na", "properties": {}}, {"species": [{"element": "Na", "occu": 1}], "abc": [0.99408602, 0.48653284, 0.035139999999999935], "xyz": [6.964373087001361, 7.7651930576026, 1.548437880219997], "label": "Na", "properties": {}}, {"species": [{"element": "Na", "occu": 1}], "abc": [0.4993924, 0.9293264, 0.20875896999999993], "xyz": [3.4977856652496, 14.832295615496, 9.198927062712306], "label": "Na", "properties": {}}, {"species": [{"element": "Na", "occu": 1}], "abc": [0.4950215, 0.33807669, 0.2765021099999999], "xyz": [3.46790391370736, 5.39579356272285, 12.184016536276525], "label": "Na", "properties": {}}, {"species": [{"element": "Na", "occu": 1}], "abc": [0.50707251, 0.13095089, 0.24390222999999994], "xyz": [3.55259850119636, 2.09001090638585, 10.747508594255287], "label": "Na", "properties": {}}, {"species": [{"element": "Na", "occu": 1}], "abc": [0.50033385, 0.72653412, 0.1710500299999999], "xyz": [3.5046365664622803, 11.5956770867418, 7.537289296094685], "label": "Na", "properties": {}}, {"species": [{"element": "Na", "occu": 1}], "abc": [0.01129372, 0.16261673, 0.25126167999999993], "xyz": [0.07892429906952, 2.5954061042334495, 11.071801455882635], "label": "Na", "properties": {}}, {"species": [{"element": "Na", "occu": 1}], "abc": [0.99685641, 0.74952315, 0.18700678999999992], "xyz": [6.9834532870758, 11.96258809763475, 8.240421101148167], "label": "Na", "properties": {}}, {"species": [{"element": "Na", "occu": 1}], "abc": [0.50949022, 0.86720979, 0.2868990799999999], "xyz": [3.5686132517161604, 13.84089805899435, 12.642157179062835], "label": "Na", "properties": {}}, {"species": [{"element": "Na", "occu": 1}], "abc": [0.48851909, 0.46852367, 0.20962555999999993], "xyz": [3.4221814568282802, 7.47776193197255, 9.237113197675876], "label": "Na", "properties": {}}, {"species": [{"element": "Na", "occu": 1}], "abc": [0.00151308, 0.09572798, 0.14987701999999992], "xyz": [0.01048103963072, 1.5278439287147, 6.604304358067456], "label": "Na", "properties": {}}, {"species": [{"element": "Na", "occu": 1}], "abc": [0.99007152, 0.495605, 0.2218153699999999], "xyz": [6.9362344192784, 7.909987135325, 9.774255017729505], "label": "Na", "properties": {}}, {"species": [{"element": "Na", "occu": 1}], "abc": [0.99478977, 0.6930205, 0.2612313699999999], "xyz": [6.9690445065754005, 11.0607908304325, 11.511114081097505], "label": "Na", "properties": {}}, {"species": [{"element": "Na", "occu": 1}], "abc": [0.99832411, 0.29550112, 0.18415665999999992], "xyz": [6.99430686137948, 4.7162761829968, 8.114830627171175], "label": "Na", "properties": {}}, {"species": [{"element": "Na", "occu": 1}], "abc": [0.4979391, 0.73438011, 0.3537831299999999], "xyz": [3.4878480876038407, 11.720901166329151, 15.589391003835985], "label": "Na", "properties": {}}, {"species": [{"element": "Na", "occu": 1}], "abc": [0.48421217, 0.14746403, 0.4200333399999999], "xyz": [3.39240861730972, 2.35356499676795, 18.508694781198816], "label": "Na", "properties": {}}, {"species": [{"element": "Na", "occu": 1}], "abc": [0.50143442, 0.93511712, 0.3876436599999999], "xyz": [3.5120856418736803, 14.9247170412368, 17.081449264972175], "label": "Na", "properties": {}}, {"species": [{"element": "Na", "occu": 1}], "abc": [0.49176969, 0.53437444, 0.3159117899999999], "xyz": [3.44487381711316, 8.5287576716266, 13.920597109963165], "label": "Na", "properties": {}}, {"species": [{"element": "Na", "occu": 1}], "abc": [0.00017819, 0.96947477, 0.4002451199999999], "xyz": [3.081366868000002e-05, 15.47307424001405, 17.636730369413755], "label": "Na", "properties": {}}, {"species": [{"element": "Na", "occu": 1}], "abc": [0.99105298, 0.56186479, 0.32786516999999993], "xyz": [6.943027717955361, 8.96751094256935, 14.447320683914906], "label": "Na", "properties": {}}, {"species": [{"element": "Na", "occu": 1}], "abc": [0.52549859, 0.67024634, 0.4335949499999999], "xyz": [3.6810220015447603, 10.6973092016801, 19.106284725443846], "label": "Na", "properties": {}}, {"species": [{"element": "Na", "occu": 1}], "abc": [0.49684896, 0.28084218, 0.3506361499999999], "xyz": [3.4807797525451205, 4.4823156159777, 15.450719887151445], "label": "Na", "properties": {}}, {"species": [{"element": "Na", "occu": 1}], "abc": [0.00567109, 0.90020935, 0.2938277299999999], "xyz": [0.0386033754542, 14.36757978147775, 12.947466914941785], "label": "Na", "properties": {}}, {"species": [{"element": "Na", "occu": 1}], "abc": [0.00065544, 0.30418354, 0.3668195399999999], "xyz": [0.00421023339856, 4.8548499070380995, 16.163838103041414], "label": "Na", "properties": {}}, {"species": [{"element": "Na", "occu": 1}], "abc": [0.98780992, 0.50536914, 0.4047788599999999], "xyz": [6.92037643604656, 8.065825397222099, 17.836508820041775], "label": "Na", "properties": {}}, {"species": [{"element": "Na", "occu": 1}], "abc": [0.0002046, 0.10150998, 0.3292120799999999], "xyz": [0.0013060169971200002, 1.6201261809447, 14.506672034661834], "label": "Na", "properties": {}}, {"species": [{"element": "Na", "occu": 1}], "abc": [0.49106732, 0.54466779, 0.502487], "xyz": [3.43993978945016, 8.69304226536435, 22.142000714801], "label": "Na", "properties": {}}, {"species": [{"element": "Na", "occu": 1}], "abc": [0.51645786, 0.74410738, 0.52581492], "xyz": [3.6175860805919204, 11.8761509732557, 23.169941380559155], "label": "Na", "properties": {}}, {"species": [{"element": "Na", "occu": 1}], "abc": [0.49340091, 0.34876533, 0.4543014499999999], "xyz": [3.4565359545877206, 5.56638708961245, 20.018712982893344], "label": "Na", "properties": {}}, {"species": [{"element": "Na", "occu": 1}], "abc": [0.97926096, 0.37928082, 0.4716367099999999], "xyz": [6.86063719865328, 6.0534223966173, 20.782588146452323], "label": "Na", "properties": {}}, {"species": [{"element": "Na", "occu": 1}], "abc": [0.51361474, 0.08024315, 0.4907189599999999], "xyz": [3.5984998012343996, 1.28070193843475, 21.623444115144075], "label": "Na", "properties": {}}, {"species": [{"element": "Na", "occu": 1}], "abc": [0.01754887, 0.70773346, 0.43864598999999993], "xyz": [0.12206584051964002, 11.2956135709669, 19.328857909009766], "label": "Na", "properties": {}}, {"species": [{"element": "Na", "occu": 1}], "abc": [0.02686402, 0.91092381, 0.4765766799999999], "xyz": [0.18707648670303997, 14.53858540240965, 21.000267050127636], "label": "Na", "properties": {}}, {"species": [{"element": "P", "occu": 1}], "abc": [0.01979141, 0.14939156, 0.07205539999999994], "xyz": [0.13847929505284, 2.3843288863634, 3.175108447194197], "label": "P", "properties": {}}, {"species": [{"element": "P", "occu": 1}], "abc": [0.99130607, 0.55735626, 0.14496748999999992], "xyz": [6.944806635506841, 8.8955536090089, 6.387966787604266], "label": "P", "properties": {}}, {"species": [{"element": "P", "occu": 1}], "abc": [0.49714756, 0.45837052, 0.03254398999999993], "xyz": [3.48264889396208, 7.3157149673878, 1.4340451590637668], "label": "P", "properties": {}}, {"species": [{"element": "P", "occu": 1}], "abc": [0.48648411, 0.85076583, 0.10039604999999993], "xyz": [3.40744343610372, 13.578448099744948, 4.423934173149147], "label": "P", "properties": {}}, {"species": [{"element": "P", "occu": 1}], "abc": [0.00207526, 0.95975647, 0.21541474999999993], "xyz": [0.013334689042880002, 15.31796759666455, 9.492212830339247], "label": "P", "properties": {}}, {"species": [{"element": "P", "occu": 1}], "abc": [0.99682498, 0.36502301, 0.2868924299999999], "xyz": [6.98371600747104, 5.825863970697649, 12.641864147989885], "label": "P", "properties": {}}, {"species": [{"element": "P", "occu": 1}], "abc": [0.4993045, 0.26038846, 0.17762969999999995], "xyz": [3.49800998698424, 4.1558688245418995, 7.827221290043097], "label": "P", "properties": {}}, {"species": [{"element": "P", "occu": 1}], "abc": [0.4961282, 0.66482214, 0.25097026999999994], "xyz": [3.4752475264361604, 10.610737532267098, 11.058960525812207], "label": "P", "properties": {}}, {"species": [{"element": "P", "occu": 1}], "abc": [0.99864312, 0.76996319, 0.3600275599999999], "xyz": [6.99594605506376, 12.28881655264535, 15.864550706521875], "label": "P", "properties": {}}, {"species": [{"element": "P", "occu": 1}], "abc": [0.98700552, 0.17892221, 0.4373155599999999], "xyz": [6.915150489142641, 2.8556458859856497, 19.270232746545872], "label": "P", "properties": {}}, {"species": [{"element": "P", "occu": 1}], "abc": [0.50351599, 0.07115266, 0.32223468999999993], "xyz": [3.5277551349148406, 1.1356153090549002, 14.199214579309865], "label": "P", "properties": {}}, {"species": [{"element": "P", "occu": 1}], "abc": [0.490595, 0.47254684, 0.3926577999999999], "xyz": [3.43672110106896, 7.541972791312601, 17.302396456569394], "label": "P", "properties": {}}, {"species": [{"element": "P", "occu": 1}], "abc": [0.99449647, 0.57311662, 0.50479913], "xyz": [6.967140122862681, 9.147093131104299, 22.24388431400399], "label": "P", "properties": {}}, {"species": [{"element": "P", "occu": 1}], "abc": [0.52128022, 0.88160576, 0.4653792999999999], "xyz": [3.65120086217784, 14.0706615551264, 20.506856482363894], "label": "P", "properties": {}}, {"species": [{"element": "S", "occu": 1}], "abc": [0.16819206, 0.05017653, 0.09118210999999994], "xyz": [1.1783611913035201, 0.8008307155804499, 4.017923537916527], "label": "S", "properties": {}}, {"species": [{"element": "S", "occu": 1}], "abc": [0.69258903, 0.36416861, 0.04313557999999994], "xyz": [4.85211223579844, 5.81222752028165, 1.9007616977023372], "label": "S", "properties": {}}, {"species": [{"element": "S", "occu": 1}], "abc": [0.66202543, 0.74965323, 0.10970997999999993], "xyz": [4.63748664880372, 11.96466420890595, 4.834350850033537], "label": "S", "properties": {}}, {"species": [{"element": "S", "occu": 1}], "abc": [0.21238509, 0.24314232, 0.06239207999999993], "xyz": [1.48775375552388, 3.8806158599148, 2.749295961801837], "label": "S", "properties": {}}, {"species": [{"element": "S", "occu": 1}], "abc": [0.17501125, 0.6566715, 0.13696831999999992], "xyz": [1.225377542821, 10.480651157947499, 6.035484777407356], "label": "S", "properties": {}}, {"species": [{"element": "S", "occu": 1}], "abc": [0.33799024, 0.48592967, 0.07223365999999994], "xyz": [2.3674912496752802, 7.755566304562549, 3.182963442542177], "label": "S", "properties": {}}, {"species": [{"element": "S", "occu": 1}], "abc": [0.81548267, 0.18932881, 0.10276402999999994], "xyz": [5.71337629175604, 3.0217379797346497, 4.528278792716687], "label": "S", "properties": {}}, {"species": [{"element": "S", "occu": 1}], "abc": [0.65393537, 0.94690579, 0.08430182999999994], "xyz": [4.58055654140316, 15.112867338434349, 3.714745217526087], "label": "S", "properties": {}}, {"species": [{"element": "S", "occu": 1}], "abc": [0.64629746, 0.56386026, 0.019501669999999933], "xyz": [4.52752324120664, 8.9993591725689, 0.859337636754407], "label": "S", "properties": {}}, {"species": [{"element": "S", "occu": 1}], "abc": [0.89442616, 0.11304546, 0.03168363999999993], "xyz": [6.26658335084944, 1.8042354986469, 1.396133988595717], "label": "S", "properties": {}}, {"species": [{"element": "S", "occu": 1}], "abc": [0.85408657, 0.52568033, 0.10524084999999994], "xyz": [5.983428971284921, 8.38999737208745, 4.637419427619547], "label": "S", "properties": {}}, {"species": [{"element": "S", "occu": 1}], "abc": [0.30533275, 0.42353398, 9.999999999998899e-05], "xyz": [2.13875752757612, 6.759714557304699, 0.004406482299999515], "label": "S", "properties": {}}, {"species": [{"element": "S", "occu": 1}], "abc": [0.27701973, 0.81460443, 0.06892061999999993], "xyz": [1.9398934335025204, 13.00130257297395, 3.036974921350257], "label": "S", "properties": {}}, {"species": [{"element": "S", "occu": 1}], "abc": [0.15522934, 0.8589992, 0.23179932999999991], "xyz": [1.0865230493676, 13.709854866788, 10.214196447968586], "label": "S", "properties": {}}, {"species": [{"element": "S", "occu": 1}], "abc": [0.14978747, 0.45704448, 0.16055090999999994], "xyz": [1.04889987769052, 7.2945510175871995, 7.074647431638927], "label": "S", "properties": {}}, {"species": [{"element": "S", "occu": 1}], "abc": [0.6859253, 0.16336802, 0.18720801999999992], "xyz": [4.80567555019288, 2.6073968917253, 8.249288265480455], "label": "S", "properties": {}}, {"species": [{"element": "S", "occu": 1}], "abc": [0.67718753, 0.56591562, 0.2600762799999999], "xyz": [4.7439494639238795, 9.0321632628393, 11.460215244698434], "label": "S", "properties": {}}, {"species": [{"element": "S", "occu": 1}], "abc": [0.18985851, 0.05482631, 0.2044869199999999], "xyz": [1.3301595997888402, 0.8750424365721501, 9.010679935615155], "label": "S", "properties": {}}, {"species": [{"element": "S", "occu": 1}], "abc": [0.17811155, 0.46372969, 0.2775400799999999], "xyz": [1.24734188166036, 7.40124874076785, 12.229754500605836], "label": "S", "properties": {}}, {"species": [{"element": "S", "occu": 1}], "abc": [0.35825815, 0.88594482, 0.14064904999999994], "xyz": [2.50899432062908, 14.139914102577299, 6.197675493368147], "label": "S", "properties": {}}, {"species": [{"element": "S", "occu": 1}], "abc": [0.3499134, 0.29043858, 0.21673633999999992], "xyz": [2.4512754531715197, 4.6354767030237, 9.550448459767816], "label": "S", "properties": {}}, {"species": [{"element": "S", "occu": 1}], "abc": [0.81257481, 0.99914153, 0.24843211999999992], "xyz": [5.691985478518521, 15.94656359130545, 10.947117395314756], "label": "S", "properties": {}}, {"species": [{"element": "S", "occu": 1}], "abc": [0.79163224, 0.59245247, 0.17719702999999992], "xyz": [5.5457638386784796, 9.45569842110455, 7.808155763075686], "label": "S", "properties": {}}, {"species": [{"element": "S", "occu": 1}], "abc": [0.65428324, 0.76573822, 0.2354852699999999], "xyz": [4.58322141119648, 12.2213849118283, 10.376616741657205], "label": "S", "properties": {}}, {"species": [{"element": "S", "occu": 1}], "abc": [0.65055251, 0.3627103, 0.1622101299999999], "xyz": [4.557588552977401, 5.788952506229499, 7.147760667256985], "label": "S", "properties": {}}, {"species": [{"element": "S", "occu": 1}], "abc": [0.84848799, 0.92560045, 0.17707574999999992], "xyz": [5.9437006687306, 14.77282846611925, 7.802811581342246], "label": "S", "properties": {}}, {"species": [{"element": "S", "occu": 1}], "abc": [0.85355631, 0.33227217, 0.24765843999999992], "xyz": [5.9799566676646805, 5.303151885325049, 10.913025323056116], "label": "S", "properties": {}}, {"species": [{"element": "S", "occu": 1}], "abc": [0.30865281, 0.2246644, 0.14446438999999994], "xyz": [2.1622690425538, 3.5857033600659998, 6.365797775152967], "label": "S", "properties": {}}, {"species": [{"element": "S", "occu": 1}], "abc": [0.30085311, 0.6307632, 0.21798299999999993], "xyz": [2.1071110083869997, 10.067147824248, 9.605382312008997], "label": "S", "properties": {}}, {"species": [{"element": "S", "occu": 1}], "abc": [0.14982384, 0.66757884, 0.3755368099999999], "xyz": [1.0488902700297602, 10.6547351947926, 16.547963062634626], "label": "S", "properties": {}}, {"species": [{"element": "S", "occu": 1}], "abc": [0.15529358, 0.26451285, 0.30268593999999993], "xyz": [1.0877198166439999, 4.22169518190525, 13.337802370688616], "label": "S", "properties": {}}, {"species": [{"element": "S", "occu": 1}], "abc": [0.69158286, 0.97615163, 0.3332099499999999], "xyz": [4.844293935513921, 15.57963869498195, 14.682837468588845], "label": "S", "properties": {}}, {"species": [{"element": "S", "occu": 1}], "abc": [0.67446626, 0.37325292, 0.40059825999999993], "xyz": [4.72512508772168, 5.957215515223799, 17.652291421007977], "label": "S", "properties": {}}, {"species": [{"element": "S", "occu": 1}], "abc": [0.18556927, 0.8669187, 0.3503840999999999], "xyz": [1.2990873948262003, 13.8362521854555, 15.439613348514296], "label": "S", "properties": {}}, {"species": [{"element": "S", "occu": 1}], "abc": [0.16387295, 0.27970536, 0.4280931699999999], "xyz": [1.1478114044068402, 4.4641716675204, 18.863849763558903], "label": "S", "properties": {}}, {"species": [{"element": "S", "occu": 1}], "abc": [0.3530644, 0.69690591, 0.2902884599999999], "xyz": [2.4728421596250403, 11.12280300366615, 12.791509608842576], "label": "S", "properties": {}}, {"species": [{"element": "S", "occu": 1}], "abc": [0.35003131, 0.10482994, 0.3606344099999999], "xyz": [2.45233470460556, 1.6731136223340999, 15.891291444359425], "label": "S", "properties": {}}, {"species": [{"element": "S", "occu": 1}], "abc": [0.80832778, 0.80578001, 0.3932136899999999], "xyz": [5.662471864655041, 12.86046249130265, 17.326891651026862], "label": "S", "properties": {}}, {"species": [{"element": "S", "occu": 1}], "abc": [0.80149265, 0.39968606, 0.3198043699999999], "xyz": [5.61509212712164, 6.3790954344059, 14.092122958676505], "label": "S", "properties": {}}, {"species": [{"element": "S", "occu": 1}], "abc": [0.64898484, 0.57307342, 0.37726631999999993], "xyz": [4.5463405824572805, 9.1464036476563, 16.624173614661355], "label": "S", "properties": {}}, {"species": [{"element": "S", "occu": 1}], "abc": [0.65613026, 0.17198619, 0.3058528499999999], "xyz": [4.59690816161456, 2.74494516874035, 13.477351699295545], "label": "S", "properties": {}}, {"species": [{"element": "S", "occu": 1}], "abc": [0.84892661, 0.73974117, 0.3209675799999999], "xyz": [5.94700726392668, 11.80646510461005, 14.143379601438335], "label": "S", "properties": {}}, {"species": [{"element": "S", "occu": 1}], "abc": [0.85883864, 0.14439746, 0.3970347399999999], "xyz": [6.01720286085904, 2.3046217269269, 17.495265542951014], "label": "S", "properties": {}}, {"species": [{"element": "S", "occu": 1}], "abc": [0.31402051, 0.03142165, 0.2892565399999999], "xyz": [2.2001201160818002, 0.50149786073725, 12.746038236692414], "label": "S", "properties": {}}, {"species": [{"element": "S", "occu": 1}], "abc": [0.29160879, 0.43760782, 0.3603776899999999], "xyz": [2.0425840230098804, 6.984336773272299, 15.879979122998865], "label": "S", "properties": {}}, {"species": [{"element": "S", "occu": 1}], "abc": [0.14280515, 0.46745364, 0.51781736], "xyz": [0.99996573729116, 7.4606839696146, 22.81753031472728], "label": "S", "properties": {}}, {"species": [{"element": "S", "occu": 1}], "abc": [0.15357591, 0.08259604, 0.4534626699999999], "xyz": [1.07591358671596, 1.3182546863506, 19.981752290657404], "label": "S", "properties": {}}, {"species": [{"element": "S", "occu": 1}], "abc": [0.71420833, 0.78809788, 0.47506135999999993], "xyz": [5.003053676541319, 12.5782510107382, 20.933494742539274], "label": "S", "properties": {}}, {"species": [{"element": "S", "occu": 1}], "abc": [0.19033641, 0.66727817, 0.4943410199999999], "xyz": [1.3327387283706802, 10.64993642191505, 21.783049547939456], "label": "S", "properties": {}}, {"species": [{"element": "S", "occu": 1}], "abc": [0.35318083, 0.50392228, 0.4324181299999999], "xyz": [2.4739003045449204, 8.0427331282042, 19.054428360440983], "label": "S", "properties": {}}, {"species": [{"element": "S", "occu": 1}], "abc": [0.39581478, 0.91765323, 0.50579805], "xyz": [2.77209201843072, 14.64598872890595, 22.287901546995148], "label": "S", "properties": {}}, {"species": [{"element": "S", "occu": 1}], "abc": [0.80255027, 0.60756241, 0.53728086], "xyz": [5.62224116434644, 9.69685706763865, 23.67518599718778], "label": "S", "properties": {}}, {"species": [{"element": "S", "occu": 1}], "abc": [0.77766533, 0.21554398, 0.4687422899999999], "xyz": [5.448379198179721, 3.4401390399547, 20.655046041464665], "label": "S", "properties": {}}, {"species": [{"element": "S", "occu": 1}], "abc": [0.66900231, 0.98095405, 0.4462879399999999], "xyz": [4.6860790865434, 15.65628659082325, 19.665599083134612], "label": "S", "properties": {}}, {"species": [{"element": "S", "occu": 1}], "abc": [0.83569561, 0.54593175, 0.4650825999999999], "xyz": [5.8545487455382, 8.71321540191375, 20.493782449379793], "label": "S", "properties": {}}, {"species": [{"element": "S", "occu": 1}], "abc": [0.31738042, 0.84119898, 0.4346919999999999], "xyz": [2.22264397637752, 13.4257586385297, 19.154626039515996], "label": "S", "properties": {}}]}, "formula": "", "bandgap": 2.1715, "slab_thickness": 23.67077951488778}