{"miller": "210_0.03", "final_energy": -423.99573819, "gamma": 0.017857968554996575, "work_function": 4.394041980043409, "ionization_potentail": -4.703741980043409, "electron_affinity": -2.437241980043409, "is_stochiometric": true, "incar_parameters": {"SYSTEM": "unknown system", "LCOMPAT": false, "PREC": "normal", "ENMAX": 520.0, "ENAUG": 368.056, "EDIFF": 1e-05, "IALGO": 38, "IWAVPR": 11, "NBANDS": 390, "NBANDSLOW": -1, "NBANDSHIGH": -1, "NELECT": 650.0, "TURBO": 0, "IRESTART": 0, "NREBOOT": 0, "NMIN": 0, "EREF": 0.0, "ISMEAR": 0, "SIGMA": 0.05, "KSPACING": 0.5, "KGAMMA": true, "KBLOWUP": true, "LREAL": true, "ROPT": [-0.0005, -0.0005, -0.0005], "LMAXPAW": -100, "LMAXMIX": 2, "NLSPLINE": false, "ISTART": 0, "ICHARG": 2, "INIWAV": 1, "ISPIN": 1, "LNONCOLLINEAR": false, "MAGMOM": [0.6, 0.6, 0.6, 0.6, 0.6, 0.6, 0.6, 0.6, 0.6, 0.6, 0.6, 0.6, 0.6, 0.6, 0.6, 0.6, 0.6, 0.6, 0.6, 0.6, 0.6, 0.6, 0.6, 0.6, 0.6, 0.6, 0.6, 0.6, 0.6, 0.6, 0.6, 0.6, 0.6, 0.6, 0.6, 0.6, 0.6, 0.6, 0.6, 0.6, 0.6, 0.6, 0.6, 0.6, 0.6, 0.6, 0.6, 0.6, 0.6, 0.6, 0.6, 0.6, 0.6, 0.6, 0.6, 0.6, 0.6, 0.6, 0.6, 0.6, 0.6, 0.6, 0.6, 0.6, 0.6, 0.6, 0.6, 0.6, 0.6, 0.6, 0.6, 0.6, 0.6, 0.6, 0.6, 0.6, 0.6, 0.6, 0.6, 0.6, 0.6, 0.6, 0.6, 0.6, 0.6, 0.6, 0.6, 0.6, 0.6, 0.6, 0.6, 0.6, 0.6, 0.6, 0.6, 0.6, 0.6, 0.6, 0.6, 0.6, 0.6, 0.6, 0.6, 0.6], "NUPDOWN": -1.0, "LSORBIT": false, "SAXIS": [0.0, 0.0, 1.0], "LSPIRAL": false, "QSPIRAL": [0.0, 0.0, 0.0], "LZEROZ": false, "LASPH": false, "LMETAGGA": false, "NELM": 100, "NELMDL": -5, "NELMIN": 6, "ENINI": 520.0, "LDIAG": true, "LSUBROT": false, "WEIMIN": 0.001, "EBREAK": 1e-08, "DEPER": 0.3, "NRMM": 4, "TIME": 0.4, "AMIX": 0.4, "BMIX": 1.0, "AMIN": 0.1, "AMIX_MAG": 1.6, "BMIX_MAG": 1.0, "IMIX": 4, "MIXFIRST": false, "MAXMIX": -45, "WC": 100.0, "INIMIX": 1, "MIXPRE": 1, "MREMOVE": 5, "LDIPOL": false, "LMONO": false, "IDIPOL": 0, "EPSILON": 1.0, "DIPOL": [-100.0, -100.0, -100.0], "EFIELD": 0.0, "NGX": 40, "NGY": 90, "NGZ": 250, "NGXF": 80, "NGYF": 180, "NGZF": 500, "ADDGRID": false, "NSW": 150, "IBRION": 2, "MDALGO": 0, "ISIF": 2, "PSTRESS": 0.0, "EDIFFG": -0.01, "NFREE": 1, "POTIM": 0.5, "SMASS": -3.0, "SCALEE": 1.0, "TEBEG": 0.0001, "TEEND": 0.0001, "NBLOCK": 1, "KBLOCK": 150, "NPACO": 256, "APACO": 10.0, "ISYM": 0, "SYMPREC": 1e-05, "LORBIT": 11, "RWIGS": [-1.0, -1.0, -1.0], "NEDOS": 301, "EMIN": 10.0, "EMAX": -10.0, "EFERMI": 0.0, "NWRITE": 2, "LWAVE": false, "LDOWNSAMPLE": false, "LCHARG": false, "LPARD": false, "LVTOT": false, "LVHAR": false, "LELF": false, "LOPTICS": false, "STM": [0.0, 0.0, 0.0, 0.0, 0.0, 0.0, 0.0], "NPAR": 1, "NSIM": 4, "NBLK": -1, "LPLANE": true, "LSCALAPACK": true, "LSCAAWARE": false, "LSCALU": false, "LASYNC": false, "LORBITALREAL": false, "IDIOT": 3, "PHON_NSTRUCT": -1, "LMUSIC": false, "POMASS": [22.99, 30.974, 32.066], "DARWINR": [0.0, 0.0, 0.0], "DARWINV": [1.0, 1.0, 1.0], "LCORR": true, "GGA_COMPAT": true, "LBERRY": false, "ICORELEVEL": 0, "LDAU": false, "I_CONSTRAINED_M": 0, "GGA": "--", "VOSKOWN": 0, "LHFCALC": false, "PRECFOCK": "", "LSYMGRAD": false, "LHFONE": false, "LRHFCALC": false, "LTHOMAS": false, "LMODELHF": false, "LFOCKACE": false, "ENCUT4O": -1.0, "EXXOEP": 0, "FOURORBIT": 0, "AEXX": 0.0, "HFALPHA": 0.0, "MCALPHA": 0.0, "ALDAX": 1.0, "AGGAX": 1.0, "ALDAC": 1.0, "AGGAC": 1.0, "NKREDX": 1, "NKREDY": 1, "NKREDZ": 1, "SHIFTRED": false, "ODDONLY": false, "EVENONLY": false, "LMAXFOCK": 0, "NMAXFOCKAE": 0, "LFOCKAEDFT": false, "HFSCREEN": 0.0, "HFSCREENC": 0.0, "NBANDSGWLOW": 0, "LUSE_VDW": false, "Zab_VDW": -0.8491, "PARAM1": 0.1234, "PARAM2": 1.0, "PARAM3": 0.0, "MODEL_GW": 0, "MODEL_EPS0": 28.42799558, "MODEL_ALPHA": 1.0, "LEPSILON": false, "LRPA": false, "LNABLA": false, "LVEL": false, "CSHIFT": 0.1, "OMEGAMAX": -1.0, "DEG_THRESHOLD": 0.002, "RTIME": -0.1, "WPLASMAI": 0.0, "DFIELD": [0.0, 0.0, 0.0], "WPLASMA": [0.0, 0.0, 0.0, 0.0, 0.0, 0.0, 0.0, 0.0, 0.0], "NUCIND": false, "MAGPOS": [0.0, 0.0, 0.0], "LNICSALL": true, "ORBITALMAG": false, "LMAGBLOCH": false, "LCHIMAG": false, "LGAUGE": true, "MAGATOM": 0, "MAGDIPOL": [0.0, 0.0, 0.0], "AVECCONST": [0.0, 0.0, 0.0], "LFINITE_TEMPERATURE": false, "LADDER": false, "LRPAFORCE": false, "LFXC": false, "LHARTREE": true, "IBSE": 0, "KPOINT": [-1, 0, 0, 0], "LTCTC": false, "LTCTE": false, "LTETE": false, "LTRIPLET": false, "LFXCEPS": false, "LFXHEG": false, "NATURALO": 2, "LHOLEGF": false, "L2ORDER": false, "LDMP1": false, "LMP2LT": false, "LSMP2LT": false, "LGWLF": false, "ENCUTGW": -2.0, "ENCUTGWSOFT": -2.0, "ENCUTLF": -1.0, "LESF_SPLINES": false, "LMAXMP2": -1, "SCISSOR": 0.0, "NOMEGA": 0, "NOMEGAR": 0, "NBANDSGW": -1, "NBANDSO": -1, "NBANDSV": -1, "NELMGW": 1, "NELMHF": 1, "DIM": 3, "IESPILON": 4, "ANTIRES": 0, "OMEGAMIN": -30.0, "OMEGATL": -200.0, "OMEGAGRID": 0, "LSELFENERGY": false, "LSPECTRAL": false, "LSPECTRALGW": false, "LSINGLES": false, "LFERMIGW": false, "ODDONLYGW": false, "EVENONLYGW": false, "NKREDLFX": 1, "NKREDLFY": 1, "NKREDLFZ": 1, "MAXMEM": 2800, "TELESCOPE": 0, "NTAUPAR": -1, "NOMEGAPAR": -1, "DAMP_NEWTON": 0.80000001, "LAMBDA": 1.0, "OFIELD_KAPPA": 0.0, "OFIELD_K": [0.0, 0.0, 0.0], "OFIELD_Q6_NEAR": 0.0, "OFIELD_Q6_FAR": 0.0, "OFIELD_A": 0.0, "KPOINTS_OPT_MODE": 1, "LKPOINTS_OPT": false, "@module": "pymatgen.io.vasp.inputs", "@class": "Incar"}, "relaxed_structures": {"@module": "pymatgen.core.structure", "@class": "Structure", "charge": 0, "lattice": {"matrix": [[7.169815, 0.0, 0.0], [-0.000529, 15.666677, 0.0], [0.0, 0.0, 43.867561]], "a": 7.169815, "b": 15.66667700893109, "c": 43.867561, "alpha": 90.0, "beta": 90.0, "gamma": 90.00193464557613, "volume": 4927.519234379436}, "sites": [{"species": [{"element": "Na", "occu": 1}], "abc": [0.54756578, 0.10330032, 0.07542714], "xyz": [3.92589069706142, 1.61837274743664, 3.3088046650055403], "label": "Na", "properties": {}}, {"species": [{"element": "Na", "occu": 1}], "abc": [0.07910177, 0.09495234, 0.07950607], "xyz": [0.5670948272846901, 1.48758764117418, 3.48773737559527], "label": "Na", "properties": {}}, {"species": [{"element": "Na", "occu": 1}], "abc": [0.13822864, 0.70743872, 0.007909259999999998], "xyz": [0.9906995414187201, 11.083213923533439, 0.3469599455148599], "label": "Na", "properties": {}}, {"species": [{"element": "Na", "occu": 1}], "abc": [0.97843128, 0.91367937, 0.03446792], "xyz": [7.01468793142647, 14.31431957135349, 1.5120235831431201], "label": "Na", "properties": {}}, {"species": [{"element": "Na", "occu": 1}], "abc": [0.98647678, 0.32512273, 0.10749264000000001], "xyz": [7.07268402447153, 5.093592796268211, 4.715439942251041], "label": "Na", "properties": {}}, {"species": [{"element": "Na", "occu": 1}], "abc": [0.49031026, 0.65319151, 0.06906212], "xyz": [3.51508831849311, 10.23334040631227, 3.02958676188932], "label": "Na", "properties": {}}, {"species": [{"element": "Na", "occu": 1}], "abc": [0.54966211, 0.43630962, 0.04999174000000001], "xyz": [3.94074483342067, 6.83552188853274, 2.1930157039461404], "label": "Na", "properties": {}}, {"species": [{"element": "Na", "occu": 1}], "abc": [0.41075559, 0.81675818, 0.11121099], "xyz": [2.9446095254386297, 12.79588659316786, 4.87855488769539], "label": "Na", "properties": {}}, {"species": [{"element": "Na", "occu": 1}], "abc": [0.91211741, 0.80676087, 0.10467911], "xyz": [6.53928631147892, 12.63926196652899, 4.5920172433507105], "label": "Na", "properties": {}}, {"species": [{"element": "Na", "occu": 1}], "abc": [0.57917417, 0.90071049, 0.21963036], "xyz": [4.1520951758293405, 14.11114031734173, 9.63464821475196], "label": "Na", "properties": {}}, {"species": [{"element": "Na", "occu": 1}], "abc": [0.59455858, 0.5075983, 0.14027017], "xyz": [4.262606505761999, 7.952378611849099, 6.15331023895537], "label": "Na", "properties": {}}, {"species": [{"element": "Na", "occu": 1}], "abc": [0.07692976, 0.90228369, 0.21849158999999999], "xyz": [0.55109483912239, 14.135787133598129, 9.58469315231199], "label": "Na", "properties": {}}, {"species": [{"element": "Na", "occu": 1}], "abc": [0.09656626, 0.50923497, 0.14410051999999998], "xyz": [0.69209283414277, 7.978019792094689, 6.321338351231719], "label": "Na", "properties": {}}, {"species": [{"element": "Na", "occu": 1}], "abc": [0.99848163, 0.70756248, 0.17814718999999998], "xyz": [7.1585542674465295, 11.08515283147896, 7.814882724303589], "label": "Na", "properties": {}}, {"species": [{"element": "Na", "occu": 1}], "abc": [0.99160521, 0.10559954, 0.25211110999999997], "xyz": [7.109570046579489, 1.6543938845285802, 11.05949949670271], "label": "Na", "properties": {}}, {"species": [{"element": "Na", "occu": 1}], "abc": [0.49559998, 0.00062829, 0.15021741], "xyz": [3.55335983823829, 0.00984321649233, 6.58967139643701], "label": "Na", "properties": {}}, {"species": [{"element": "Na", "occu": 1}], "abc": [0.4975406, 0.40855229, 0.21104751], "xyz": [3.56705793282759, 6.400656765040329, 9.25813951882311], "label": "Na", "properties": {}}, {"species": [{"element": "Na", "occu": 1}], "abc": [0.40521321, 0.20309003, 0.18050534999999998], "xyz": [2.90519631663028, 3.1817459019303103, 7.918329451951349], "label": "Na", "properties": {}}, {"species": [{"element": "Na", "occu": 1}], "abc": [0.41651097, 0.60451337, 0.25218035], "xyz": [2.9859868127978197, 9.470715709971492, 11.06253688662635], "label": "Na", "properties": {}}, {"species": [{"element": "Na", "occu": 1}], "abc": [0.91030283, 0.20485052, 0.17985366], "xyz": [6.52659451915137, 3.20932693012204, 7.889741401123261], "label": "Na", "properties": {}}, {"species": [{"element": "Na", "occu": 1}], "abc": [0.91773175, 0.60475387, 0.25217865], "xyz": [6.5796469523290195, 9.47448354578999, 11.06246231177265], "label": "Na", "properties": {}}, {"species": [{"element": "Na", "occu": 1}], "abc": [0.59490439, 0.70271649, 0.3642476], "xyz": [4.264982681964639, 11.00923227140373, 15.978653812103602], "label": "Na", "properties": {}}, {"species": [{"element": "Na", "occu": 1}], "abc": [0.57969421, 0.30921733, 0.28496808], "xyz": [4.1561366663035795, 4.84440803191241, 12.500854632452882], "label": "Na", "properties": {}}, {"species": [{"element": "Na", "occu": 1}], "abc": [0.09714416, 0.7009655, 0.36032958], "xyz": [0.6961348447808999, 10.9818000766435, 15.80677983075438], "label": "Na", "properties": {}}, {"species": [{"element": "Na", "occu": 1}], "abc": [0.07728071, 0.30794279, 0.28612515], "xyz": [0.55392549203274, 4.82444022540883, 12.55161247125915], "label": "Na", "properties": {}}, {"species": [{"element": "Na", "occu": 1}], "abc": [0.99884977, 0.50304225, 0.32627449], "xyz": [7.1613019543423, 7.881000448103251, 14.31286609281889], "label": "Na", "properties": {}}, {"species": [{"element": "Na", "occu": 1}], "abc": [0.9870402, 0.88534713, 0.39659488], "xyz": [7.07642728293123, 13.87044751858701, 17.39765009068768], "label": "Na", "properties": {}}, {"species": [{"element": "Na", "occu": 1}], "abc": [0.49762718, 0.79975529, 0.2933853], "xyz": [3.56747174902329, 12.52950780747133, 12.870097544253301], "label": "Na", "properties": {}}, {"species": [{"element": "Na", "occu": 1}], "abc": [0.49576955, 0.2092286, 0.3542266], "xyz": [3.55446527420385, 3.2779168953621998, 15.5390569833226], "label": "Na", "properties": {}}, {"species": [{"element": "Na", "occu": 1}], "abc": [0.4055581, 0.00671648, 0.32377618999999996], "xyz": [2.90777299573358, 0.10522492273696, 14.20327176517259], "label": "Na", "properties": {}}, {"species": [{"element": "Na", "occu": 1}], "abc": [0.410747, 0.39325673, 0.39327524999999997], "xyz": [2.94477196899483, 6.16102616698621, 17.25202601916525], "label": "Na", "properties": {}}, {"species": [{"element": "Na", "occu": 1}], "abc": [0.91063799, 0.00521544, 0.32439650999999997], "xyz": [6.52910316130409, 0.08170861389288, 14.23048369061211], "label": "Na", "properties": {}}, {"species": [{"element": "Na", "occu": 1}], "abc": [0.9125838, 0.40372845, 0.39976898], "xyz": [6.54284344564695, 6.32508322186065, 17.53689011605778], "label": "Na", "properties": {}}, {"species": [{"element": "Na", "occu": 1}], "abc": [0.54734383, 0.10749855, 0.42875571], "xyz": [3.9242971357584997, 1.68414506081835, 18.808467262523312], "label": "Na", "properties": {}}, {"species": [{"element": "Na", "occu": 1}], "abc": [0.13741842, 0.50324617, 0.49648942999999995], "xyz": [0.98499843176837, 7.884195196877091, 21.77978035638023], "label": "Na", "properties": {}}, {"species": [{"element": "Na", "occu": 1}], "abc": [0.07811192, 0.11449934, 0.42494438], "xyz": [0.55998744554394, 1.7938241764931802, 18.641273511257182], "label": "Na", "properties": {}}, {"species": [{"element": "Na", "occu": 1}], "abc": [0.97896781, 0.29648793, 0.4698784], "xyz": [7.01886124654018, 4.64498063370861, 20.612419374582398], "label": "Na", "properties": {}}, {"species": [{"element": "Na", "occu": 1}], "abc": [0.49035492, 0.55715282, 0.435425], "xyz": [3.51545932689802, 8.72873327057914, 19.101032748425002], "label": "Na", "properties": {}}, {"species": [{"element": "Na", "occu": 1}], "abc": [0.55085459, 0.77466323, 0.45439834], "xyz": [3.94911570535218, 12.13639860818671, 19.933346898248743], "label": "Na", "properties": {}}, {"species": [{"element": "P", "occu": 1}], "abc": [0.48775452, 0.91622139, 0.036886890000000006], "xyz": [3.49662499269849, 14.35414457762103, 1.6181378971752902], "label": "P", "properties": {}}, {"species": [{"element": "P", "occu": 1}], "abc": [0.49393826, 0.30135903, 0.10897606], "xyz": [3.5412865266950297, 4.72129458404331, 4.78051395958966], "label": "P", "properties": {}}, {"species": [{"element": "P", "occu": 1}], "abc": [0.01787446, 0.6015738, 0.07011693000000001], "xyz": [0.12783833888469998, 9.424662416262601, 3.0758587039077305], "label": "P", "properties": {}}, {"species": [{"element": "P", "occu": 1}], "abc": [0.50160298, 0.70449128, 0.17991217999999998], "xyz": [3.59602789416158, 11.037037333076562, 7.892308530792979], "label": "P", "properties": {}}, {"species": [{"element": "P", "occu": 1}], "abc": [0.48975516, 0.10519763, 0.25217964], "xyz": [3.5113982429491304, 1.64809729037551, 11.06250574065804], "label": "P", "properties": {}}, {"species": [{"element": "P", "occu": 1}], "abc": [0.99149066, 0.00093425, 0.1478531], "xyz": [7.10880411220965, 0.014636592987249999, 6.4859548832891], "label": "P", "properties": {}}, {"species": [{"element": "P", "occu": 1}], "abc": [0.9972607, 0.40624008, 0.21441258], "xyz": [7.14995982476818, 6.36443211781416, 9.40575693231738], "label": "P", "properties": {}}, {"species": [{"element": "P", "occu": 1}], "abc": [0.50228363, 0.50558579, 0.32457779], "xyz": [3.60101324974554, 7.920849267719831, 14.23843600207019], "label": "P", "properties": {}}, {"species": [{"element": "P", "occu": 1}], "abc": [0.49446931, 0.90934709, 0.39534514], "xyz": [3.54477243126704, 14.24644713991993, 17.34282704500354], "label": "P", "properties": {}}, {"species": [{"element": "P", "occu": 1}], "abc": [0.99760549, 0.80297328, 0.29003158], "xyz": [7.152222033419229, 12.579923017390561, 12.722978027576382], "label": "P", "properties": {}}, {"species": [{"element": "P", "occu": 1}], "abc": [0.9916993, 0.20926011, 0.35667581], "xyz": [7.1101898180313094, 3.2784105523544698, 15.64649785239941], "label": "P", "properties": {}}, {"species": [{"element": "P", "occu": 1}], "abc": [0.48812604, 0.29431391, 0.46746764], "xyz": [3.4996177114242095, 4.61092096457707, 20.506665213226043], "label": "P", "properties": {}}, {"species": [{"element": "P", "occu": 1}], "abc": [0.01832418, 0.60893275, 0.43418781], "xyz": [0.13105885520195, 9.53995270897175, 19.04676024063141], "label": "P", "properties": {}}, {"species": [{"element": "S", "occu": 1}], "abc": [0.66420352, 0.27501061, 0.07193931], "xyz": [4.76207088013611, 4.30850239844297, 3.1558020697229106], "label": "S", "properties": {}}, {"species": [{"element": "S", "occu": 1}], "abc": [0.64692761, 0.89384655, 9.99999999999994e-05], "xyz": [4.6378784372672, 14.003605186414351, 0.004386756099999974], "label": "S", "properties": {}}, {"species": [{"element": "S", "occu": 1}], "abc": [0.16183486, 0.95638035, 0.11342007], "xyz": [1.15982008154575, 14.98330203259695, 4.97546183934927], "label": "S", "properties": {}}, {"species": [{"element": "S", "occu": 1}], "abc": [0.20821901, 0.55813087, 0.037774440000000006], "xyz": [1.49259652995292, 8.74405606401899, 1.6570725509408404], "label": "S", "properties": {}}, {"species": [{"element": "S", "occu": 1}], "abc": [0.31094016, 0.81428638, 0.04792376000000001], "xyz": [2.2289526657753798, 12.75716170095926, 2.1022984651493606], "label": "S", "properties": {}}, {"species": [{"element": "S", "occu": 1}], "abc": [0.85193783, 0.69374719, 0.05014254], "xyz": [6.10786964033794, 10.868713145387629, 2.19963093214494], "label": "S", "properties": {}}, {"species": [{"element": "S", "occu": 1}], "abc": [0.31659141, 0.02260068, 0.031039019999999997], "xyz": [2.26988988452943, 0.35407755354036, 1.36160610323022], "label": "S", "properties": {}}, {"species": [{"element": "S", "occu": 1}], "abc": [0.33956232, 0.40930727, 0.10019573999999999], "xyz": [2.43438249182497, 6.41248479284179, 4.395342736390139], "label": "S", "properties": {}}, {"species": [{"element": "S", "occu": 1}], "abc": [0.84994029, 0.50363977, 0.08581787], "xyz": [6.09364821490802, 7.89036160094429, 3.7646206471150703], "label": "S", "properties": {}}, {"species": [{"element": "S", "occu": 1}], "abc": [0.65856955, 0.93477511, 0.07531076], "xyz": [4.721327342100059, 14.64481971600947, 3.3036993582563605], "label": "S", "properties": {}}, {"species": [{"element": "S", "occu": 1}], "abc": [0.16049897, 0.65281928, 0.10694796], "xyz": [1.15040258119143, 10.22750879913256, 4.69154615912556], "label": "S", "properties": {}}, {"species": [{"element": "S", "occu": 1}], "abc": [0.65569604, 0.08077766, 0.2146188], "xyz": [4.70117657165046, 1.26551750803582, 9.4148033007468], "label": "S", "properties": {}}, {"species": [{"element": "S", "occu": 1}], "abc": [0.66077523, 0.68586452, 0.14095064999999998], "xyz": [4.737273333351371, 10.74521790060004, 6.18316123686465], "label": "S", "properties": {}}, {"species": [{"element": "S", "occu": 1}], "abc": [0.16649071, 0.75920604, 0.25512559], "xyz": [1.1933059699234898, 11.89423580512908, 11.191737381985991], "label": "S", "properties": {}}, {"species": [{"element": "S", "occu": 1}], "abc": [0.15705785, 0.35847363, 0.17908866999999998], "xyz": [1.12588609624748, 5.61609057422751, 7.856183155633869], "label": "S", "properties": {}}, {"species": [{"element": "S", "occu": 1}], "abc": [0.31348641, 0.20045863, 0.11661759000000001], "xyz": [2.24753352209888, 3.14052060807251, 5.115729242997991], "label": "S", "properties": {}}, {"species": [{"element": "S", "occu": 1}], "abc": [0.3382068, 0.59819287, 0.18757859], "xyz": [2.4245637437137697, 9.371694477992989, 8.228615239118989], "label": "S", "properties": {}}, {"species": [{"element": "S", "occu": 1}], "abc": [0.82397947, 0.09688838, 0.13056425], "xyz": [5.90772910974503, 1.5179189545132599, 5.72753520129425], "label": "S", "properties": {}}, {"species": [{"element": "S", "occu": 1}], "abc": [0.83676253, 0.50580332, 0.19821703999999998], "xyz": [5.99916496907567, 7.924257239967639, 8.69529809343944], "label": "S", "properties": {}}, {"species": [{"element": "S", "occu": 1}], "abc": [0.33467833, 0.81072417, 0.17401756999999998], "xyz": [2.39915283752302, 12.70135370748309, 7.633726367046769], "label": "S", "properties": {}}, {"species": [{"element": "S", "occu": 1}], "abc": [0.32711111, 0.21123555, 0.24349851], "xyz": [2.3452143995387, 3.3093591327673497, 10.68168574083411], "label": "S", "properties": {}}, {"species": [{"element": "S", "occu": 1}], "abc": [0.83212967, 0.90073528, 0.16349956], "xyz": [5.965739300947931, 14.11152869426456, 7.17232692177316], "label": "S", "properties": {}}, {"species": [{"element": "S", "occu": 1}], "abc": [0.82824821, 0.30985815, 0.23101859999999996], "xyz": [5.938222524819801, 4.85444755186755, 10.134222527634599], "label": "S", "properties": {}}, {"species": [{"element": "S", "occu": 1}], "abc": [0.67038145, 0.72426286, 0.21739899], "xyz": [4.80612784087881, 11.34679229071622, 9.53676345516339], "label": "S", "properties": {}}, {"species": [{"element": "S", "occu": 1}], "abc": [0.65487311, 0.32341708, 0.14723718], "xyz": [4.69514795953933, 5.06687092864316, 6.4589359751179805], "label": "S", "properties": {}}, {"species": [{"element": "S", "occu": 1}], "abc": [0.15271565, 0.05002444, 0.18274836], "xyz": [1.09491649517599, 0.7837167435858801, 8.016724829949961], "label": "S", "properties": {}}, {"species": [{"element": "S", "occu": 1}], "abc": [0.16669984, 0.4500964, 0.24923653], "xyz": [1.1949689123339997, 7.0515149176628, 10.93339868320333], "label": "S", "properties": {}}, {"species": [{"element": "S", "occu": 1}], "abc": [0.65488054, 0.88697371, 0.35704762], "xyz": [4.69490310980751, 13.89593062206167, 15.662808250254821], "label": "S", "properties": {}}, {"species": [{"element": "S", "occu": 1}], "abc": [0.67069094, 0.48567937, 0.28704198999999997], "xyz": [4.808473037589369, 7.60898181535349, 12.591832005886388], "label": "S", "properties": {}}, {"species": [{"element": "S", "occu": 1}], "abc": [0.16136525, 0.55756747, 0.3974115], "xyz": [1.1566640367371197, 8.735229458197189, 17.433473218351498], "label": "S", "properties": {}}, {"species": [{"element": "S", "occu": 1}], "abc": [0.15279643, 0.16034439, 0.32173366], "xyz": [1.0954373135781401, 2.5120637668920303, 14.11367095580326], "label": "S", "properties": {}}, {"species": [{"element": "S", "occu": 1}], "abc": [0.32626506, 0.99933266, 0.26086466999999997], "xyz": [2.3387314741867598, 15.65622199977082, 11.44349682396987], "label": "S", "properties": {}}, {"species": [{"element": "S", "occu": 1}], "abc": [0.33492717, 0.39951252, 0.33046967], "xyz": [2.40115450525047, 6.25903360829604, 14.49689840737487], "label": "S", "properties": {}}, {"species": [{"element": "S", "occu": 1}], "abc": [0.82741797, 0.89903406, 0.27351311], "xyz": [5.93195818355781, 14.084876230018619, 11.99835303722471], "label": "S", "properties": {}}, {"species": [{"element": "S", "occu": 1}], "abc": [0.83253299, 0.30960877, 0.34109376999999996], "xyz": [5.96894373665752, 4.850540595957289, 14.962951762194969], "label": "S", "properties": {}}, {"species": [{"element": "S", "occu": 1}], "abc": [0.33892475, 0.611883, 0.31684137], "xyz": [2.42970407031425, 9.586173322791, 13.899058125798572], "label": "S", "properties": {}}, {"species": [{"element": "S", "occu": 1}], "abc": [0.31383727, 0.01012823, 0.38771311999999997], "xyz": [2.25014980817138, 0.15867570799171, 17.00802894210032], "label": "S", "properties": {}}, {"species": [{"element": "S", "occu": 1}], "abc": [0.83807246, 0.70324658, 0.30637887999999996], "xyz": [6.00845247735408, 11.01753702021466, 13.44009420751168], "label": "S", "properties": {}}, {"species": [{"element": "S", "occu": 1}], "abc": [0.8241147, 0.11310284, 0.37383745], "xyz": [5.90869010637814, 1.77194566206268, 16.399337141959453], "label": "S", "properties": {}}, {"species": [{"element": "S", "occu": 1}], "abc": [0.66140786, 0.5244173, 0.36349749], "xyz": [4.7418945789941995, 8.2158764523121, 15.94574831592189], "label": "S", "properties": {}}, {"species": [{"element": "S", "occu": 1}], "abc": [0.65541374, 0.12912876, 0.28981826], "xyz": [4.6991269551440595, 2.02301857433052, 12.713620199463861], "label": "S", "properties": {}}, {"species": [{"element": "S", "occu": 1}], "abc": [0.15806969, 0.85123749, 0.3251951], "xyz": [1.13288012977514, 13.336062806120731, 14.265515886151102], "label": "S", "properties": {}}, {"species": [{"element": "S", "occu": 1}], "abc": [0.16180488, 0.25335542, 0.39121], "xyz": [1.1599770306800201, 3.9692375313393398, 17.16142853881], "label": "S", "properties": {}}, {"species": [{"element": "S", "occu": 1}], "abc": [0.65856606, 0.27612862, 0.42899333], "xyz": [4.72165074343892, 4.3260178999957395, 18.81889107236813], "label": "S", "properties": {}}, {"species": [{"element": "S", "occu": 1}], "abc": [0.34006761, 0.80151112, 0.40428281], "xyz": [2.43779785180967, 12.55701582894824, 17.73490082892641], "label": "S", "properties": {}}, {"species": [{"element": "S", "occu": 1}], "abc": [0.31730462, 0.18782233, 0.47323133999999994], "xyz": [2.27491606603273, 2.94255177749741, 20.75950467456174], "label": "S", "properties": {}}, {"species": [{"element": "S", "occu": 1}], "abc": [0.85085544, 0.70702748, 0.41844538], "xyz": [6.10010207900668, 11.076771159283961, 18.35617823231818], "label": "S", "properties": {}}, {"species": [{"element": "S", "occu": 1}], "abc": [0.31113923, 0.3963095, 0.45665378], "xyz": [2.23060107061695, 6.2088529285315, 20.03228755003058], "label": "S", "properties": {}}, {"species": [{"element": "S", "occu": 1}], "abc": [0.85202201, 0.51684724, 0.45411118], "xyz": [6.10856677543819, 8.09727876742148, 19.92074988943198], "label": "S", "properties": {}}, {"species": [{"element": "S", "occu": 1}], "abc": [0.6474731, 0.31651799, 0.50425699], "xyz": [4.64209490645979, 4.95878511401923, 22.12052426850139], "label": "S", "properties": {}}, {"species": [{"element": "S", "occu": 1}], "abc": [0.66536642, 0.93593177, 0.43230519], "xyz": [4.77005903070597, 14.662940734628291, 18.964174292941593], "label": "S", "properties": {}}, {"species": [{"element": "S", "occu": 1}], "abc": [0.20821405, 0.652391, 0.46657676], "xyz": [1.4925111040617502, 10.220799074707001, 20.46758448048236], "label": "S", "properties": {}}]}, "formula": "", "bandgap": 2.2665, "slab_thickness": 22.11613751240139}