{"miller": "210_0.10", "final_energy": -423.99621868, "gamma": 0.017855829758232564, "work_function": "Not calculated", "ionization_potentail": "Not calculated", "electron_affinity": "Not calculated", "is_stochiometric": true, "incar_parameters": {"SYSTEM": "unknown system", "LCOMPAT": false, "PREC": "normal", "ENMAX": 520.0, "ENAUG": 368.056, "EDIFF": 1e-05, "IALGO": 38, "IWAVPR": 11, "NBANDS": 390, "NBANDSLOW": -1, "NBANDSHIGH": -1, "NELECT": 650.0, "TURBO": 0, "IRESTART": 0, "NREBOOT": 0, "NMIN": 0, "EREF": 0.0, "ISMEAR": 0, "SIGMA": 0.05, "KSPACING": 0.5, "KGAMMA": true, "KBLOWUP": true, "LREAL": true, "ROPT": [-0.0005, -0.0005, -0.0005], "LMAXPAW": -100, "LMAXMIX": 2, "NLSPLINE": false, "ISTART": 0, "ICHARG": 2, "INIWAV": 1, "ISPIN": 1, "LNONCOLLINEAR": false, "MAGMOM": [0.6, 0.6, 0.6, 0.6, 0.6, 0.6, 0.6, 0.6, 0.6, 0.6, 0.6, 0.6, 0.6, 0.6, 0.6, 0.6, 0.6, 0.6, 0.6, 0.6, 0.6, 0.6, 0.6, 0.6, 0.6, 0.6, 0.6, 0.6, 0.6, 0.6, 0.6, 0.6, 0.6, 0.6, 0.6, 0.6, 0.6, 0.6, 0.6, 0.6, 0.6, 0.6, 0.6, 0.6, 0.6, 0.6, 0.6, 0.6, 0.6, 0.6, 0.6, 0.6, 0.6, 0.6, 0.6, 0.6, 0.6, 0.6, 0.6, 0.6, 0.6, 0.6, 0.6, 0.6, 0.6, 0.6, 0.6, 0.6, 0.6, 0.6, 0.6, 0.6, 0.6, 0.6, 0.6, 0.6, 0.6, 0.6, 0.6, 0.6, 0.6, 0.6, 0.6, 0.6, 0.6, 0.6, 0.6, 0.6, 0.6, 0.6, 0.6, 0.6, 0.6, 0.6, 0.6, 0.6, 0.6, 0.6, 0.6, 0.6, 0.6, 0.6, 0.6, 0.6], "NUPDOWN": -1.0, "LSORBIT": false, "SAXIS": [0.0, 0.0, 1.0], "LSPIRAL": false, "QSPIRAL": [0.0, 0.0, 0.0], "LZEROZ": false, "LASPH": false, "LMETAGGA": false, "NELM": 100, "NELMDL": -5, "NELMIN": 6, "ENINI": 520.0, "LDIAG": true, "LSUBROT": false, "WEIMIN": 0.001, "EBREAK": 1e-08, "DEPER": 0.3, "NRMM": 4, "TIME": 0.4, "AMIX": 0.4, "BMIX": 1.0, "AMIN": 0.1, "AMIX_MAG": 1.6, "BMIX_MAG": 1.0, "IMIX": 4, "MIXFIRST": false, "MAXMIX": -45, "WC": 100.0, "INIMIX": 1, "MIXPRE": 1, "MREMOVE": 5, "LDIPOL": false, "LMONO": false, "IDIPOL": 0, "EPSILON": 1.0, "DIPOL": [-100.0, -100.0, -100.0], "EFIELD": 0.0, "NGX": 40, "NGY": 90, "NGZ": 250, "NGXF": 80, "NGYF": 180, "NGZF": 500, "ADDGRID": false, "NSW": 150, "IBRION": 2, "MDALGO": 0, "ISIF": 2, "PSTRESS": 0.0, "EDIFFG": -0.01, "NFREE": 1, "POTIM": 0.5, "SMASS": -3.0, "SCALEE": 1.0, "TEBEG": 0.0001, "TEEND": 0.0001, "NBLOCK": 1, "KBLOCK": 150, "NPACO": 256, "APACO": 10.0, "ISYM": 0, "SYMPREC": 1e-05, "LORBIT": 11, "RWIGS": [-1.0, -1.0, -1.0], "NEDOS": 301, "EMIN": 10.0, "EMAX": -10.0, "EFERMI": 0.0, "NWRITE": 2, "LWAVE": false, "LDOWNSAMPLE": false, "LCHARG": false, "LPARD": false, "LVTOT": false, "LVHAR": false, "LELF": false, "LOPTICS": false, "STM": [0.0, 0.0, 0.0, 0.0, 0.0, 0.0, 0.0], "NPAR": 1, "NSIM": 4, "NBLK": -1, "LPLANE": true, "LSCALAPACK": true, "LSCAAWARE": false, "LSCALU": false, "LASYNC": false, "LORBITALREAL": false, "IDIOT": 3, "PHON_NSTRUCT": -1, "LMUSIC": false, "POMASS": [22.99, 30.974, 32.066], "DARWINR": [0.0, 0.0, 0.0], "DARWINV": [1.0, 1.0, 1.0], "LCORR": true, "GGA_COMPAT": true, "LBERRY": false, "ICORELEVEL": 0, "LDAU": false, "I_CONSTRAINED_M": 0, "GGA": "--", "VOSKOWN": 0, "LHFCALC": false, "PRECFOCK": "", "LSYMGRAD": false, "LHFONE": false, "LRHFCALC": false, "LTHOMAS": false, "LMODELHF": false, "LFOCKACE": false, "ENCUT4O": -1.0, "EXXOEP": 0, "FOURORBIT": 0, "AEXX": 0.0, "HFALPHA": 0.0, "MCALPHA": 0.0, "ALDAX": 1.0, "AGGAX": 1.0, "ALDAC": 1.0, "AGGAC": 1.0, "NKREDX": 1, "NKREDY": 1, "NKREDZ": 1, "SHIFTRED": false, "ODDONLY": false, "EVENONLY": false, "LMAXFOCK": 0, "NMAXFOCKAE": 0, "LFOCKAEDFT": false, "HFSCREEN": 0.0, "HFSCREENC": 0.0, "NBANDSGWLOW": 0, "LUSE_VDW": false, "Zab_VDW": -0.8491, "PARAM1": 0.1234, "PARAM2": 1.0, "PARAM3": 0.0, "MODEL_GW": 0, "MODEL_EPS0": 28.42799558, "MODEL_ALPHA": 1.0, "LEPSILON": false, "LRPA": false, "LNABLA": false, "LVEL": false, "CSHIFT": 0.1, "OMEGAMAX": -1.0, "DEG_THRESHOLD": 0.002, "RTIME": -0.1, "WPLASMAI": 0.0, "DFIELD": [0.0, 0.0, 0.0], "WPLASMA": [0.0, 0.0, 0.0, 0.0, 0.0, 0.0, 0.0, 0.0, 0.0], "NUCIND": false, "MAGPOS": [0.0, 0.0, 0.0], "LNICSALL": true, "ORBITALMAG": false, "LMAGBLOCH": false, "LCHIMAG": false, "LGAUGE": true, "MAGATOM": 0, "MAGDIPOL": [0.0, 0.0, 0.0], "AVECCONST": [0.0, 0.0, 0.0], "LFINITE_TEMPERATURE": false, "LADDER": false, "LRPAFORCE": false, "LFXC": false, "LHARTREE": true, "IBSE": 0, "KPOINT": [-1, 0, 0, 0], "LTCTC": false, "LTCTE": false, "LTETE": false, "LTRIPLET": false, "LFXCEPS": false, "LFXHEG": false, "NATURALO": 2, "LHOLEGF": false, "L2ORDER": false, "LDMP1": false, "LMP2LT": false, "LSMP2LT": false, "LGWLF": false, "ENCUTGW": -2.0, "ENCUTGWSOFT": -2.0, "ENCUTLF": -1.0, "LESF_SPLINES": false, "LMAXMP2": -1, "SCISSOR": 0.0, "NOMEGA": 0, "NOMEGAR": 0, "NBANDSGW": -1, "NBANDSO": -1, "NBANDSV": -1, "NELMGW": 1, "NELMHF": 1, "DIM": 3, "IESPILON": 4, "ANTIRES": 0, "OMEGAMIN": -30.0, "OMEGATL": -200.0, "OMEGAGRID": 0, "LSELFENERGY": false, "LSPECTRAL": false, "LSPECTRALGW": false, "LSINGLES": false, "LFERMIGW": false, "ODDONLYGW": false, "EVENONLYGW": false, "NKREDLFX": 1, "NKREDLFY": 1, "NKREDLFZ": 1, "MAXMEM": 2800, "TELESCOPE": 0, "NTAUPAR": -1, "NOMEGAPAR": -1, "DAMP_NEWTON": 0.80000001, "LAMBDA": 1.0, "OFIELD_KAPPA": 0.0, "OFIELD_K": [0.0, 0.0, 0.0], "OFIELD_Q6_NEAR": 0.0, "OFIELD_Q6_FAR": 0.0, "OFIELD_A": 0.0, "KPOINTS_OPT_MODE": 1, "LKPOINTS_OPT": false, "@module": "pymatgen.io.vasp.inputs", "@class": "Incar"}, "relaxed_structures": {"@module": "pymatgen.core.structure", "@class": "Structure", "charge": 0, "lattice": {"matrix": [[7.169815, 0.0, 0.0], [-0.000529, 15.666677, 0.0], [0.0, 0.0, 43.867561]], "a": 7.169815, "b": 15.66667700893109, "c": 43.867561, "alpha": 90.0, "beta": 90.0, "gamma": 90.00193464557613, "volume": 4927.519234379436}, "sites": [{"species": [{"element": "Na", "occu": 1}], "abc": [0.54735498, 0.11699114, 0.07503299], "xyz": [3.9243720576156402, 1.8328624022417799, 3.2915142658373897], "label": "Na", "properties": {}}, {"species": [{"element": "Na", "occu": 1}], "abc": [0.07886101, 0.10995269, 0.07888286], "xyz": [0.5653606874401399, 1.72259327951113, 3.4603986729044602], "label": "Na", "properties": {}}, {"species": [{"element": "Na", "occu": 1}], "abc": [0.13807554, 0.72154065, 0.007421790000000001], "xyz": [0.98959438282125, 11.30414430592005, 0.32557582555419007], "label": "Na", "properties": {}}, {"species": [{"element": "Na", "occu": 1}], "abc": [0.97820028, 0.92786967, 0.03439177], "xyz": [7.01302419749277, 14.53663441798659, 1.5086830683729702], "label": "Na", "properties": {}}, {"species": [{"element": "Na", "occu": 1}], "abc": [0.98580495, 0.3388968, 0.10722201999999999], "xyz": [7.067859841177049, 5.3093867019336, 4.703568502893219], "label": "Na", "properties": {}}, {"species": [{"element": "Na", "occu": 1}], "abc": [0.48933592, 0.66676805, 0.06833768], "xyz": [3.50809529895635, 10.44603967326985, 2.99780734599848], "label": "Na", "properties": {}}, {"species": [{"element": "Na", "occu": 1}], "abc": [0.54884469, 0.44963707, 0.04921296], "xyz": [3.93487703302232, 7.04431874291639, 2.15885252479056], "label": "Na", "properties": {}}, {"species": [{"element": "Na", "occu": 1}], "abc": [0.4106282, 0.83048776, 0.11063711999999999], "xyz": [2.94368889975796, 13.01098348837352, 4.85338061046432], "label": "Na", "properties": {}}, {"species": [{"element": "Na", "occu": 1}], "abc": [0.91214788, 0.82001073, 0.10402644], "xyz": [6.53949776656603, 12.84684324344421, 4.56338620231284], "label": "Na", "properties": {}}, {"species": [{"element": "Na", "occu": 1}], "abc": [0.58042693, 0.91520055, 0.21857119], "xyz": [4.161069568027, 14.33815140707235, 9.58818501016759], "label": "Na", "properties": {}}, {"species": [{"element": "Na", "occu": 1}], "abc": [0.59344537, 0.52128224, 0.1394271], "xyz": [4.254617757201589, 8.16676047991648, 6.1163268143031], "label": "Na", "properties": {}}, {"species": [{"element": "Na", "occu": 1}], "abc": [0.0780807, 0.91643116, 0.21747141], "xyz": [0.55933938198686, 14.357430976455321, 9.539940343931011], "label": "Na", "properties": {}}, {"species": [{"element": "Na", "occu": 1}], "abc": [0.09565473, 0.52338039, 0.14332496], "xyz": [0.68554984974864, 8.199631518264031, 6.28731642562256], "label": "Na", "properties": {}}, {"species": [{"element": "Na", "occu": 1}], "abc": [0.9987381, 0.72087781, 0.17725497], "xyz": [7.160386066090009, 11.29375980573737, 7.775743209028171], "label": "Na", "properties": {}}, {"species": [{"element": "Na", "occu": 1}], "abc": [0.99243279, 0.1186233, 0.25144879000000003], "xyz": [7.115496752508149, 1.8584329257741, 11.030445133701193], "label": "Na", "properties": {}}, {"species": [{"element": "Na", "occu": 1}], "abc": [0.49547482, 0.01453064, 0.14920421], "xyz": [3.55245510984974, 0.22764684348328, 6.54522478363181], "label": "Na", "properties": {}}, {"species": [{"element": "Na", "occu": 1}], "abc": [0.49750619, 0.42375673, 0.21019958], "xyz": [3.56680317634468, 6.63885981548621, 9.220942897824381], "label": "Na", "properties": {}}, {"species": [{"element": "Na", "occu": 1}], "abc": [0.40600136, 0.21714769, 0.17983689], "xyz": [2.91083976982039, 3.40198272052613, 7.88900574212529], "label": "Na", "properties": {}}, {"species": [{"element": "Na", "occu": 1}], "abc": [0.41853827, 0.61960668, 0.25138196], "xyz": [3.00051419438633, 9.70717772260236, 11.027513464599561], "label": "Na", "properties": {}}, {"species": [{"element": "Na", "occu": 1}], "abc": [0.91081868, 0.21909179, 0.17925542], "xyz": [6.53028553458729, 3.43244030728183, 7.86349807143062], "label": "Na", "properties": {}}, {"species": [{"element": "Na", "occu": 1}], "abc": [0.91951762, 0.61963302, 0.25135266], "xyz": [6.59244343877272, 9.707590382874539, 11.02622814506226], "label": "Na", "properties": {}}, {"species": [{"element": "Na", "occu": 1}], "abc": [0.59442344, 0.71675046, 0.36299257], "xyz": [4.26152693547026, 11.229097946421419, 15.923598707021771], "label": "Na", "properties": {}}, {"species": [{"element": "Na", "occu": 1}], "abc": [0.5806854, 0.32345973, 0.28391444], "xyz": [4.16323578100383, 5.06753911241721, 12.45463401548084], "label": "Na", "properties": {}}, {"species": [{"element": "Na", "occu": 1}], "abc": [0.09585263, 0.71485264, 0.35903214], "xyz": [0.68686746731689, 11.199365413477281, 15.749864302410542], "label": "Na", "properties": {}}, {"species": [{"element": "Na", "occu": 1}], "abc": [0.07807511, 0.32193535, 0.28499533], "xyz": [0.5596137910044999, 5.04365714333195, 12.50205002349013], "label": "Na", "properties": {}}, {"species": [{"element": "Na", "occu": 1}], "abc": [0.99924119, 0.51604601, 0.3253267], "xyz": [7.164101484340559, 8.08472615580877, 14.271288857178702], "label": "Na", "properties": {}}, {"species": [{"element": "Na", "occu": 1}], "abc": [0.98656575, 0.89844473, 0.39576673], "xyz": [7.07301863557408, 14.075643387262211, 17.36132117004553], "label": "Na", "properties": {}}, {"species": [{"element": "Na", "occu": 1}], "abc": [0.49791755, 0.81680891, 0.29241493], "xyz": [3.5695446268398596, 12.79668136369207, 12.827529779085731], "label": "Na", "properties": {}}, {"species": [{"element": "Na", "occu": 1}], "abc": [0.49599075, 0.22460419, 0.3532676], "xyz": [3.5560431035947397, 3.5188012975766303, 15.496987992323602], "label": "Na", "properties": {}}, {"species": [{"element": "Na", "occu": 1}], "abc": [0.40577531, 0.02182672, 0.32311304], "xyz": [2.9093223579327696, 0.34195217220944, 14.174180992095442], "label": "Na", "properties": {}}, {"species": [{"element": "Na", "occu": 1}], "abc": [0.41102892, 0.40748665, 0.39212379], "xyz": [2.9467857556119497, 6.38396172736205, 17.20151427737619], "label": "Na", "properties": {}}, {"species": [{"element": "Na", "occu": 1}], "abc": [0.91107505, 0.01951493, 0.32357096], "xyz": [6.53222923621778, 0.30573410498761, 14.194268825628562], "label": "Na", "properties": {}}, {"species": [{"element": "Na", "occu": 1}], "abc": [0.91270052, 0.41797005, 0.39860771], "xyz": [6.5436727726473505, 6.54820176902385, 17.485948033495312], "label": "Na", "properties": {}}, {"species": [{"element": "Na", "occu": 1}], "abc": [0.54618865, 0.12102494, 0.42752414], "xyz": [3.91600755340649, 1.89605864392438, 18.75444129042254], "label": "Na", "properties": {}}, {"species": [{"element": "Na", "occu": 1}], "abc": [0.13880382, 0.51655967, 0.49516722999999996], "xyz": [0.9949244506278699, 8.092773501116591, 21.72177866722603], "label": "Na", "properties": {}}, {"species": [{"element": "Na", "occu": 1}], "abc": [0.07722515, 0.12806659, 0.42395544], "xyz": [0.55362229162114, 2.00637790002143, 18.59789112548184], "label": "Na", "properties": {}}, {"species": [{"element": "Na", "occu": 1}], "abc": [0.97937077, 0.31060049, 0.46833747000000003], "xyz": [7.021742929648339, 4.86607755287173, 20.544822533810674], "label": "Na", "properties": {}}, {"species": [{"element": "Na", "occu": 1}], "abc": [0.49087383, 0.57156835, 0.43417092], "xyz": [3.5191721897843, 8.954576722872948, 19.04601931752612], "label": "Na", "properties": {}}, {"species": [{"element": "Na", "occu": 1}], "abc": [0.54912001, 0.78835582, 0.45343798], "xyz": [3.93667184426937, 12.35091599301014, 19.891218247366783], "label": "Na", "properties": {}}, {"species": [{"element": "P", "occu": 1}], "abc": [0.48746345, 0.92966102, 0.03684748], "xyz": [3.4945309650821703, 14.564698919830539, 1.6164090765962802], "label": "P", "properties": {}}, {"species": [{"element": "P", "occu": 1}], "abc": [0.49340646, 0.31500772, 0.10835358999999999], "xyz": [3.5374663989210196, 4.93512420174644, 4.753207718893989], "label": "P", "properties": {}}, {"species": [{"element": "P", "occu": 1}], "abc": [0.01652043, 0.61500284, 0.06936126], "xyz": [0.11812309031809, 9.635050848362681, 3.04270930408686], "label": "P", "properties": {}}, {"species": [{"element": "P", "occu": 1}], "abc": [0.5020453, 0.71834709, 0.17902861], "xyz": [3.59919191700889, 11.254111832919929, 7.85354846992021], "label": "P", "properties": {}}, {"species": [{"element": "P", "occu": 1}], "abc": [0.49085885, 0.11935982, 0.25142970000000003], "xyz": [3.5193040042679704, 1.86997174671814, 11.029607701961702], "label": "P", "properties": {}}, {"species": [{"element": "P", "occu": 1}], "abc": [0.99147694, 0.01506285, 0.14699338], "xyz": [7.10869826831845, 0.23598480564944999, 6.44824106374618], "label": "P", "properties": {}}, {"species": [{"element": "P", "occu": 1}], "abc": [0.99750338, 0.42122136, 0.21351825000000002], "xyz": [7.151691870375259, 6.59913899262072, 9.366524856488251], "label": "P", "properties": {}}, {"species": [{"element": "P", "occu": 1}], "abc": [0.50251773, 0.51927893, 0.32351117], "xyz": [3.60268445976598, 8.13537526921561, 14.191645984156372], "label": "P", "properties": {}}, {"species": [{"element": "P", "occu": 1}], "abc": [0.49370278, 0.9227074, 0.39433256], "xyz": [3.5392694853710998, 14.455758801309798, 17.29840763008616], "label": "P", "properties": {}}, {"species": [{"element": "P", "occu": 1}], "abc": [0.99819391, 0.81837621, 0.28901403000000003], "xyz": [7.15643274781156, 12.821235746554171, 12.678340590880833], "label": "P", "properties": {}}, {"species": [{"element": "P", "occu": 1}], "abc": [0.99195471, 0.22316269, 0.35570722], "xyz": [7.112013706015641, 3.49621778268113, 15.60400817149042], "label": "P", "properties": {}}, {"species": [{"element": "P", "occu": 1}], "abc": [0.4886071, 0.30820685, 0.46602488000000003], "xyz": [3.50305947326285, 4.82857716813745, 20.44337485091768], "label": "P", "properties": {}}, {"species": [{"element": "P", "occu": 1}], "abc": [0.01815699, 0.62316493, 0.43312983], "xyz": [0.12985260500888002, 9.762923676037609, 19.00034923844463], "label": "P", "properties": {}}, {"species": [{"element": "S", "occu": 1}], "abc": [0.6639164, 0.28850686, 0.07139261], "xyz": [4.760005143337059, 4.51994378790422, 3.13181967412421], "label": "S", "properties": {}}, {"species": [{"element": "S", "occu": 1}], "abc": [0.64691756, 0.90688344, 9.99999999999994e-05], "xyz": [4.63779948411164, 14.20784993112888, 0.004386756099999974], "label": "S", "properties": {}}, {"species": [{"element": "S", "occu": 1}], "abc": [0.16097724, 0.97053521, 0.11244991], "xyz": [1.15366361688451, 15.20506165219717, 4.93290328636951], "label": "S", "properties": {}}, {"species": [{"element": "S", "occu": 1}], "abc": [0.20662604, 0.57163097, 0.03698456], "xyz": [1.48116808819947, 8.95555777018669, 1.62242244185816], "label": "S", "properties": {}}, {"species": [{"element": "S", "occu": 1}], "abc": [0.31286629, 0.21418385, 0.116053], "xyz": [2.2430801157797, 3.35554919656645, 5.090962056733001], "label": "S", "properties": {}}, {"species": [{"element": "S", "occu": 1}], "abc": [0.30940281, 0.82816509, 0.04770499], "xyz": [2.21792280884754, 12.974594967705931, 2.0927015588293902], "label": "S", "properties": {}}, {"species": [{"element": "S", "occu": 1}], "abc": [0.85063994, 0.70711696, 0.04939507], "xyz": [6.09855693653926, 11.078173013541921, 2.16684124632427], "label": "S", "properties": {}}, {"species": [{"element": "S", "occu": 1}], "abc": [0.31739844, 0.03629669, 0.03077226], "xyz": [2.27566889513959, 0.56864851839913, 1.34990399265786], "label": "S", "properties": {}}, {"species": [{"element": "S", "occu": 1}], "abc": [0.33865686, 0.42271171, 0.09941424], "xyz": [2.42788342018631, 6.622487824687671, 4.3610602374686405], "label": "S", "properties": {}}, {"species": [{"element": "S", "occu": 1}], "abc": [0.84891275, 0.51686546, 0.08503037], "xyz": [6.086273946812909, 8.09756421427642, 3.73007494282757], "label": "S", "properties": {}}, {"species": [{"element": "S", "occu": 1}], "abc": [0.65776237, 0.94802861, 0.07528881], "xyz": [4.715532999726861, 14.85245801962897, 3.30273646529241], "label": "S", "properties": {}}, {"species": [{"element": "S", "occu": 1}], "abc": [0.15936676, 0.66623386, 0.10621151999999999], "xyz": [1.14227774863746, 10.43767069108322, 4.65924033250272], "label": "S", "properties": {}}, {"species": [{"element": "S", "occu": 1}], "abc": [0.65631917, 0.09538081, 0.2137955], "xyz": [4.705636573405059, 1.4943003422683698, 9.3786871377755], "label": "S", "properties": {}}, {"species": [{"element": "S", "occu": 1}], "abc": [0.66054884, 0.69949627, 0.14000492], "xyz": [4.7356429477377695, 10.95878212479479, 6.14167436840012], "label": "S", "properties": {}}, {"species": [{"element": "S", "occu": 1}], "abc": [0.168245, 0.77439904, 0.2543054], "xyz": [1.20587586758284, 12.13225962879008, 11.155757647129402], "label": "S", "properties": {}}, {"species": [{"element": "S", "occu": 1}], "abc": [0.15735416, 0.37311618, 0.17827451], "xyz": [1.12800283822118, 5.845490675533861, 7.820467942170111], "label": "S", "properties": {}}, {"species": [{"element": "S", "occu": 1}], "abc": [0.32843158, 0.01321642, 0.26016174000000003], "xyz": [2.3547866772715196, 0.20705738323634, 11.412660999316142], "label": "S", "properties": {}}, {"species": [{"element": "S", "occu": 1}], "abc": [0.33890504, 0.61205526, 0.18692144000000002], "xyz": [2.42956266213506, 9.588872064571019, 8.199787671407842], "label": "S", "properties": {}}, {"species": [{"element": "S", "occu": 1}], "abc": [0.82396375, 0.11123143, 0.12981768000000002], "xyz": [5.90760881277978, 1.74262688605811, 5.694784996278481], "label": "S", "properties": {}}, {"species": [{"element": "S", "occu": 1}], "abc": [0.8371438, 0.52083474, 0.19731927000000002], "xyz": [6.00189065281954, 8.15974964195898, 8.655915113200471], "label": "S", "properties": {}}, {"species": [{"element": "S", "occu": 1}], "abc": [0.33414305, 0.82425825, 0.17314244], "xyz": [2.3953078194215, 12.91338776733525, 7.595336548388841], "label": "S", "properties": {}}, {"species": [{"element": "S", "occu": 1}], "abc": [0.32708642, 0.22507877, 0.24263483000000002], "xyz": [2.34503005374297, 3.5262363891472903, 10.643798205749631], "label": "S", "properties": {}}, {"species": [{"element": "S", "occu": 1}], "abc": [0.83243803, 0.91472529, 0.16270020000000002], "xyz": [5.96794278438604, 14.33070566216133, 7.137260948212201], "label": "S", "properties": {}}, {"species": [{"element": "S", "occu": 1}], "abc": [0.82821685, 0.32489942, 0.23009985], "xyz": [5.93798972258957, 5.09009427062734, 10.09391920596585], "label": "S", "properties": {}}, {"species": [{"element": "S", "occu": 1}], "abc": [0.6711825, 0.73870035, 0.21642673], "xyz": [4.81186358375235, 11.57297978323695, 9.494112780305532], "label": "S", "properties": {}}, {"species": [{"element": "S", "occu": 1}], "abc": [0.6538534, 0.3373149, 0.1466595], "xyz": [4.6878294755389005, 5.284603585587299, 6.433594562479501], "label": "S", "properties": {}}, {"species": [{"element": "S", "occu": 1}], "abc": [0.15293892, 0.06407679, 0.1819021], "xyz": [1.09650986607789, 1.0038703721268298, 7.9796014677781], "label": "S", "properties": {}}, {"species": [{"element": "S", "occu": 1}], "abc": [0.1669585, 0.46501366, 0.24834956000000002], "xyz": [1.1968155654513601, 7.28521881180782, 10.894489472623162], "label": "S", "properties": {}}, {"species": [{"element": "S", "occu": 1}], "abc": [0.65492232, 0.90132949, 0.35606045000000003], "xyz": [4.695195070470589, 14.120837990404729, 15.619503510062453], "label": "S", "properties": {}}, {"species": [{"element": "S", "occu": 1}], "abc": [0.67180544, 0.49974772, 0.28605582], "xyz": [4.81645635424972, 7.82938611072644, 12.548571133255022], "label": "S", "properties": {}}, {"species": [{"element": "S", "occu": 1}], "abc": [0.16081397, 0.57215736, 0.39624518000000003], "xyz": [1.15270374307211, 8.96380455229272, 17.382309604605982], "label": "S", "properties": {}}, {"species": [{"element": "S", "occu": 1}], "abc": [0.15342035, 0.1744305, 0.32078437], "xyz": [1.0999032530007502, 2.7327463024484997, 14.07202791882157], "label": "S", "properties": {}}, {"species": [{"element": "S", "occu": 1}], "abc": [0.34071526, 0.81428374, 0.40297452], "xyz": [2.44243462577844, 12.75712034093198, 17.67750933754572], "label": "S", "properties": {}}, {"species": [{"element": "S", "occu": 1}], "abc": [0.33569624, 0.41298013, 0.32944335], "xyz": [2.4066614705068297, 6.47002630412801, 14.451876252169352], "label": "S", "properties": {}}, {"species": [{"element": "S", "occu": 1}], "abc": [0.82954698, 0.91482863, 0.27238018], "xyz": [5.94721443606343, 14.33232465656251, 11.948654161340981], "label": "S", "properties": {}}, {"species": [{"element": "S", "occu": 1}], "abc": [0.83344815, 0.32372963, 0.34007196], "xyz": [5.97549779461798, 5.07176754853951, 14.91812744968956], "label": "S", "properties": {}}, {"species": [{"element": "S", "occu": 1}], "abc": [0.33831946, 0.62524165, 0.31574047], "xyz": [2.42535718626705, 9.79545897749705, 13.850764327893671], "label": "S", "properties": {}}, {"species": [{"element": "S", "occu": 1}], "abc": [0.31175681, 0.02308653, 0.38685235], "xyz": [2.2352264399157797, 0.36168920856081, 16.97026906161835], "label": "S", "properties": {}}, {"species": [{"element": "S", "occu": 1}], "abc": [0.83636724, 0.71909251, 0.30508445], "xyz": [5.9962179829228095, 11.26579008728927, 13.38331072052645], "label": "S", "properties": {}}, {"species": [{"element": "S", "occu": 1}], "abc": [0.82368315, 0.12714051, 0.37275167000000003], "xyz": [5.9055885467874605, 1.9918693037852702, 16.351706621576874], "label": "S", "properties": {}}, {"species": [{"element": "S", "occu": 1}], "abc": [0.66109568, 0.53843276, 0.36250742], "xyz": [4.73964889196916, 8.435452137138519, 15.902316359802622], "label": "S", "properties": {}}, {"species": [{"element": "S", "occu": 1}], "abc": [0.65625592, 0.14378048, 0.2890314], "xyz": [4.70515747918088, 2.25256233906496, 12.6791025704154], "label": "S", "properties": {}}, {"species": [{"element": "S", "occu": 1}], "abc": [0.15777352, 0.86584059, 0.32437972], "xyz": [1.13074892062669, 13.56484485701943, 14.22974715426292], "label": "S", "properties": {}}, {"species": [{"element": "S", "occu": 1}], "abc": [0.1616885, 0.26706909, 0.39033169], "xyz": [1.1591353530788902, 4.1840851697139305, 17.122899221308092], "label": "S", "properties": {}}, {"species": [{"element": "S", "occu": 1}], "abc": [0.65913844, 0.28957052, 0.42758135], "xyz": [4.725747491383521, 4.53660780556204, 18.756950953587353], "label": "S", "properties": {}}, {"species": [{"element": "S", "occu": 1}], "abc": [0.31777408, 0.20183047, 0.47203742], "xyz": [2.2782745970765697, 3.16201278224819, 20.70713031613262], "label": "S", "properties": {}}, {"species": [{"element": "S", "occu": 1}], "abc": [0.85017631, 0.72132667, 0.41758572], "xyz": [6.095225278274221, 11.30079195037559, 18.31846704482892], "label": "S", "properties": {}}, {"species": [{"element": "S", "occu": 1}], "abc": [0.31156547, 0.41006266, 0.45507142], "xyz": [2.23364985714091, 6.42431924398082, 19.962873276206622], "label": "S", "properties": {}}, {"species": [{"element": "S", "occu": 1}], "abc": [0.85221206, 0.53083744, 0.45300035], "xyz": [6.1099219979631405, 8.31645871198688, 19.87202048664635], "label": "S", "properties": {}}, {"species": [{"element": "S", "occu": 1}], "abc": [0.64790751, 0.33085001, 0.50278228], "xyz": [4.64520196415536, 5.18332024211677, 22.055832337619083], "label": "S", "properties": {}}, {"species": [{"element": "S", "occu": 1}], "abc": [0.66376163, 0.94950467, 0.43133611], "xyz": [4.75854580322802, 14.87558297488159, 18.92166311692771], "label": "S", "properties": {}}, {"species": [{"element": "S", "occu": 1}], "abc": [0.20840611, 0.66623847, 0.4655287], "xyz": [1.49388081341902, 10.43774291446419, 20.4216086445007], "label": "S", "properties": {}}]}, "formula": "", "bandgap": 2.2653, "slab_thickness": 22.051445581519083}