{"miller": "100_0.12", "final_energy": -431.85765097, "sigma": 1.4485670645606414e-05, "incar_parameters": {"SYSTEM": "unknown system", "LCOMPAT": false, "PREC": "normal", "ENMAX": 520.0, "ENAUG": 628.945, "EDIFF": 1e-05, "IALGO": 38, "IWAVPR": 11, "NBANDS": 272, "NBANDSLOW": -1, "NBANDSHIGH": -1, "NELECT": 432.0, "TURBO": 0, "IRESTART": 0, "NREBOOT": 0, "NMIN": 0, "EREF": 0.0, "ISMEAR": 0, "SIGMA": 0.05, "KSPACING": 0.5, "KGAMMA": true, "KBLOWUP": true, "LREAL": true, "ROPT": [-0.0005, -0.0005], "LMAXPAW": -100, "LMAXMIX": 2, "NLSPLINE": false, "ISTART": 0, "ICHARG": 2, "INIWAV": 1, "ISPIN": 1, "LNONCOLLINEAR": false, "MAGMOM": [0.6, 0.6, 0.6, 0.6, 0.6, 0.6, 0.6, 0.6, 0.6, 0.6, 0.6, 0.6, 0.6, 0.6, 0.6, 0.6, 0.6, 0.6, 0.6, 0.6, 0.6, 0.6, 0.6, 0.6, 0.6, 0.6, 0.6, 0.6, 0.6, 0.6, 0.6, 0.6, 0.6, 0.6, 0.6, 0.6, 0.6, 0.6, 0.6, 0.6, 0.6, 0.6, 0.6, 0.6, 0.6, 0.6, 0.6, 0.6, 0.6, 0.6, 0.6, 0.6, 0.6, 0.6, 0.6, 0.6, 0.6, 0.6, 0.6, 0.6, 0.6, 0.6, 0.6, 0.6, 0.6, 0.6, 0.6, 0.6, 0.6, 0.6, 0.6, 0.6, 0.6, 0.6, 0.6, 0.6, 0.6, 0.6, 0.6, 0.6, 0.6, 0.6, 0.6, 0.6, 0.6, 0.6, 0.6, 0.6, 0.6, 0.6, 0.6, 0.6, 0.6, 0.6, 0.6, 0.6, 0.6, 0.6, 0.6, 0.6, 0.6, 0.6, 0.6, 0.6, 0.6, 0.6, 0.6, 0.6], "NUPDOWN": -1.0, "LSORBIT": false, "SAXIS": [0.0, 0.0, 1.0], "LSPIRAL": false, "QSPIRAL": [0.0, 0.0, 0.0], "LZEROZ": false, "LASPH": false, "LMETAGGA": false, "NELM": 100, "NELMDL": -5, "NELMIN": 6, "ENINI": 520.0, "LDIAG": true, "LSUBROT": false, "WEIMIN": 0.001, "EBREAK": 1e-08, "DEPER": 0.3, "NRMM": 4, "TIME": 0.4, "AMIX": 0.4, "BMIX": 1.0, "AMIN": 0.1, "AMIX_MAG": 1.6, "BMIX_MAG": 1.0, "IMIX": 4, "MIXFIRST": false, "MAXMIX": -45, "WC": 100.0, "INIMIX": 1, "MIXPRE": 1, "MREMOVE": 5, "LDIPOL": false, "LMONO": false, "IDIPOL": 0, "EPSILON": 1.0, "DIPOL": [-100.0, -100.0, -100.0], "EFIELD": 0.0, "NGX": 288, "NGY": 32, "NGZ": 32, "NGXF": 576, "NGYF": 64, "NGZF": 64, "ADDGRID": false, "NSW": 150, "IBRION": 2, "MDALGO": 0, "ISIF": 3, "PSTRESS": 0.0, "EDIFFG": -0.01, "NFREE": 1, "POTIM": 0.5, "SMASS": -3.0, "SCALEE": 1.0, "TEBEG": 0.0001, "TEEND": 0.0001, "NBLOCK": 1, "KBLOCK": 150, "NPACO": 256, "APACO": 10.0, "ISYM": 0, "SYMPREC": 1e-05, "LORBIT": 11, "RWIGS": [-1.0, -1.0], "NEDOS": 301, "EMIN": 10.0, "EMAX": -10.0, "EFERMI": 0.0, "NWRITE": 2, "LWAVE": false, "LDOWNSAMPLE": false, "LCHARG": false, "LPARD": false, "LVTOT": false, "LVHAR": false, "LELF": false, "LOPTICS": false, "STM": [0.0, 0.0, 0.0, 0.0, 0.0, 0.0, 0.0], "NPAR": 4, "NSIM": 4, "NBLK": -1, "LPLANE": true, "LSCALAPACK": true, "LSCAAWARE": false, "LSCALU": false, "LASYNC": false, "LORBITALREAL": false, "IDIOT": 3, "PHON_NSTRUCT": -1, "LMUSIC": false, "POMASS": [7.01, 32.066], "DARWINR": [0.0, 0.0], "DARWINV": [1.0, 1.0], "LCORR": true, "GGA_COMPAT": true, "LBERRY": false, "ICORELEVEL": 0, "LDAU": false, "I_CONSTRAINED_M": 0, "GGA": "--", "VOSKOWN": 0, "LHFCALC": false, "PRECFOCK": "", "LSYMGRAD": false, "LHFONE": false, "LRHFCALC": false, "LTHOMAS": false, "LMODELHF": false, "LFOCKACE": false, "ENCUT4O": -1.0, "EXXOEP": 0, "FOURORBIT": 0, "AEXX": 0.0, "HFALPHA": 0.0, "MCALPHA": 0.0, "ALDAX": 1.0, "AGGAX": 1.0, "ALDAC": 1.0, "AGGAC": 1.0, "NKREDX": 1, "NKREDY": 1, "NKREDZ": 1, "SHIFTRED": false, "ODDONLY": false, "EVENONLY": false, "LMAXFOCK": 0, "NMAXFOCKAE": 0, "LFOCKAEDFT": false, "HFSCREEN": 0.0, "HFSCREENC": 0.0, "NBANDSGWLOW": 0, "LUSE_VDW": false, "Zab_VDW": -0.8491, "PARAM1": 0.1234, "PARAM2": 1.0, "PARAM3": 0.0, "MODEL_GW": 0, "MODEL_EPS0": 9.26123434, "MODEL_ALPHA": 1.0, "LEPSILON": false, "LRPA": false, "LNABLA": false, "LVEL": false, "CSHIFT": 0.1, "OMEGAMAX": -1.0, "DEG_THRESHOLD": 0.002, "RTIME": -0.1, "WPLASMAI": 0.0, "DFIELD": [0.0, 0.0, 0.0], "WPLASMA": [0.0, 0.0, 0.0, 0.0, 0.0, 0.0, 0.0, 0.0, 0.0], "NUCIND": false, "MAGPOS": [0.0, 0.0, 0.0], "LNICSALL": true, "ORBITALMAG": false, "LMAGBLOCH": false, "LCHIMAG": false, "LGAUGE": true, "MAGATOM": 0, "MAGDIPOL": [0.0, 0.0, 0.0], "AVECCONST": [0.0, 0.0, 0.0], "LFINITE_TEMPERATURE": false, "LADDER": false, "LRPAFORCE": false, "LFXC": false, "LHARTREE": true, "IBSE": 0, "KPOINT": [-1, 0, 0, 0], "LTCTC": false, "LTCTE": false, "LTETE": false, "LTRIPLET": false, "LFXCEPS": false, "LFXHEG": false, "NATURALO": 2, "LHOLEGF": false, "L2ORDER": false, "LDMP1": false, "LMP2LT": false, "LSMP2LT": false, "LGWLF": false, "ENCUTGW": -2.0, "ENCUTGWSOFT": -2.0, "ENCUTLF": -1.0, "LESF_SPLINES": false, "LMAXMP2": -1, "SCISSOR": 0.0, "NOMEGA": 0, "NOMEGAR": 0, "NBANDSGW": -1, "NBANDSO": -1, "NBANDSV": -1, "NELMGW": 1, "NELMHF": 1, "DIM": 3, "IESPILON": 4, "ANTIRES": 0, "OMEGAMIN": -30.0, "OMEGATL": -200.0, "OMEGAGRID": 0, "LSELFENERGY": false, "LSPECTRAL": false, "LSPECTRALGW": false, "LSINGLES": false, "LFERMIGW": false, "ODDONLYGW": false, "EVENONLYGW": false, "NKREDLFX": 1, "NKREDLFY": 1, "NKREDLFZ": 1, "MAXMEM": 2800, "TELESCOPE": 0, "NTAUPAR": -1, "NOMEGAPAR": -1, "DAMP_NEWTON": 0.80000001, "LAMBDA": 1.0, "OFIELD_KAPPA": 0.0, "OFIELD_K": [0.0, 0.0, 0.0], "OFIELD_Q6_NEAR": 0.0, "OFIELD_Q6_FAR": 0.0, "OFIELD_A": 0.0, "KPOINTS_OPT_MODE": 1, "LKPOINTS_OPT": false, "@module": "pymatgen.io.vasp.inputs", "@class": "Incar"}, "relaxed_structures": {"@module": "pymatgen.core.structure", "@class": "Structure", "charge": 0, "lattice": {"matrix": [[51.23702038, -6.9e-07, -4.11e-06], [-8e-08, 5.69300079, -5.1e-07], [1e-07, 4.9e-07, 5.69300162]], "a": 51.23702038000017, "b": 5.693000790000024, "c": 5.693001620000023, "alpha": 90.00000020128573, "beta": 90.0000035895813, "gamma": 90.00000157673178, "volume": 1660.6052915125356}, "sites": [{"species": [{"element": "Li", "occu": 1}], "abc": [0.02777789, 0.25, 0.75], "xyz": [1.423256371043398, 1.4232505458332558, 4.269750973332872], "label": "Li", "properties": {}}, {"species": [{"element": "Li", "occu": 1}], "abc": [0.02777788, 0.74999998, 0.25000001], "xyz": [1.423255768673197, 4.269750581973252, 1.4232499652629398], "label": "Li", "properties": {}}, {"species": [{"element": "Li", "occu": 1}], "abc": [0.08333324, 0.25000001, 0.25], "xyz": [4.26974692121143, 1.423250319430072, 1.4232499350003787], "label": "Li", "properties": {}}, {"species": [{"element": "Li", "occu": 1}], "abc": [0.08333323, 0.75000003, 0.74999997], "xyz": [4.269746418841222, 4.269751073290081, 4.2697503192103605], "label": "Li", "properties": {}}, {"species": [{"element": "Li", "occu": 1}], "abc": [0.08333323, 0.74999994, 0.25000003], "xyz": [4.2697463688412345, 4.269750315920039, 1.423249850790504], "label": "Li", "properties": {}}, {"species": [{"element": "Li", "occu": 1}], "abc": [0.08333323, 0.25000002, 0.75000001], "xyz": [4.269746458841226, 1.423250621360092, 4.269750801930431], "label": "Li", "properties": {}}, {"species": [{"element": "Li", "occu": 1}], "abc": [0.0277779, 0.75000005, 0.75], "xyz": [1.423256843413598, 4.269751225483289, 4.269750718332806], "label": "Li", "properties": {}}, {"species": [{"element": "Li", "occu": 1}], "abc": [0.02777789, 0.24999999, 0.24999999], "xyz": [1.423256321043398, 1.423250243903243, 1.423250106402861], "label": "Li", "properties": {}}, {"species": [{"element": "Li", "occu": 1}], "abc": [0.13888893, 0.24999999, 0.74999999], "xyz": [7.116254991966393, 1.4232504122366256, 4.269750459736487], "label": "Li", "properties": {}}, {"species": [{"element": "Li", "occu": 1}], "abc": [0.13888894, 0.75000001, 0.24999999], "xyz": [7.116255414336595, 4.269750676096635, 1.4232493947364353], "label": "Li", "properties": {}}, {"species": [{"element": "Li", "occu": 1}], "abc": [0.19444427, 0.25000001, 0.24999994], "xyz": [9.962745029764214, 1.4232502427634321, 1.4232491367539482], "label": "Li", "properties": {}}, {"species": [{"element": "Li", "occu": 1}], "abc": [0.19444427, 0.75, 0.75000002], "xyz": [9.962745039764226, 4.269750825833464, 4.269750147194083], "label": "Li", "properties": {}}, {"species": [{"element": "Li", "occu": 1}], "abc": [0.19444427, 0.74999998, 0.25], "xyz": [9.962744989764225, 4.269750466973439, 1.4232492233340606], "label": "Li", "properties": {}}, {"species": [{"element": "Li", "occu": 1}], "abc": [0.19444428, 0.25000001, 0.75000003], "xyz": [9.962745592134427, 1.4232504877634693, 4.269750459124054], "label": "Li", "properties": {}}, {"species": [{"element": "Li", "occu": 1}], "abc": [0.13888892, 0.75000001, 0.75000001], "xyz": [7.116254439596189, 4.269750921096659, 4.26975031859655], "label": "Li", "properties": {}}, {"species": [{"element": "Li", "occu": 1}], "abc": [0.13888892, 0.24999999, 0.25000001], "xyz": [7.116254429596191, 1.4232501672366422, 1.4232497635965602], "label": "Li", "properties": {}}, {"species": [{"element": "Li", "occu": 1}], "abc": [0.25000002, 0.24999994, 0.75], "xyz": [12.809256174740412, 1.4232500509199388, 4.269750059999949], "label": "Li", "properties": {}}, {"species": [{"element": "Li", "occu": 1}], "abc": [0.25000001, 0.74999994, 0.25000001], "xyz": [12.809255572370207, 4.26975020091995, 1.4232490519300058], "label": "Li", "properties": {}}, {"species": [{"element": "Li", "occu": 1}], "abc": [0.30555572, 0.25000007, 0.24999998], "xyz": [15.655764657865564, 1.4232505076765989, 1.423248907805923], "label": "Li", "properties": {}}, {"species": [{"element": "Li", "occu": 1}], "abc": [0.30555572, 0.74999999, 0.74999996], "xyz": [15.655764667865567, 4.269750692236526, 4.269749348945931], "label": "Li", "properties": {}}, {"species": [{"element": "Li", "occu": 1}], "abc": [0.30555572, 0.74999994, 0.25], "xyz": [15.655764617865575, 4.269750162586506, 1.4232487666660214], "label": "Li", "properties": {}}, {"species": [{"element": "Li", "occu": 1}], "abc": [0.30555573, 0.24999997, 0.75000001], "xyz": [15.65576522023578, 1.4232501833765274, 4.269749888595982], "label": "Li", "properties": {}}, {"species": [{"element": "Li", "occu": 1}], "abc": [0.25000002, 0.75, 0.75000001], "xyz": [12.809256134740407, 4.269750787499992, 4.2697498619299346], "label": "Li", "properties": {}}, {"species": [{"element": "Li", "occu": 1}], "abc": [0.25000002, 0.25000003, 0.25000001], "xyz": [12.809256124740404, 1.4232503182900147, 1.4232493069299188], "label": "Li", "properties": {}}, {"species": [{"element": "Li", "occu": 1}], "abc": [0.36111106, 0.24999996, 0.75000002], "xyz": [18.502254795663404, 1.4232500881133467, 4.269749717193597], "label": "Li", "properties": {}}, {"species": [{"element": "Li", "occu": 1}], "abc": [0.36111106, 0.74999999, 0.25000004], "xyz": [18.502254705663407, 4.269750408903381, 1.4232487660536133], "label": "Li", "properties": {}}, {"species": [{"element": "Li", "occu": 1}], "abc": [0.41666676, 0.25000002, 0.24999999], "xyz": [21.348763278788567, 1.4232501463599463, 1.42324850806959], "label": "Li", "properties": {}}, {"species": [{"element": "Li", "occu": 1}], "abc": [0.41666676, 0.74999999, 0.74999998], "xyz": [21.34876328878857, 4.269750615569918, 4.269749006139589], "label": "Li", "properties": {}}, {"species": [{"element": "Li", "occu": 1}], "abc": [0.41666677, 0.75000002, 0.24999996], "xyz": [21.348763751158767, 4.269750541359926, 1.4232480822795004], "label": "Li", "properties": {}}, {"species": [{"element": "Li", "occu": 1}], "abc": [0.41666676, 0.25, 0.74999997], "xyz": [21.348763328788564, 1.423250277499921, 4.269749204209568], "label": "Li", "properties": {}}, {"species": [{"element": "Li", "occu": 1}], "abc": [0.36111106, 0.75000002, 0.74999999], "xyz": [18.502254755663397, 4.2697508246933795, 4.269749291403517], "label": "Li", "properties": {}}, {"species": [{"element": "Li", "occu": 1}], "abc": [0.36111106, 0.25, 0.24999999], "xyz": [18.502254745663397, 1.4232500708333637, 1.4232487364035273], "label": "Li", "properties": {}}, {"species": [{"element": "Li", "occu": 1}], "abc": [0.47222211, 0.25000003, 0.75000001], "xyz": [24.1952539289566, 1.4232504099567727, 4.269749203597129], "label": "Li", "properties": {}}, {"species": [{"element": "Li", "occu": 1}], "abc": [0.47222211, 0.75000003, 0.24999996], "xyz": [24.195253838956592, 4.26975055995675, 1.423247853947048], "label": "Li", "properties": {}}, {"species": [{"element": "Li", "occu": 1}], "abc": [0.52777789, 0.24999999, 0.24999994], "xyz": [27.04176651104339, 1.4232498989032187, 1.4232477667527803], "label": "Li", "properties": {}}, {"species": [{"element": "Li", "occu": 1}], "abc": [0.52777789, 0.74999996, 0.75000003], "xyz": [27.0417665210434, 4.26975036811324, 4.269748834122941], "label": "Li", "properties": {}}, {"species": [{"element": "Li", "occu": 1}], "abc": [0.52777789, 0.75000002, 0.25], "xyz": [27.041766471043392, 4.2697504646932725, 1.423247853332862], "label": "Li", "properties": {}}, {"species": [{"element": "Li", "occu": 1}], "abc": [0.52777789, 0.25000001, 0.75000001], "xyz": [27.041766561043396, 1.4232502577632686, 4.269748975262884], "label": "Li", "properties": {}}, {"species": [{"element": "Li", "occu": 1}], "abc": [0.47222211, 0.75000005, 0.75000002], "xyz": [24.195253888956596, 4.269750918816794, 4.269749005527135], "label": "Li", "properties": {}}, {"species": [{"element": "Li", "occu": 1}], "abc": [0.47222212, 0.25000003, 0.24999997], "xyz": [24.195254391326802, 1.4232501649567462, 1.4232481658770229], "label": "Li", "properties": {}}, {"species": [{"element": "Li", "occu": 1}], "abc": [0.58333324, 0.25000001, 0.75000004], "xyz": [29.888257161211428, 1.4232502194300918, 4.2697489177204435], "label": "Li", "properties": {}}, {"species": [{"element": "Li", "occu": 1}], "abc": [0.58333324, 0.74999996, 0.25], "xyz": [29.888257071211427, 4.269750084780034, 1.423247625000404], "label": "Li", "properties": {}}, {"species": [{"element": "Li", "occu": 1}], "abc": [0.63888893, 0.25000002, 0.25000003], "xyz": [32.7347651319664, 1.4232499930266689, 1.4232478224565361], "label": "Li", "properties": {}}, {"species": [{"element": "Li", "occu": 1}], "abc": [0.63888893, 0.75000002, 0.74999997], "xyz": [32.734765141966385, 4.269750633026639, 4.2697480358764395], "label": "Li", "properties": {}}, {"species": [{"element": "Li", "occu": 1}], "abc": [0.63888893, 0.74999998, 0.25000001], "xyz": [32.734765091966395, 4.269750160306628, 1.4232474535965243], "label": "Li", "properties": {}}, {"species": [{"element": "Li", "occu": 1}], "abc": [0.63888893, 0.25000002, 0.75], "xyz": [32.734765181966395, 1.423250238026654, 4.269748461666488], "label": "Li", "properties": {}}, {"species": [{"element": "Li", "occu": 1}], "abc": [0.58333323, 0.75000006, 0.75000001], "xyz": [29.888256608841225, 4.269750899080123, 4.269748491930411], "label": "Li", "properties": {}}, {"species": [{"element": "Li", "occu": 1}], "abc": [0.58333324, 0.25000001, 0.24999996], "xyz": [29.88825711121142, 1.4232499744300526, 1.423247652280314], "label": "Li", "properties": {}}, {"species": [{"element": "Li", "occu": 1}], "abc": [0.69444428, 0.24999997, 0.75000003], "xyz": [35.581255782134434, 1.423249915043438, 4.269748404124074], "label": "Li", "properties": {}}, {"species": [{"element": "Li", "occu": 1}], "abc": [0.69444428, 0.75000002, 0.24999999], "xyz": [35.58125569213442, 4.2697503496934575, 1.4232471114039829], "label": "Li", "properties": {}}, {"species": [{"element": "Li", "occu": 1}], "abc": [0.75000001, 0.24999996, 0.25000001], "xyz": [38.42776580237021, 1.4232495747799663, 1.4232472519299957], "label": "Li", "properties": {}}, {"species": [{"element": "Li", "occu": 1}], "abc": [0.75, 0.74999999, 0.75000002], "xyz": [38.427765300000004, 4.269750385570002, 4.269747863860038], "label": "Li", "properties": {}}, {"species": [{"element": "Li", "occu": 1}], "abc": [0.75, 0.75000006, 0.25000001], "xyz": [38.42776524999999, 4.269750539080052, 1.4232469969299857], "label": "Li", "properties": {}}, {"species": [{"element": "Li", "occu": 1}], "abc": [0.75, 0.24999998, 0.74999997], "xyz": [38.42776533999999, 1.4232499336399698, 4.269747834209962], "label": "Li", "properties": {}}, {"species": [{"element": "Li", "occu": 1}], "abc": [0.69444429, 0.75000007, 0.75000002], "xyz": [35.58125625450462, 4.269750879343506, 4.269748092193965], "label": "Li", "properties": {}}, {"species": [{"element": "Li", "occu": 1}], "abc": [0.69444427, 0.24999997, 0.25000003], "xyz": [35.58125521976423, 1.423249670043445, 1.4232475941241143], "label": "Li", "properties": {}}, {"species": [{"element": "Li", "occu": 1}], "abc": [0.80555571, 0.25000001, 0.75000002], "xyz": [41.27427438549537, 1.4232500660965777, 4.26974789052606], "label": "Li", "properties": {}}, {"species": [{"element": "Li", "occu": 1}], "abc": [0.80555571, 0.75000003, 0.25000002], "xyz": [41.27427429549536, 4.269750329956595, 1.423246825526049], "label": "Li", "properties": {}}, {"species": [{"element": "Li", "occu": 1}], "abc": [0.86111107, 0.25, 0.24999999], "xyz": [44.1207654480336, 1.4232497258333567, 1.423246681403486], "label": "Li", "properties": {}}, {"species": [{"element": "Li", "occu": 1}], "abc": [0.86111107, 0.75000001, 0.74999995], "xyz": [44.1207654580336, 4.269750422763345, 4.269747008683416], "label": "Li", "properties": {}}, {"species": [{"element": "Li", "occu": 1}], "abc": [0.86111107, 0.75000001, 0.25000008], "xyz": [44.12076540803361, 4.2697501777634095, 1.4232469387736268], "label": "Li", "properties": {}}, {"species": [{"element": "Li", "occu": 1}], "abc": [0.86111107, 0.24999999, 0.74999997], "xyz": [44.1207654980336, 1.4232499139033392, 4.269747377543459], "label": "Li", "properties": {}}, {"species": [{"element": "Li", "occu": 1}], "abc": [0.80555572, 0.75, 0.74999998], "xyz": [41.27427485786557, 4.269750404166544, 4.2697474078059585], "label": "Li", "properties": {}}, {"species": [{"element": "Li", "occu": 1}], "abc": [0.80555572, 0.24999999, 0.24999997], "xyz": [41.27427484786557, 1.4232497072365307, 1.4232467958759472], "label": "Li", "properties": {}}, {"species": [{"element": "Li", "occu": 1}], "abc": [0.91666677, 0.25000001, 0.74999999], "xyz": [46.96727403115876, 1.4232499894299317, 4.269747263069554], "label": "Li", "properties": {}}, {"species": [{"element": "Li", "occu": 1}], "abc": [0.91666677, 0.74999994, 0.25000002], "xyz": [46.967273941158766, 4.269749740919892, 1.4232463688596384], "label": "Li", "properties": {}}, {"species": [{"element": "Li", "occu": 1}], "abc": [0.97222211, 0.25000001, 0.25000003], "xyz": [49.8137640689566, 1.4232497060967668, 1.4232464524571715], "label": "Li", "properties": {}}, {"species": [{"element": "Li", "occu": 1}], "abc": [0.97222212, 0.74999995, 0.75000003], "xyz": [49.81376459132681, 4.2697500045167125, 4.269747007457162], "label": "Li", "properties": {}}, {"species": [{"element": "Li", "occu": 1}], "abc": [0.97222211, 0.74999997, 0.24999997], "xyz": [49.8137640289566, 4.269749873376706, 1.4232458558770946], "label": "Li", "properties": {}}, {"species": [{"element": "Li", "occu": 1}], "abc": [0.97222211, 0.25000002, 0.75000001], "xyz": [49.8137641189566, 1.4232500080267647, 4.269747148597134], "label": "Li", "properties": {}}, {"species": [{"element": "Li", "occu": 1}], "abc": [0.91666677, 0.74999997, 0.75000002], "xyz": [46.96727399115877, 4.269750156709915, 4.269747178859624], "label": "Li", "properties": {}}, {"species": [{"element": "Li", "occu": 1}], "abc": [0.91666677, 0.25000005, 0.25000005], "xyz": [46.96727398115877, 1.4232499721499927, 1.4232467946496308], "label": "Li", "properties": {}}, {"species": [{"element": "S", "occu": 1}], "abc": [-1e-08, -4e-08, -2e-08], "xyz": [-5.123702026e-07, -2.277200345e-07, -1.1385997090000001e-07], "label": "S", "properties": {}}, {"species": [{"element": "S", "occu": 1}], "abc": [-1e-08, 0.50000009, 0.50000004], "xyz": [-5.02370207e-07, 2.846501152370098, 2.84650078272006], "label": "S", "properties": {}}, {"species": [{"element": "S", "occu": 1}], "abc": [0.05555577, -2e-08, 0.50000008], "xyz": [2.8465121697166023, 9.280654209999997e-08, 2.846501037105925], "label": "S", "properties": {}}, {"species": [{"element": "S", "occu": 1}], "abc": [0.05555576, 0.50000001, -7e-08], "xyz": [2.846511567346381, 2.8465004135964995, -8.818442921000002e-07], "label": "S", "properties": {}}, {"species": [{"element": "S", "occu": 1}], "abc": [0.11111103, 8e-08, 1e-08], "xyz": [5.692998108552786, 3.787734574e-07, -3.9973635789999995e-07], "label": "S", "properties": {}}, {"species": [{"element": "S", "occu": 1}], "abc": [0.11111103, 0.49999992, 0.50000001], "xyz": [5.692998118552798, 2.8465001078933305, 2.8465001552637244], "label": "S", "properties": {}}, {"species": [{"element": "S", "occu": 1}], "abc": [0.16666677, -1e-08, 0.49999983], "xyz": [8.539508741158755, 7.30698375e-08, 2.8464991571893052], "label": "S", "properties": {}}, {"species": [{"element": "S", "occu": 1}], "abc": [0.16666677, 0.49999995, 1e-07], "xyz": [8.539508651158787, 2.846499995349938, -3.7070023719999985e-07], "label": "S", "properties": {}}, {"species": [{"element": "S", "occu": 1}], "abc": [0.22222203, 0.0, 8e-08], "xyz": [11.38599467999498, -1.533331615e-07, -4.578924136999999e-07], "label": "S", "properties": {}}, {"species": [{"element": "S", "occu": 1}], "abc": [0.22222202, 0.50000003, 0.49999988], "xyz": [11.385994177624752, 2.8465006574567715, 2.8464989585072886], "label": "S", "properties": {}}, {"species": [{"element": "S", "occu": 1}], "abc": [0.27777799, 3e-08, 0.50000001], "xyz": [14.232516584745433, 2.2412321550000004e-07, 2.8464997252624626], "label": "S", "properties": {}}, {"species": [{"element": "S", "occu": 1}], "abc": [0.27777799, 0.49999996, 2e-08], "xyz": [14.23251649474544, 2.8464999756131655, -1.2828074860999997e-06], "label": "S", "properties": {}}, {"species": [{"element": "S", "occu": 1}], "abc": [0.33333319, 1e-07, 6e-08], "xyz": [17.07899944936041, 3.393002073e-07, -1.0284193647e-06], "label": "S", "properties": {}}, {"species": [{"element": "S", "occu": 1}], "abc": [0.33333319, 0.49999991, 0.49999995], "xyz": [17.07899945936041, 2.8464998976300033, 2.8464989003505545], "label": "S", "properties": {}}, {"species": [{"element": "S", "occu": 1}], "abc": [0.388889, 4e-08, 0.50000003], "xyz": [19.92551366855782, 2.0438663630000008e-07, 2.846499382456239], "label": "S", "properties": {}}, {"species": [{"element": "S", "occu": 1}], "abc": [0.388889, 0.49999995, 1e-08], "xyz": [19.925513578557823, 2.8464998420165553, -1.7964037482999997e-06], "label": "S", "properties": {}}, {"species": [{"element": "S", "occu": 1}], "abc": [0.44444422, -2e-08, -7e-08], "xyz": [22.771997557913195, -4.2052656189999997e-07, -2.2251758474e-06], "label": "S", "properties": {}}, {"species": [{"element": "S", "occu": 1}], "abc": [0.44444422, 0.50000005, 0.50000008], "xyz": [22.771997567913207, 2.8465006179835672, 2.84649918377436], "label": "S", "properties": {}}, {"species": [{"element": "S", "occu": 1}], "abc": [0.50000001, 4e-08, 0.49999993], "xyz": [25.618510752370195, 1.2771999039999993e-07, 2.846498356489825], "label": "S", "properties": {}}, {"species": [{"element": "S", "occu": 1}], "abc": [0.50000001, 0.49999995, 9e-08], "xyz": [25.61851066237022, 2.8464997653499977, -1.7976298698e-06], "label": "S", "properties": {}}, {"species": [{"element": "S", "occu": 1}], "abc": [0.55555576, 8e-08, 8e-08], "xyz": [28.465021797346385, 7.210662800000005e-08, -1.8278940847999994e-06], "label": "S", "properties": {}}, {"species": [{"element": "S", "occu": 1}], "abc": [0.55555575, 0.49999989, 0.49999988], "xyz": [28.46502129497618, 2.8464996304363868, 2.8464975885057298], "label": "S", "properties": {}}, {"species": [{"element": "S", "occu": 1}], "abc": [0.61111103, 1e-08, 0.49999997], "xyz": [31.31150834855279, -1.1973661749999994e-07, 2.8464981275436134], "label": "S", "properties": {}}, {"species": [{"element": "S", "occu": 1}], "abc": [0.61111103, 0.49999996, 5e-08], "xyz": [31.3115082585528, 2.8464997456133827, -2.4820162319e-06], "label": "S", "properties": {}}, {"species": [{"element": "S", "occu": 1}], "abc": [0.66666678, 1e-08, -2e-08], "xyz": [34.158019393528974, -4.0307008009999996e-07, -2.8538605033e-06], "label": "S", "properties": {}}, {"species": [{"element": "S", "occu": 1}], "abc": [0.66666678, 0.50000001, 0.49999998], "xyz": [34.15801940352897, 2.8465002369299204, 2.846497701139497], "label": "S", "properties": {}}, {"species": [{"element": "S", "occu": 1}], "abc": [0.72222202, -9e-08, 0.50000002], "xyz": [37.00450440762478, -7.657032551e-07, 2.8464979555275765], "label": "S", "properties": {}}, {"species": [{"element": "S", "occu": 1}], "abc": [0.72222203, 0.50000008, -4e-08], "xyz": [37.00450482999496, 2.846500352106843, -3.4510526488999997e-06], "label": "S", "properties": {}}, {"species": [{"element": "S", "occu": 1}], "abc": [0.77777797, -5e-08, -1e-08], "xyz": [39.85102570000504, -8.213168437000001e-07, -3.2535974473999997e-06], "label": "S", "properties": {}}, {"species": [{"element": "S", "occu": 1}], "abc": [0.77777797, 0.50000007, 0.50000002], "xyz": [39.85102571000503, 2.846500501843266, 2.8464974721925405], "label": "S", "properties": {}}, {"species": [{"element": "S", "occu": 1}], "abc": [0.83333322, -8e-08, 0.49999996], "xyz": [42.69751122647102, -7.854400046e-07, 2.8464971572804423], "label": "S", "properties": {}}, {"species": [{"element": "S", "occu": 1}], "abc": [0.83333322, 0.50000005, 5e-08], "xyz": [42.69751113647102, 2.846500104650142, -3.3953494787e-06], "label": "S", "properties": {}}, {"species": [{"element": "S", "occu": 1}], "abc": [0.88888897, -4e-08, 2e-08], "xyz": [45.544022271447204, -8.410534110999999e-07, -3.5394736138999997e-06], "label": "S", "properties": {}}, {"species": [{"element": "S", "occu": 1}], "abc": [0.88888897, 0.50000003, 0.49999996], "xyz": [45.5440222814472, 2.846500197456615, 2.8464966739462536], "label": "S", "properties": {}}, {"species": [{"element": "S", "occu": 1}], "abc": [0.94444425, -3e-08, 0.49999997], "xyz": [48.39050933502381, -5.774565708999998e-07, 2.8464967575440996], "label": "S", "properties": {}}, {"species": [{"element": "S", "occu": 1}], "abc": [0.94444425, 0.50000005, 2e-08], "xyz": [48.39050924502381, 2.846500027983517, -4.0228058605999995e-06], "label": "S", "properties": {}}]}, "formula": "(Li2S)36.0", "bandgap": 3.3862}