{"miller": "110_0.25", "final_energy": -671.86407853, "sigma": -0.0007873776333811429, "incar_parameters": {"SYSTEM": "unknown system", "LCOMPAT": false, "PREC": "normal", "ENMAX": 520.0, "ENAUG": 628.945, "EDIFF": 1e-05, "IALGO": 38, "IWAVPR": 11, "NBANDS": 421, "NBANDSLOW": -1, "NBANDSHIGH": -1, "NELECT": 672.0, "TURBO": 0, "IRESTART": 0, "NREBOOT": 0, "NMIN": 0, "EREF": 0.0, "ISMEAR": 0, "SIGMA": 0.05, "KSPACING": 0.5, "KGAMMA": true, "KBLOWUP": true, "LREAL": true, "ROPT": [-0.0005, -0.0005], "LMAXPAW": -100, "LMAXMIX": 2, "NLSPLINE": false, "ISTART": 0, "ICHARG": 2, "INIWAV": 1, "ISPIN": 1, "LNONCOLLINEAR": false, "MAGMOM": [0.6, 0.6, 0.6, 0.6, 0.6, 0.6, 0.6, 0.6, 0.6, 0.6, 0.6, 0.6, 0.6, 0.6, 0.6, 0.6, 0.6, 0.6, 0.6, 0.6, 0.6, 0.6, 0.6, 0.6, 0.6, 0.6, 0.6, 0.6, 0.6, 0.6, 0.6, 0.6, 0.6, 0.6, 0.6, 0.6, 0.6, 0.6, 0.6, 0.6, 0.6, 0.6, 0.6, 0.6, 0.6, 0.6, 0.6, 0.6, 0.6, 0.6, 0.6, 0.6, 0.6, 0.6, 0.6, 0.6, 0.6, 0.6, 0.6, 0.6, 0.6, 0.6, 0.6, 0.6, 0.6, 0.6, 0.6, 0.6, 0.6, 0.6, 0.6, 0.6, 0.6, 0.6, 0.6, 0.6, 0.6, 0.6, 0.6, 0.6, 0.6, 0.6, 0.6, 0.6, 0.6, 0.6, 0.6, 0.6, 0.6, 0.6, 0.6, 0.6, 0.6, 0.6, 0.6, 0.6, 0.6, 0.6, 0.6, 0.6, 0.6, 0.6, 0.6, 0.6, 0.6, 0.6, 0.6, 0.6, 0.6, 0.6, 0.6, 0.6, 0.6, 0.6, 0.6, 0.6, 0.6, 0.6, 0.6, 0.6, 0.6, 0.6, 0.6, 0.6, 0.6, 0.6, 0.6, 0.6, 0.6, 0.6, 0.6, 0.6, 0.6, 0.6, 0.6, 0.6, 0.6, 0.6, 0.6, 0.6, 0.6, 0.6, 0.6, 0.6, 0.6, 0.6, 0.6, 0.6, 0.6, 0.6, 0.6, 0.6, 0.6, 0.6, 0.6, 0.6, 0.6, 0.6, 0.6, 0.6, 0.6, 0.6, 0.6, 0.6, 0.6, 0.6, 0.6, 0.6], "NUPDOWN": -1.0, "LSORBIT": false, "SAXIS": [0.0, 0.0, 1.0], "LSPIRAL": false, "QSPIRAL": [0.0, 0.0, 0.0], "LZEROZ": false, "LASPH": false, "LMETAGGA": false, "NELM": 100, "NELMDL": -5, "NELMIN": 6, "ENINI": 520.0, "LDIAG": true, "LSUBROT": false, "WEIMIN": 0.001, "EBREAK": 1e-08, "DEPER": 0.3, "NRMM": 4, "TIME": 0.4, "AMIX": 0.4, "BMIX": 1.0, "AMIN": 0.1, "AMIX_MAG": 1.6, "BMIX_MAG": 1.0, "IMIX": 4, "MIXFIRST": false, "MAXMIX": -45, "WC": 100.0, "INIMIX": 1, "MIXPRE": 1, "MREMOVE": 5, "LDIPOL": false, "LMONO": false, "IDIPOL": 0, "EPSILON": 1.0, "DIPOL": [-100.0, -100.0, -100.0], "EFIELD": 0.0, "NGX": 32, "NGY": 48, "NGZ": 320, "NGXF": 64, "NGYF": 96, "NGZF": 640, "ADDGRID": false, "NSW": 150, "IBRION": 2, "MDALGO": 0, "ISIF": 3, "PSTRESS": 0.0, "EDIFFG": -0.01, "NFREE": 1, "POTIM": 0.5, "SMASS": -3.0, "SCALEE": 1.0, "TEBEG": 0.0001, "TEEND": 0.0001, "NBLOCK": 1, "KBLOCK": 150, "NPACO": 256, "APACO": 10.0, "ISYM": 0, "SYMPREC": 1e-05, "LORBIT": 11, "RWIGS": [-1.0, -1.0], "NEDOS": 301, "EMIN": 10.0, "EMAX": -10.0, "EFERMI": 0.0, "NWRITE": 2, "LWAVE": false, "LDOWNSAMPLE": false, "LCHARG": false, "LPARD": false, "LVTOT": false, "LVHAR": false, "LELF": false, "LOPTICS": false, "STM": [0.0, 0.0, 0.0, 0.0, 0.0, 0.0, 0.0], "NPAR": 1, "NSIM": 4, "NBLK": -1, "LPLANE": true, "LSCALAPACK": true, "LSCAAWARE": false, "LSCALU": false, "LASYNC": false, "LORBITALREAL": false, "IDIOT": 3, "PHON_NSTRUCT": -1, "LMUSIC": false, "POMASS": [7.01, 32.066], "DARWINR": [0.0, 0.0], "DARWINV": [1.0, 1.0], "LCORR": true, "GGA_COMPAT": true, "LBERRY": false, "ICORELEVEL": 0, "LDAU": false, "I_CONSTRAINED_M": 0, "GGA": "--", "VOSKOWN": 0, "LHFCALC": false, "PRECFOCK": "", "LSYMGRAD": false, "LHFONE": false, "LRHFCALC": false, "LTHOMAS": false, "LMODELHF": false, "LFOCKACE": false, "ENCUT4O": -1.0, "EXXOEP": 0, "FOURORBIT": 0, "AEXX": 0.0, "HFALPHA": 0.0, "MCALPHA": 0.0, "ALDAX": 1.0, "AGGAX": 1.0, "ALDAC": 1.0, "AGGAC": 1.0, "NKREDX": 1, "NKREDY": 1, "NKREDZ": 1, "SHIFTRED": false, "ODDONLY": false, "EVENONLY": false, "LMAXFOCK": 0, "NMAXFOCKAE": 0, "LFOCKAEDFT": false, "HFSCREEN": 0.0, "HFSCREENC": 0.0, "NBANDSGWLOW": 0, "LUSE_VDW": false, "Zab_VDW": -0.8491, "PARAM1": 0.1234, "PARAM2": 1.0, "PARAM3": 0.0, "MODEL_GW": 0, "MODEL_EPS0": 9.25601609, "MODEL_ALPHA": 1.0, "LEPSILON": false, "LRPA": false, "LNABLA": false, "LVEL": false, "CSHIFT": 0.1, "OMEGAMAX": -1.0, "DEG_THRESHOLD": 0.002, "RTIME": -0.1, "WPLASMAI": 0.0, "DFIELD": [0.0, 0.0, 0.0], "WPLASMA": [0.0, 0.0, 0.0, 0.0, 0.0, 0.0, 0.0, 0.0, 0.0], "NUCIND": false, "MAGPOS": [0.0, 0.0, 0.0], "LNICSALL": true, "ORBITALMAG": false, "LMAGBLOCH": false, "LCHIMAG": false, "LGAUGE": true, "MAGATOM": 0, "MAGDIPOL": [0.0, 0.0, 0.0], "AVECCONST": [0.0, 0.0, 0.0], "LFINITE_TEMPERATURE": false, "LADDER": false, "LRPAFORCE": false, "LFXC": false, "LHARTREE": true, "IBSE": 0, "KPOINT": [-1, 0, 0, 0], "LTCTC": false, "LTCTE": false, "LTETE": false, "LTRIPLET": false, "LFXCEPS": false, "LFXHEG": false, "NATURALO": 2, "LHOLEGF": false, "L2ORDER": false, "LDMP1": false, "LMP2LT": false, "LSMP2LT": false, "LGWLF": false, "ENCUTGW": -2.0, "ENCUTGWSOFT": -2.0, "ENCUTLF": -1.0, "LESF_SPLINES": false, "LMAXMP2": -1, "SCISSOR": 0.0, "NOMEGA": 0, "NOMEGAR": 0, "NBANDSGW": -1, "NBANDSO": -1, "NBANDSV": -1, "NELMGW": 1, "NELMHF": 1, "DIM": 3, "IESPILON": 4, "ANTIRES": 0, "OMEGAMIN": -30.0, "OMEGATL": -200.0, "OMEGAGRID": 0, "LSELFENERGY": false, "LSPECTRAL": false, "LSPECTRALGW": false, "LSINGLES": false, "LFERMIGW": false, "ODDONLYGW": false, "EVENONLYGW": false, "NKREDLFX": 1, "NKREDLFY": 1, "NKREDLFZ": 1, "MAXMEM": 2800, "TELESCOPE": 0, "NTAUPAR": -1, "NOMEGAPAR": -1, "DAMP_NEWTON": 0.80000001, "LAMBDA": 1.0, "OFIELD_KAPPA": 0.0, "OFIELD_K": [0.0, 0.0, 0.0], "OFIELD_Q6_NEAR": 0.0, "OFIELD_Q6_FAR": 0.0, "OFIELD_A": 0.0, "KPOINTS_OPT_MODE": 1, "LKPOINTS_OPT": false, "@module": "pymatgen.io.vasp.inputs", "@class": "Incar"}, "relaxed_structures": {"@module": "pymatgen.core.structure", "@class": "Structure", "charge": 0, "lattice": {"matrix": [[5.700325, 0.0, 0.0], [0.0, 8.061477, 0.0], [0.0, 0.0, 56.39854445]], "a": 5.700325, "b": 8.061477, "c": 56.39854445, "alpha": 90.0, "beta": 90.0, "gamma": 90.0, "volume": 2591.684505887669}, "sites": [{"species": [{"element": "Li", "occu": 1}], "abc": [0.75006166, 0.62500116, 0.01768439], "xyz": [4.2755952320395, 5.03843247631332, 0.9973738554861357], "label": "Li", "properties": {}}, {"species": [{"element": "Li", "occu": 1}], "abc": [0.24993834, 0.12500115, 0.01768438], "xyz": [1.4247297679605002, 1.00769389569855, 0.997373291500691], "label": "Li", "properties": {}}, {"species": [{"element": "Li", "occu": 1}], "abc": [0.74937865, 0.37500109, 0.05364982], "xyz": [4.27170185306125, 3.02306266200993, 3.0257717580044994], "label": "Li", "properties": {}}, {"species": [{"element": "Li", "occu": 1}], "abc": [0.25062132, 0.87500114, 0.0536498], "xyz": [1.428622975929, 7.05380156508378, 3.02577063003361], "label": "Li", "properties": {}}, {"species": [{"element": "Li", "occu": 1}], "abc": [0.75006164, 0.12500115, 0.01768439], "xyz": [4.275595118033, 1.00769389569855, 0.9973738554861357], "label": "Li", "properties": {}}, {"species": [{"element": "Li", "occu": 1}], "abc": [0.24993833, 0.62500116, 0.01768437], "xyz": [1.42472971095725, 5.03843247631332, 0.9973727275152466], "label": "Li", "properties": {}}, {"species": [{"element": "Li", "occu": 1}], "abc": [0.74937865, 0.87500113, 0.05364981], "xyz": [4.27170185306125, 7.05380148446901, 3.025771194019055], "label": "Li", "properties": {}}, {"species": [{"element": "Li", "occu": 1}], "abc": [0.25062131, 0.3750011, 0.05364981], "xyz": [1.42862291892575, 3.0230627426247, 3.025771194019055], "label": "Li", "properties": {}}, {"species": [{"element": "Li", "occu": 1}], "abc": [0.75016163, 0.12500116, 0.08917427], "xyz": [4.27616509352975, 1.00769397631332, 5.029299030391302], "label": "Li", "properties": {}}, {"species": [{"element": "Li", "occu": 1}], "abc": [0.2498384, 0.62500114, 0.08917425], "xyz": [1.42416007748, 5.03843231508378, 5.029297902420413], "label": "Li", "properties": {}}, {"species": [{"element": "Li", "occu": 1}], "abc": [0.74993934, 0.87500111, 0.1250951], "xyz": [4.2748979682855, 7.05380132323947, 7.055181557827194], "label": "Li", "properties": {}}, {"species": [{"element": "Li", "occu": 1}], "abc": [0.25006063, 0.37500112, 0.12509511], "xyz": [1.4254268607047502, 3.0230629038542403, 7.05518212181264], "label": "Li", "properties": {}}, {"species": [{"element": "Li", "occu": 1}], "abc": [0.75016163, 0.62500117, 0.08917427], "xyz": [4.27616509352975, 5.03843255692809, 5.029299030391302], "label": "Li", "properties": {}}, {"species": [{"element": "Li", "occu": 1}], "abc": [0.24983842, 0.12500116, 0.08917425], "xyz": [1.4241601914865, 1.00769397631332, 5.029297902420413], "label": "Li", "properties": {}}, {"species": [{"element": "Li", "occu": 1}], "abc": [0.74993932, 0.37500113, 0.1250951], "xyz": [4.274897854279, 3.0230629844690102, 7.055181557827194], "label": "Li", "properties": {}}, {"species": [{"element": "Li", "occu": 1}], "abc": [0.25006062, 0.87500112, 0.12509511], "xyz": [1.4254268037015, 7.05380140385424, 7.05518212181264], "label": "Li", "properties": {}}, {"species": [{"element": "Li", "occu": 1}], "abc": [0.7502663, 0.62500115, 0.16091403], "xyz": [4.276761746547501, 5.03843239569855, 9.075317073583635], "label": "Li", "properties": {}}, {"species": [{"element": "Li", "occu": 1}], "abc": [0.24973373, 0.12500116, 0.16091402], "xyz": [1.42356342446225, 1.00769397631332, 9.075316509598188], "label": "Li", "properties": {}}, {"species": [{"element": "Li", "occu": 1}], "abc": [0.74992419, 0.37500111, 0.19672615], "xyz": [4.27481160836175, 3.0230628232394703, 11.095068515252368], "label": "Li", "properties": {}}, {"species": [{"element": "Li", "occu": 1}], "abc": [0.25007583, 0.87500112, 0.19672617], "xyz": [1.42551350564475, 7.05380140385424, 11.095069643223257], "label": "Li", "properties": {}}, {"species": [{"element": "Li", "occu": 1}], "abc": [0.75026629, 0.12500115, 0.16091403], "xyz": [4.276761689544251, 1.00769389569855, 9.075317073583635], "label": "Li", "properties": {}}, {"species": [{"element": "Li", "occu": 1}], "abc": [0.24973372, 0.62500114, 0.16091402], "xyz": [1.423563367459, 5.03843231508378, 9.075316509598188], "label": "Li", "properties": {}}, {"species": [{"element": "Li", "occu": 1}], "abc": [0.74992419, 0.87500111, 0.19672615], "xyz": [4.27481160836175, 7.05380132323947, 11.095068515252368], "label": "Li", "properties": {}}, {"species": [{"element": "Li", "occu": 1}], "abc": [0.25007583, 0.3750011, 0.19672617], "xyz": [1.42551350564475, 3.0230627426247, 11.095069643223257], "label": "Li", "properties": {}}, {"species": [{"element": "Li", "occu": 1}], "abc": [0.75055236, 0.12500112, 0.23239911], "xyz": [4.278392381517, 1.00769365385424, 13.10697153547544], "label": "Li", "properties": {}}, {"species": [{"element": "Li", "occu": 1}], "abc": [0.24944765, 0.62500112, 0.23239911], "xyz": [1.42193267548625, 5.03843215385424, 13.10697153547544], "label": "Li", "properties": {}}, {"species": [{"element": "Li", "occu": 1}], "abc": [0.74944766, 0.87500114, 0.26760111], "xyz": [4.2720952324895, 7.05380156508378, 15.09231309720434], "label": "Li", "properties": {}}, {"species": [{"element": "Li", "occu": 1}], "abc": [0.25055231, 0.37500113, 0.26760111], "xyz": [1.42822959650075, 3.0230629844690102, 15.09231309720434], "label": "Li", "properties": {}}, {"species": [{"element": "Li", "occu": 1}], "abc": [0.75055237, 0.62500112, 0.23239911], "xyz": [4.27839243852025, 5.03843215385424, 13.10697153547544], "label": "Li", "properties": {}}, {"species": [{"element": "Li", "occu": 1}], "abc": [0.24944766, 0.12500114, 0.23239911], "xyz": [1.4219327324895, 1.00769381508378, 13.10697153547544], "label": "Li", "properties": {}}, {"species": [{"element": "Li", "occu": 1}], "abc": [0.74944768, 0.37500114, 0.26760111], "xyz": [4.272095346496, 3.02306306508378, 15.09231309720434], "label": "Li", "properties": {}}, {"species": [{"element": "Li", "occu": 1}], "abc": [0.25055232, 0.87500114, 0.26760111], "xyz": [1.428229653504, 7.05380156508378, 15.09231309720434], "label": "Li", "properties": {}}, {"species": [{"element": "Li", "occu": 1}], "abc": [0.75007578, 0.62500115, 0.30327404], "xyz": [4.2756757206285, 5.03843239569855, 17.10421442547108], "label": "Li", "properties": {}}, {"species": [{"element": "Li", "occu": 1}], "abc": [0.24992423, 0.12500111, 0.30327402], "xyz": [1.42464933637475, 1.00769357323947, 17.104213297500188], "label": "Li", "properties": {}}, {"species": [{"element": "Li", "occu": 1}], "abc": [0.74973391, 0.37500118, 0.33908617], "xyz": [4.27372695052075, 3.02306338754286, 19.123966431125258], "label": "Li", "properties": {}}, {"species": [{"element": "Li", "occu": 1}], "abc": [0.25026616, 0.87500123, 0.33908617], "xyz": [1.4265984485020002, 7.0538022906167095, 19.123966431125258], "label": "Li", "properties": {}}, {"species": [{"element": "Li", "occu": 1}], "abc": [0.75007576, 0.1250011, 0.30327404], "xyz": [4.275675606622, 1.0076934926247, 17.10421442547108], "label": "Li", "properties": {}}, {"species": [{"element": "Li", "occu": 1}], "abc": [0.24992419, 0.62500115, 0.30327402], "xyz": [1.42464910836175, 5.03843239569855, 17.104213297500188], "label": "Li", "properties": {}}, {"species": [{"element": "Li", "occu": 1}], "abc": [0.74973387, 0.87500122, 0.33908617], "xyz": [4.27372672250775, 7.05380221000194, 19.123966431125258], "label": "Li", "properties": {}}, {"species": [{"element": "Li", "occu": 1}], "abc": [0.25026609, 0.37500118, 0.33908618], "xyz": [1.42659804947925, 3.02306338754286, 19.123966995110703], "label": "Li", "properties": {}}, {"species": [{"element": "Li", "occu": 1}], "abc": [0.75006138, 0.12500096, 0.37490502], "xyz": [4.2755936359485, 1.00769236401792, 21.144097434998137], "label": "Li", "properties": {}}, {"species": [{"element": "Li", "occu": 1}], "abc": [0.24993885, 0.62500081, 0.37490504], "xyz": [1.4247326751262501, 5.03842965479637, 21.14409856296903], "label": "Li", "properties": {}}, {"species": [{"element": "Li", "occu": 1}], "abc": [0.7498361, 0.87499916, 0.41082536], "xyz": [4.2743094667325, 7.05378560335932, 23.16995232714725], "label": "Li", "properties": {}}, {"species": [{"element": "Li", "occu": 1}], "abc": [0.25016372, 0.37499879, 0.41082538], "xyz": [1.426014507209, 3.02304412061283, 23.169953455118144], "label": "Li", "properties": {}}, {"species": [{"element": "Li", "occu": 1}], "abc": [0.75006116, 0.62500081, 0.37490506], "xyz": [4.275592381877, 5.03842965479637, 21.144099690939917], "label": "Li", "properties": {}}, {"species": [{"element": "Li", "occu": 1}], "abc": [0.24993864, 0.12500096, 0.37490501], "xyz": [1.424731478058, 1.00769236401792, 21.144096871012696], "label": "Li", "properties": {}}, {"species": [{"element": "Li", "occu": 1}], "abc": [0.74983636, 0.37499881, 0.41082537], "xyz": [4.274310948817, 3.02304428184237, 23.1699528911327], "label": "Li", "properties": {}}, {"species": [{"element": "Li", "occu": 1}], "abc": [0.25016399, 0.87499916, 0.41082535], "xyz": [1.4260160462967502, 7.05378560335932, 23.16995176316181], "label": "Li", "properties": {}}, {"species": [{"element": "Li", "occu": 1}], "abc": [0.75062144, 0.62499331, 0.44634971], "xyz": [4.278786159968, 5.038369193718871, 25.17347395967961], "label": "Li", "properties": {}}, {"species": [{"element": "Li", "occu": 1}], "abc": [0.24937913, 0.1249933, 0.4463497], "xyz": [1.4215420892172501, 1.0076306131041, 25.173473395694167], "label": "Li", "properties": {}}, {"species": [{"element": "Li", "occu": 1}], "abc": [0.74994084, 0.37499888, 0.48231532], "xyz": [4.274906518773, 3.0230448461457597, 27.201882013935975], "label": "Li", "properties": {}}, {"species": [{"element": "Li", "occu": 1}], "abc": [0.25005887, 0.8749992, 0.4823153], "xyz": [1.42541682813275, 7.0537859258184, 27.201880885965085], "label": "Li", "properties": {}}, {"species": [{"element": "Li", "occu": 1}], "abc": [0.75062095, 0.12499325, 0.44634971], "xyz": [4.27878336680875, 1.00763021003025, 25.17347395967961], "label": "Li", "properties": {}}, {"species": [{"element": "Li", "occu": 1}], "abc": [0.24937867, 0.62499326, 0.44634971], "xyz": [1.4215394670677501, 5.03836879064502, 25.17347395967961], "label": "Li", "properties": {}}, {"species": [{"element": "Li", "occu": 1}], "abc": [0.74994108, 0.87499919, 0.48231528], "xyz": [4.274907886851, 7.05378584520363, 27.2018797579942], "label": "Li", "properties": {}}, {"species": [{"element": "Li", "occu": 1}], "abc": [0.25005922, 0.37499886, 0.48231533], "xyz": [1.4254188232465002, 3.02304468491622, 27.20188257792142], "label": "Li", "properties": {}}, {"species": [{"element": "Li", "occu": 1}], "abc": [0.24993897, 0.12500081, 0.51768428], "xyz": [1.4247333591652502, 1.0076911547963698, 29.19663987664625], "label": "Li", "properties": {}}, {"species": [{"element": "Li", "occu": 1}], "abc": [0.75006083, 0.62500098, 0.51768428], "xyz": [4.27559050076975, 5.03843102524746, 29.19663987664625], "label": "Li", "properties": {}}, {"species": [{"element": "Li", "occu": 1}], "abc": [0.25062152, 0.37500112, 0.55364979], "xyz": [1.428624115994, 3.0230629038542403, 31.22504229104817], "label": "Li", "properties": {}}, {"species": [{"element": "Li", "occu": 1}], "abc": [0.74937855, 0.8750012, 0.55364978], "xyz": [4.27170128302875, 7.0538020487724005, 31.22504172706272], "label": "Li", "properties": {}}, {"species": [{"element": "Li", "occu": 1}], "abc": [0.24993919, 0.625001, 0.51768426], "xyz": [1.4247346132367502, 5.038431186477, 29.19663874867536], "label": "Li", "properties": {}}, {"species": [{"element": "Li", "occu": 1}], "abc": [0.75006106, 0.12500084, 0.5176843], "xyz": [4.2755918118444995, 1.00769139664068, 29.196641004617135], "label": "Li", "properties": {}}, {"species": [{"element": "Li", "occu": 1}], "abc": [0.25062148, 0.87500121, 0.55364978], "xyz": [1.428623887981, 7.0538021293871696, 31.22504172706272], "label": "Li", "properties": {}}, {"species": [{"element": "Li", "occu": 1}], "abc": [0.74937849, 0.37500111, 0.5536498], "xyz": [4.27170094100925, 3.0230628232394703, 31.22504285503361], "label": "Li", "properties": {}}, {"species": [{"element": "Li", "occu": 1}], "abc": [0.24983844, 0.62500115, 0.58917424], "xyz": [1.424160305493, 5.03843239569855, 33.22856956343497], "label": "Li", "properties": {}}, {"species": [{"element": "Li", "occu": 1}], "abc": [0.75016155, 0.1250012, 0.58917424], "xyz": [4.27616463750375, 1.0076942987724, 33.22856956343497], "label": "Li", "properties": {}}, {"species": [{"element": "Li", "occu": 1}], "abc": [0.25006064, 0.87500112, 0.6250951], "xyz": [1.4254269177080001, 7.05380140385424, 35.2544537828272], "label": "Li", "properties": {}}, {"species": [{"element": "Li", "occu": 1}], "abc": [0.74993933, 0.37500113, 0.62509509], "xyz": [4.274897911282251, 3.0230629844690102, 35.25445321884175], "label": "Li", "properties": {}}, {"species": [{"element": "Li", "occu": 1}], "abc": [0.24983845, 0.12500119, 0.58917423], "xyz": [1.42416036249625, 1.00769421815763, 33.22856899944953], "label": "Li", "properties": {}}, {"species": [{"element": "Li", "occu": 1}], "abc": [0.75016159, 0.62500116, 0.58917424], "xyz": [4.27616486551675, 5.03843247631332, 33.22856956343497], "label": "Li", "properties": {}}, {"species": [{"element": "Li", "occu": 1}], "abc": [0.25006065, 0.37500115, 0.6250951], "xyz": [1.42542697471125, 3.02306314569855, 35.2544537828272], "label": "Li", "properties": {}}, {"species": [{"element": "Li", "occu": 1}], "abc": [0.74993933, 0.87500113, 0.62509509], "xyz": [4.274897911282251, 7.05380148446901, 35.25445321884175], "label": "Li", "properties": {}}, {"species": [{"element": "Li", "occu": 1}], "abc": [0.2497336, 0.12500119, 0.66091402], "xyz": [1.4235626834200001, 1.00769421815763, 37.27458873459819], "label": "Li", "properties": {}}, {"species": [{"element": "Li", "occu": 1}], "abc": [0.75026638, 0.62500113, 0.66091403], "xyz": [4.2767622025735, 5.03843223446901, 37.274589298583635], "label": "Li", "properties": {}}, {"species": [{"element": "Li", "occu": 1}], "abc": [0.25007577, 0.37500106, 0.69672614], "xyz": [1.4255131636252498, 3.02306242016562, 39.29434017626692], "label": "Li", "properties": {}}, {"species": [{"element": "Li", "occu": 1}], "abc": [0.74992431, 0.87500117, 0.69672614], "xyz": [4.274812292400751, 7.05380180692809, 39.29434017626692], "label": "Li", "properties": {}}, {"species": [{"element": "Li", "occu": 1}], "abc": [0.24973363, 0.62500112, 0.66091402], "xyz": [1.42356285442975, 5.03843215385424, 37.27458873459819], "label": "Li", "properties": {}}, {"species": [{"element": "Li", "occu": 1}], "abc": [0.75026638, 0.12500119, 0.66091403], "xyz": [4.2767622025735, 1.00769421815763, 37.274589298583635], "label": "Li", "properties": {}}, {"species": [{"element": "Li", "occu": 1}], "abc": [0.25007571, 0.87500117, 0.69672616], "xyz": [1.4255128216057502, 7.05380180692809, 39.29434130423781], "label": "Li", "properties": {}}, {"species": [{"element": "Li", "occu": 1}], "abc": [0.74992424, 0.37500106, 0.69672611], "xyz": [4.274811893378001, 3.02306242016562, 39.294338484310586], "label": "Li", "properties": {}}, {"species": [{"element": "Li", "occu": 1}], "abc": [0.24944767, 0.62500121, 0.73239913], "xyz": [1.42193278949275, 5.0384328793871695, 41.30624488844633], "label": "Li", "properties": {}}, {"species": [{"element": "Li", "occu": 1}], "abc": [0.75055255, 0.12500108, 0.73239912], "xyz": [4.27839346457875, 1.00769333139516, 41.306244324460884], "label": "Li", "properties": {}}, {"species": [{"element": "Li", "occu": 1}], "abc": [0.25055203, 0.87500118, 0.76760112], "xyz": [1.42822800040975, 7.0538018875428605, 43.291585886189786], "label": "Li", "properties": {}}, {"species": [{"element": "Li", "occu": 1}], "abc": [0.74944749, 0.37500128, 0.76760108], "xyz": [4.2720942634342505, 3.02306419369056, 43.29158363024801], "label": "Li", "properties": {}}, {"species": [{"element": "Li", "occu": 1}], "abc": [0.24944742, 0.12500109, 0.73239911], "xyz": [1.4219313644115001, 1.0076934120099301, 41.30624376047544], "label": "Li", "properties": {}}, {"species": [{"element": "Li", "occu": 1}], "abc": [0.75055225, 0.62500123, 0.73239913], "xyz": [4.27839175448125, 5.0384330406167095, 41.30624488844633], "label": "Li", "properties": {}}, {"species": [{"element": "Li", "occu": 1}], "abc": [0.25055256, 0.37500127, 0.76760107], "xyz": [1.428231021582, 3.02306411307579, 43.29158306626256], "label": "Li", "properties": {}}, {"species": [{"element": "Li", "occu": 1}], "abc": [0.74944777, 0.87500117, 0.76760111], "xyz": [4.27209585952525, 7.05380180692809, 43.29158532220434], "label": "Li", "properties": {}}, {"species": [{"element": "Li", "occu": 1}], "abc": [0.24992411, 0.12500088, 0.80327408], "xyz": [1.42464865233575, 1.00769171909976, 45.30348890641286], "label": "Li", "properties": {}}, {"species": [{"element": "Li", "occu": 1}], "abc": [0.75007581, 0.62500085, 0.80327409], "xyz": [4.27567589163825, 5.038429977255451, 45.303489470398304], "label": "Li", "properties": {}}, {"species": [{"element": "Li", "occu": 1}], "abc": [0.25026626, 0.37500125, 0.83908622], "xyz": [1.4265990185345, 3.02306395184625, 47.32324147605248], "label": "Li", "properties": {}}, {"species": [{"element": "Li", "occu": 1}], "abc": [0.7497332, 0.87500118, 0.83908625], "xyz": [4.27372290329, 7.0538018875428605, 47.323243168008815], "label": "Li", "properties": {}}, {"species": [{"element": "Li", "occu": 1}], "abc": [0.2499241, 0.62500095, 0.80327407], "xyz": [1.4246485953325, 5.03843078340315, 45.303488342427414], "label": "Li", "properties": {}}, {"species": [{"element": "Li", "occu": 1}], "abc": [0.75007607, 0.12500098, 0.80327409], "xyz": [4.2756773737227505, 1.00769252524746, 45.303489470398304], "label": "Li", "properties": {}}, {"species": [{"element": "Li", "occu": 1}], "abc": [0.2502667, 0.87500127, 0.83908625], "xyz": [1.4266015266775, 7.05380261307579, 47.323243168008815], "label": "Li", "properties": {}}, {"species": [{"element": "Li", "occu": 1}], "abc": [0.74973387, 0.37500132, 0.8390862], "xyz": [4.27372672250775, 3.02306451614964, 47.32324034808159], "label": "Li", "properties": {}}, {"species": [{"element": "Li", "occu": 1}], "abc": [0.24993933, 0.62500107, 0.87490511], "xyz": [1.42473541128225, 5.03843175078039, 49.343374735867144], "label": "Li", "properties": {}}, {"species": [{"element": "Li", "occu": 1}], "abc": [0.75006077, 0.1250012, 0.87490517], "xyz": [4.2755901587502505, 1.0076942987724, 49.34337811977981], "label": "Li", "properties": {}}, {"species": [{"element": "Li", "occu": 1}], "abc": [0.25016145, 0.87500123, 0.91082608], "xyz": [1.42600156747125, 7.0538022906167095, 51.36926515909926], "label": "Li", "properties": {}}, {"species": [{"element": "Li", "occu": 1}], "abc": [0.74983844, 0.37500111, 0.91082608], "xyz": [4.274322805493, 3.0230628232394703, 51.36926515909926], "label": "Li", "properties": {}}, {"species": [{"element": "Li", "occu": 1}], "abc": [0.24993925, 0.12500121, 0.87490514], "xyz": [1.42473495525625, 1.00769437938717, 49.34337642782347], "label": "Li", "properties": {}}, {"species": [{"element": "Li", "occu": 1}], "abc": [0.75006044, 0.6250011, 0.87490512], "xyz": [4.275588277643, 5.0384319926247, 49.34337529985258], "label": "Li", "properties": {}}, {"species": [{"element": "Li", "occu": 1}], "abc": [0.25016146, 0.3750011, 0.91082608], "xyz": [1.4260016244745002, 3.0230627426247, 51.36926515909926], "label": "Li", "properties": {}}, {"species": [{"element": "Li", "occu": 1}], "abc": [0.74983843, 0.87500122, 0.91082608], "xyz": [4.27432274848975, 7.05380221000194, 51.36926515909926], "label": "Li", "properties": {}}, {"species": [{"element": "Li", "occu": 1}], "abc": [0.24937866, 0.12500107, 0.94635048], "xyz": [1.4215394100645, 1.00769325078039, 53.37278961155884], "label": "Li", "properties": {}}, {"species": [{"element": "Li", "occu": 1}], "abc": [0.75062134, 0.62500117, 0.94635048], "xyz": [4.2787855899355005, 5.03843255692809, 53.37278961155884], "label": "Li", "properties": {}}, {"species": [{"element": "Li", "occu": 1}], "abc": [0.25006157, 0.37500117, 0.98231598], "xyz": [1.4254322190102502, 3.02306330692809, 55.401191461975316], "label": "Li", "properties": {}}, {"species": [{"element": "Li", "occu": 1}], "abc": [0.74993847, 0.87500116, 0.98231596], "xyz": [4.27489300900275, 7.05380172631332, 55.401190334004426], "label": "Li", "properties": {}}, {"species": [{"element": "Li", "occu": 1}], "abc": [0.24937866, 0.62500116, 0.94635049], "xyz": [1.4215394100645, 5.03843247631332, 53.37279017554429], "label": "Li", "properties": {}}, {"species": [{"element": "Li", "occu": 1}], "abc": [0.75062136, 0.12500107, 0.94635048], "xyz": [4.278785703942001, 1.00769325078039, 53.37278961155884], "label": "Li", "properties": {}}, {"species": [{"element": "Li", "occu": 1}], "abc": [0.25006153, 0.87500115, 0.98231598], "xyz": [1.42543199099725, 7.05380164569855, 55.401191461975316], "label": "Li", "properties": {}}, {"species": [{"element": "Li", "occu": 1}], "abc": [0.74993845, 0.37500116, 0.98231596], "xyz": [4.274892894996251, 3.02306322631332, 55.401190334004426], "label": "Li", "properties": {}}, {"species": [{"element": "S", "occu": 1}], "abc": [0.50000006, 0.62500141, 0.05347476], "xyz": [2.8501628420195, 5.03843449168257, 3.0158986288130825], "label": "S", "properties": {}}, {"species": [{"element": "S", "occu": 1}], "abc": [0.99999994, 0.87500146, 0.01789385], "xyz": [5.7003246579805005, 7.05380414475642, 1.0091870946066326], "label": "S", "properties": {}}, {"species": [{"element": "S", "occu": 1}], "abc": [0.99999993, 0.37500146, 0.01789385], "xyz": [5.70032460097725, 3.02306564475642, 1.0091870946066326], "label": "S", "properties": {}}, {"species": [{"element": "S", "occu": 1}], "abc": [0.50000005, 0.12500149, 0.05347476], "xyz": [2.8501627850162503, 1.0076966366007298, 3.0158986288130825], "label": "S", "properties": {}}, {"species": [{"element": "S", "occu": 1}], "abc": [0.49999997, 0.12500146, 0.12507856], "xyz": [2.8501623289902502, 1.0076963947564201, 7.054248725901993], "label": "S", "properties": {}}, {"species": [{"element": "S", "occu": 1}], "abc": [8e-08, 0.37500142, 0.08933668], "xyz": [4.5602600000000004e-07, 3.02306532229734, 5.038458717995426], "label": "S", "properties": {}}, {"species": [{"element": "S", "occu": 1}], "abc": [7e-08, 0.87500141, 0.08933668], "xyz": [3.9902275000000006e-07, 7.05380374168257, 5.038458717995426], "label": "S", "properties": {}}, {"species": [{"element": "S", "occu": 1}], "abc": [0.49999996, 0.62500147, 0.12507855], "xyz": [2.850162271987, 5.03843497537119, 7.054248161916548], "label": "S", "properties": {}}, {"species": [{"element": "S", "occu": 1}], "abc": [0.49999996, 0.62500145, 0.19669444], "xyz": [2.850162271987, 5.03843481414165, 11.093280117407858], "label": "S", "properties": {}}, {"species": [{"element": "S", "occu": 1}], "abc": [0.0, 0.87500144, 0.16091334], "xyz": [0.0, 7.05380398352688, 9.075278158587963], "label": "S", "properties": {}}, {"species": [{"element": "S", "occu": 1}], "abc": [3e-08, 0.37500142, 0.16091334], "xyz": [1.7100975e-07, 3.02306532229734, 9.075278158587963], "label": "S", "properties": {}}, {"species": [{"element": "S", "occu": 1}], "abc": [0.5, 0.12500145, 0.19669444], "xyz": [2.8501625, 1.00769631414165, 11.093280117407858], "label": "S", "properties": {}}, {"species": [{"element": "S", "occu": 1}], "abc": [0.50000003, 0.12500143, 0.2677474], "xyz": [2.8501626710097505, 1.00769615291211, 15.100563640271933], "label": "S", "properties": {}}, {"species": [{"element": "S", "occu": 1}], "abc": [0.99999999, 0.37500143, 0.2322527], "xyz": [5.70032494299675, 3.0230654029121102, 13.098714224582515], "label": "S", "properties": {}}, {"species": [{"element": "S", "occu": 1}], "abc": [0.99999998, 0.87500143, 0.2322527], "xyz": [5.7003248859935, 7.05380390291211, 13.098714224582515], "label": "S", "properties": {}}, {"species": [{"element": "S", "occu": 1}], "abc": [0.50000003, 0.6250014, 0.26774739], "xyz": [2.8501626710097505, 5.038434411067801, 15.100563076286484], "label": "S", "properties": {}}, {"species": [{"element": "S", "occu": 1}], "abc": [0.50000006, 0.62500163, 0.33908678], "xyz": [2.8501628420195, 5.03843626520751, 19.12400083423737], "label": "S", "properties": {}}, {"species": [{"element": "S", "occu": 1}], "abc": [3e-08, 0.87500148, 0.30330566], "xyz": [1.7100975e-07, 7.05380430598596, 17.105997747446587], "label": "S", "properties": {}}, {"species": [{"element": "S", "occu": 1}], "abc": [2e-08, 0.37500146, 0.30330565], "xyz": [1.1400650000000001e-07, 3.02306564475642, 17.10599718346114], "label": "S", "properties": {}}, {"species": [{"element": "S", "occu": 1}], "abc": [0.5, 0.12500146, 0.33908681], "xyz": [2.8501625, 1.0076963947564201, 19.124002526193706], "label": "S", "properties": {}}, {"species": [{"element": "S", "occu": 1}], "abc": [0.49999991, 0.12499763, 0.41066364], "xyz": [2.85016198697075, 1.00766551929951, 23.1608315545388], "label": "S", "properties": {}}, {"species": [{"element": "S", "occu": 1}], "abc": [1e-07, 0.37500136, 0.37492143], "xyz": [5.700325e-07, 3.02306483860872, 21.145022935112564], "label": "S", "properties": {}}, {"species": [{"element": "S", "occu": 1}], "abc": [1.0, 0.87500136, 0.37492143], "xyz": [5.700325, 7.05380333860872, 21.145022935112564], "label": "S", "properties": {}}, {"species": [{"element": "S", "occu": 1}], "abc": [0.49999995, 0.62499754, 0.41066376], "xyz": [2.8501622149837504, 5.03840329376658, 23.160838322364132], "label": "S", "properties": {}}, {"species": [{"element": "S", "occu": 1}], "abc": [0.49999998, 0.62499758, 0.48210637], "xyz": [2.8501623859935004, 5.0384036162256605, 27.190097538073147], "label": "S", "properties": {}}, {"species": [{"element": "S", "occu": 1}], "abc": [0.99999984, 0.87493045, 0.44652148], "xyz": [5.700324087948, 7.05323169927465, 25.18316153765979], "label": "S", "properties": {}}, {"species": [{"element": "S", "occu": 1}], "abc": [6e-08, 0.37492921, 0.44652151], "xyz": [3.420195e-07, 3.02248320304317, 25.18316322961612], "label": "S", "properties": {}}, {"species": [{"element": "S", "occu": 1}], "abc": [0.49999997, 0.12499745, 0.48210648], "xyz": [2.8501623289902502, 1.00766406823365, 27.19010374191304], "label": "S", "properties": {}}, {"species": [{"element": "S", "occu": 1}], "abc": [0.50000005, 0.12500165, 0.55347472], "xyz": [2.8501627850162503, 1.00769792643705, 31.215168597871305], "label": "S", "properties": {}}, {"species": [{"element": "S", "occu": 1}], "abc": [0.99999998, 0.87500139, 0.51789377], "xyz": [5.7003248859935, 7.05380358045303, 29.20845480772308], "label": "S", "properties": {}}, {"species": [{"element": "S", "occu": 1}], "abc": [9e-08, 0.37500134, 0.51789378], "xyz": [5.1302925e-07, 3.02306467737918, 29.20845537170852], "label": "S", "properties": {}}, {"species": [{"element": "S", "occu": 1}], "abc": [0.50000003, 0.62500144, 0.55347475], "xyz": [2.8501626710097505, 5.03843473352688, 31.21517028982764], "label": "S", "properties": {}}, {"species": [{"element": "S", "occu": 1}], "abc": [0.49999998, 0.62500149, 0.62507855], "xyz": [2.8501623859935004, 5.0384351366007305, 35.25352038691655], "label": "S", "properties": {}}, {"species": [{"element": "S", "occu": 1}], "abc": [4e-08, 0.37500141, 0.58933664], "xyz": [2.2801300000000002e-07, 3.02306524168257, 33.23772868705365], "label": "S", "properties": {}}, {"species": [{"element": "S", "occu": 1}], "abc": [3e-08, 0.87500146, 0.58933666], "xyz": [1.7100975e-07, 7.05380414475642, 33.23772981502454], "label": "S", "properties": {}}, {"species": [{"element": "S", "occu": 1}], "abc": [0.50000002, 0.12500143, 0.62507854], "xyz": [2.8501626140065, 1.00769615291211, 35.2535198229311], "label": "S", "properties": {}}, {"species": [{"element": "S", "occu": 1}], "abc": [0.49999999, 0.12500154, 0.6966945], "xyz": [2.85016244299675, 1.00769703967458, 39.29255572632053], "label": "S", "properties": {}}, {"species": [{"element": "S", "occu": 1}], "abc": [0.99999999, 0.8750014, 0.66091334], "xyz": [5.70032494299675, 7.053803661067801, 37.274550383587965], "label": "S", "properties": {}}, {"species": [{"element": "S", "occu": 1}], "abc": [2e-08, 0.37500143, 0.66091337], "xyz": [1.1400650000000001e-07, 3.0230654029121102, 37.27455207554429], "label": "S", "properties": {}}, {"species": [{"element": "S", "occu": 1}], "abc": [0.49999999, 0.62500129, 0.69669448], "xyz": [2.85016244299675, 5.03843352430533, 39.29255459834964], "label": "S", "properties": {}}, {"species": [{"element": "S", "occu": 1}], "abc": [0.49999996, 0.62500178, 0.7677474], "xyz": [2.850162271987, 5.03843747442906, 43.29983586527193], "label": "S", "properties": {}}, {"species": [{"element": "S", "occu": 1}], "abc": [0.9999999, 0.37500137, 0.73225272], "xyz": [5.700324429967501, 3.02306491922349, 41.29798757755341], "label": "S", "properties": {}}, {"species": [{"element": "S", "occu": 1}], "abc": [0.99999995, 0.87500159, 0.73225273], "xyz": [5.70032471498375, 7.05380519274843, 41.29798814153885], "label": "S", "properties": {}}, {"species": [{"element": "S", "occu": 1}], "abc": [0.50000004, 0.12500153, 0.76774736], "xyz": [2.850162728013, 1.00769695905981, 43.29983360933015], "label": "S", "properties": {}}, {"species": [{"element": "S", "occu": 1}], "abc": [0.50000007, 0.12500176, 0.83908679], "xyz": [2.85016289902275, 1.00769881319952, 47.32327362322282], "label": "S", "properties": {}}, {"species": [{"element": "S", "occu": 1}], "abc": [0.99999994, 0.87500167, 0.80330565], "xyz": [5.7003246579805005, 7.05380583766659, 45.30526940846114], "label": "S", "properties": {}}, {"species": [{"element": "S", "occu": 1}], "abc": [1e-07, 0.37500084, 0.8033056], "xyz": [5.700325e-07, 3.02306064664068, 45.30526658853392], "label": "S", "properties": {}}, {"species": [{"element": "S", "occu": 1}], "abc": [0.49999999, 0.62500156, 0.83908676], "xyz": [2.85016244299675, 5.038435700904119, 47.32327193126649], "label": "S", "properties": {}}, {"species": [{"element": "S", "occu": 1}], "abc": [0.49999993, 0.62500146, 0.91066335], "xyz": [2.85016210097725, 5.03843489475642, 51.360087423960906], "label": "S", "properties": {}}, {"species": [{"element": "S", "occu": 1}], "abc": [0.99999997, 0.37500139, 0.87492153], "xyz": [5.70032482899025, 3.02306508045303, 49.34430079996701], "label": "S", "properties": {}}, {"species": [{"element": "S", "occu": 1}], "abc": [0.0, 0.87500162, 0.87492153], "xyz": [0.0, 7.05380543459274, 49.34430079996701], "label": "S", "properties": {}}, {"species": [{"element": "S", "occu": 1}], "abc": [0.49999994, 0.12500131, 0.91066331], "xyz": [2.8501621579805, 1.0076951855348701, 51.36008516801913], "label": "S", "properties": {}}, {"species": [{"element": "S", "occu": 1}], "abc": [0.49999999, 0.12500147, 0.98210603], "xyz": [2.85016244299675, 1.0076964753711901, 55.38935058756803], "label": "S", "properties": {}}, {"species": [{"element": "S", "occu": 1}], "abc": [4e-08, 0.87500139, 0.94652514], "xyz": [2.2801300000000002e-07, 7.05380358045303, 53.38264018133248], "label": "S", "properties": {}}, {"species": [{"element": "S", "occu": 1}], "abc": [2e-08, 0.37500148, 0.94652516], "xyz": [1.1400650000000001e-07, 3.02306580598596, 53.38264130930337], "label": "S", "properties": {}}, {"species": [{"element": "S", "occu": 1}], "abc": [0.49999998, 0.62500143, 0.98210602], "xyz": [2.8501623859935004, 5.03843465291211, 55.389350023582594], "label": "S", "properties": {}}]}, "formula": "(Li2S)56.0", "bandgap": 3.3845}