{"miller": "001_0.07", "final_energy": -1102.89712028, "gamma": 0.05754343619657296, "work_function": 5.353545821531101, "ionization_potentail": -5.687045821531101, "electron_affinity": -2.0761458215311013, "is_stochiometric": false, "incar_parameters": {"SYSTEM": "unknown system", "LCOMPAT": false, "PREC": "normal", "ENMAX": 520.0, "ENAUG": 605.392, "EDIFF": 1e-05, "IALGO": 38, "IWAVPR": 11, "NBANDS": 672, "NBANDSLOW": -1, "NBANDSHIGH": -1, "NELECT": 960.0, "TURBO": 0, "IRESTART": 0, "NREBOOT": 0, "NMIN": 0, "EREF": 0.0, "ISMEAR": 0, "SIGMA": 0.05, "KSPACING": 0.5, "KGAMMA": true, "KBLOWUP": false, "LREAL": true, "ROPT": [-0.0005, -0.0005, -0.0005, -0.0005, -0.0005], "LMAXPAW": -100, "LMAXMIX": 4, "NLSPLINE": false, "ISTART": 0, "ICHARG": 2, "INIWAV": 1, "ISPIN": 1, "LNONCOLLINEAR": false, "MAGMOM": [0.6, 0.6, 0.6, 0.6, 0.6, 0.6, 0.6, 0.6, 0.6, 0.6, 0.6, 0.6, 0.6, 0.6, 0.6, 0.6, 0.6, 0.6, 0.6, 0.6, 0.6, 0.6, 0.6, 0.6, 0.6, 0.6, 0.6, 0.6, 0.6, 0.6, 0.6, 0.6, 0.6, 0.6, 0.6, 0.6, 0.6, 0.6, 0.6, 0.6, 0.6, 0.6, 0.6, 0.6, 0.6, 0.6, 0.6, 0.6, 0.6, 0.6, 0.6, 0.6, 0.6, 0.6, 0.6, 0.6, 0.6, 0.6, 0.6, 0.6, 0.6, 0.6, 0.6, 0.6, 0.6, 0.6, 0.6, 0.6, 0.6, 0.6, 0.6, 0.6, 0.6, 0.6, 0.6, 0.6, 0.6, 0.6, 0.6, 0.6, 0.6, 0.6, 0.6, 0.6, 0.6, 0.6, 0.6, 0.6, 0.6, 0.6, 0.6, 0.6, 0.6, 0.6, 0.6, 0.6, 0.6, 0.6, 0.6, 0.6, 0.6, 0.6, 0.6, 0.6, 0.6, 0.6, 0.6, 0.6, 0.6, 0.6, 0.6, 0.6, 0.6, 0.6, 0.6, 0.6, 0.6, 0.6, 0.6, 0.6, 0.6, 0.6, 0.6, 0.6, 0.6, 0.6, 0.6, 0.6, 0.6, 0.6, 0.6, 0.6, 0.6, 0.6, 0.6, 0.6, 0.6, 0.6, 0.6, 0.6, 0.6, 0.6, 0.6, 0.6, 0.6, 0.6, 0.6, 0.6], "NUPDOWN": -1.0, "LSORBIT": false, "SAXIS": [0.0, 0.0, 1.0], "LSPIRAL": false, "QSPIRAL": [0.0, 0.0, 0.0], "LZEROZ": false, "LASPH": false, "LMETAGGA": false, "NELM": 100, "NELMDL": -5, "NELMIN": 6, "ENINI": 520.0, "LDIAG": true, "LSUBROT": false, "WEIMIN": 0.001, "EBREAK": 0.0, "DEPER": 0.3, "NRMM": 4, "TIME": 0.4, "AMIX": 0.4, "BMIX": 1.0, "AMIN": 0.1, "AMIX_MAG": 1.6, "BMIX_MAG": 1.0, "IMIX": 4, "MIXFIRST": false, "MAXMIX": -45, "WC": 100.0, "INIMIX": 1, "MIXPRE": 1, "MREMOVE": 5, "LDIPOL": false, "LMONO": false, "IDIPOL": 0, "EPSILON": 1.0, "DIPOL": [-100.0, -100.0, -100.0], "EFIELD": 0.0, "NGX": 50, "NGY": 50, "NGZ": 256, "NGXF": 100, "NGYF": 100, "NGZF": 512, "ADDGRID": false, "NSW": 150, "IBRION": 2, "MDALGO": 0, "ISIF": 2, "PSTRESS": 0.0, "EDIFFG": -0.01, "NFREE": 1, "POTIM": 0.5, "SMASS": -3.0, "SCALEE": 1.0, "TEBEG": 0.0001, "TEEND": 0.0001, "NBLOCK": 1, "KBLOCK": 150, "NPACO": 256, "APACO": 10.0, "ISYM": 0, "SYMPREC": 1e-05, "LORBIT": 11, "RWIGS": [-1.0, -1.0, -1.0, -1.0, -1.0], "NEDOS": 301, "EMIN": 10.0, "EMAX": -10.0, "EFERMI": 0.0, "NWRITE": 2, "LWAVE": false, "LDOWNSAMPLE": false, "LCHARG": false, "LPARD": false, "LVTOT": false, "LVHAR": false, "LELF": false, "LOPTICS": false, "STM": [0.0, 0.0, 0.0, 0.0, 0.0, 0.0, 0.0], "NPAR": 224, "NSIM": 4, "NBLK": -1, "LPLANE": true, "LSCALAPACK": true, "LSCAAWARE": true, "LSCALU": false, "LASYNC": false, "LORBITALREAL": false, "IDIOT": 3, "PHON_NSTRUCT": -1, "LMUSIC": false, "POMASS": [22.99, 91.224, 28.085, 30.974, 16.0], "DARWINR": [0.0, 0.0, 0.0, 0.0, 0.0], "DARWINV": [1.0, 1.0, 1.0, 1.0, 1.0], "LCORR": true, "GGA_COMPAT": true, "LBERRY": false, "ICORELEVEL": 0, "LDAU": false, "I_CONSTRAINED_M": 0, "GGA": "--", "VOSKOWN": 0, "LHFCALC": false, "PRECFOCK": "", "LSYMGRAD": false, "LHFONE": false, "LRHFCALC": false, "LTHOMAS": false, "LMODELHF": false, "LFOCKACE": false, "ENCUT4O": -1.0, "EXXOEP": 0, "FOURORBIT": 0, "AEXX": 0.0, "HFALPHA": 0.0, "MCALPHA": 0.0, "ALDAX": 1.0, "AGGAX": 1.0, "ALDAC": 1.0, "AGGAC": 1.0, "NKREDX": 1, "NKREDY": 1, "NKREDZ": 1, "SHIFTRED": false, "ODDONLY": false, "EVENONLY": false, "LMAXFOCK": 0, "NMAXFOCKAE": 0, "LFOCKAEDFT": false, "HFSCREEN": 0.0, "HFSCREENC": 0.0, "NBANDSGWLOW": 0, "LUSE_VDW": false, "Zab_VDW": -0.8491, "PARAM1": 0.1234, "PARAM2": 1.0, "PARAM3": 0.0, "MODEL_GW": 0, "MODEL_EPS0": 13.02958977, "MODEL_ALPHA": 1.0, "LEPSILON": false, "LRPA": false, "LNABLA": false, "LVEL": false, "CSHIFT": 0.1, "OMEGAMAX": -1.0, "DEG_THRESHOLD": 0.002, "RTIME": -0.1, "WPLASMAI": 0.0, "DFIELD": [0.0, 0.0, 0.0], "WPLASMA": [0.0, 0.0, 0.0, 0.0, 0.0, 0.0, 0.0, 0.0, 0.0], "NUCIND": false, "MAGPOS": [0.0, 0.0, 0.0], "LNICSALL": true, "ORBITALMAG": false, "LMAGBLOCH": false, "LCHIMAG": false, "LGAUGE": true, "MAGATOM": 0, "MAGDIPOL": [0.0, 0.0, 0.0], "AVECCONST": [0.0, 0.0, 0.0], "LFINITE_TEMPERATURE": false, "LADDER": false, "LRPAFORCE": false, "LFXC": false, "LHARTREE": true, "IBSE": 0, "KPOINT": [-1, 0, 0, 0], "LTCTC": false, "LTCTE": false, "LTETE": false, "LTRIPLET": false, "LFXCEPS": false, "LFXHEG": false, "NATURALO": 2, "LHOLEGF": false, "L2ORDER": false, "LDMP1": false, "LMP2LT": false, "LSMP2LT": false, "LGWLF": false, "ENCUTGW": -2.0, "ENCUTGWSOFT": -2.0, "ENCUTLF": -1.0, "LESF_SPLINES": false, "LMAXMP2": -1, "SCISSOR": 0.0, "NOMEGA": 0, "NOMEGAR": 0, "NBANDSGW": -1, "NBANDSO": -1, "NBANDSV": -1, "NELMGW": 1, "NELMHF": 1, "DIM": 3, "IESPILON": 4, "ANTIRES": 0, "OMEGAMIN": -30.0, "OMEGATL": -200.0, "OMEGAGRID": 0, "LSELFENERGY": false, "LSPECTRAL": false, "LSPECTRALGW": false, "LSINGLES": false, "LFERMIGW": false, "ODDONLYGW": false, "EVENONLYGW": false, "NKREDLFX": 1, "NKREDLFY": 1, "NKREDLFZ": 1, "MAXMEM": 2800, "TELESCOPE": 0, "NTAUPAR": -1, "NOMEGAPAR": -1, "DAMP_NEWTON": 0.80000001, "LAMBDA": 1.0, "OFIELD_KAPPA": 0.0, "OFIELD_K": [0.0, 0.0, 0.0], "OFIELD_Q6_NEAR": 0.0, "OFIELD_Q6_FAR": 0.0, "OFIELD_A": 0.0, "KPOINTS_OPT_MODE": 1, "LKPOINTS_OPT": false, "@module": "pymatgen.io.vasp.inputs", "@class": "Incar"}, "relaxed_structures": {"@module": "pymatgen.core.structure", "@class": "Structure", "charge": 0, "lattice": {"matrix": [[9.041294, 0.0, 0.0], [4.493412, 7.845651, 0.0], [0.0, 0.0, 45.308703]], "a": 9.041294, "b": 9.041293658296084, "c": 45.308703, "alpha": 90.0, "beta": 90.0, "gamma": 60.19909095860704, "volume": 3213.9654761405786}, "sites": [{"species": [{"element": "Na", "occu": 1}], "abc": [0.60234831, 0.04347311, 0.058470330000000015], "xyz": [5.641350755264461, 0.34107484894461004, 2.6492148162819906], "label": "Na", "properties": {}}, {"species": [{"element": "Na", "occu": 1}], "abc": [0.59427686, 0.39687368, 0.09272254000000002], "xyz": [7.156348764853, 3.11373238436568, 4.201138026265621], "label": "Na", "properties": {}}, {"species": [{"element": "Na", "occu": 1}], "abc": [0.43879963, 0.27836827, 0.9985624900000001], "xyz": [5.21813978675846, 2.18398029589377, 45.24357128635047], "label": "Na", "properties": {}}, {"species": [{"element": "Na", "occu": 1}], "abc": [0.06497553, 0.81917628, 0.13892916], "xyz": [4.26835939620318, 6.42697120035828, 6.29470004847948], "label": "Na", "properties": {}}, {"species": [{"element": "Na", "occu": 1}], "abc": [0.31655236, 0.10375522, 0.11757353000000002], "xyz": [3.32825790376448, 0.8140272455482199, 5.327104151431591], "label": "Na", "properties": {}}, {"species": [{"element": "Na", "occu": 1}], "abc": [0.93159474, 0.14279571, 0.02653088000000002], "xyz": [9.06446189005608, 1.12032530495721, 1.202079762248641], "label": "Na", "properties": {}}, {"species": [{"element": "Na", "occu": 1}], "abc": [0.98797625, 0.23018442, 0.22581965], "xyz": [9.96689717630854, 1.80594662495742, 10.23159545341395], "label": "Na", "properties": {}}, {"species": [{"element": "Na", "occu": 1}], "abc": [0.93126954, 0.66956939, 0.25649569], "xyz": [11.428532836243441, 5.25320775422289, 11.62148703899007], "label": "Na", "properties": {}}, {"species": [{"element": "Na", "occu": 1}], "abc": [0.52953464, 0.76222245, 0.17083659], "xyz": [8.21265786692356, 5.98013132706495, 7.7403843178427705], "label": "Na", "properties": {}}, {"species": [{"element": "Na", "occu": 1}], "abc": [0.39948729, 0.15277042, 0.31378824000000005], "xyz": [4.2983424766263, 1.19858339844342, 14.217338171052722], "label": "Na", "properties": {}}, {"species": [{"element": "Na", "occu": 1}], "abc": [0.64762094, 0.43194343, 0.28612970000000004], "xyz": [7.79623111077952, 3.38887740352293, 12.964165596779102], "label": "Na", "properties": {}}, {"species": [{"element": "Na", "occu": 1}], "abc": [0.26933809, 0.49018279, 0.19766052], "xyz": [4.63775808786794, 3.8458030965462897, 8.95574179550556], "label": "Na", "properties": {}}, {"species": [{"element": "Na", "occu": 1}], "abc": [0.31083921, 0.57320186, 0.40146146000000005], "xyz": [5.38602080048406, 4.497141746110859, 18.18969805708638], "label": "Na", "properties": {}}, {"species": [{"element": "Na", "occu": 1}], "abc": [0.25361741, 0.0109634, 0.43171721], "xyz": [2.34229264044934, 0.0860150101734, 19.56054684787863], "label": "Na", "properties": {}}, {"species": [{"element": "Na", "occu": 1}], "abc": [0.84008956, 0.09072567, 0.34375740000000005], "xyz": [8.00316451257668, 0.71180194356117, 15.575201940652203], "label": "Na", "properties": {}}, {"species": [{"element": "Na", "occu": 1}], "abc": [0.71099811, 0.47955752, 0.48675595000000005], "xyz": [8.58319246101258, 3.76244093634552, 22.054280772032854], "label": "Na", "properties": {}}, {"species": [{"element": "Na", "occu": 1}], "abc": [0.97178422, 0.75216858, 0.46011026000000005], "xyz": [12.16599016097564, 5.90125217184558, 20.846999117592784], "label": "Na", "properties": {}}, {"species": [{"element": "Na", "occu": 1}], "abc": [0.59429994, 0.81069707, 0.37152758], "xyz": [9.0160364244252, 6.36044627794257, 16.833432778528742], "label": "Na", "properties": {}}, {"species": [{"element": "Na", "occu": 1}], "abc": [0.64747316, 0.8436212, 0.56494085], "xyz": [9.64473282020344, 6.6187575114012, 25.596737185217552], "label": "Na", "properties": {}}, {"species": [{"element": "Na", "occu": 1}], "abc": [0.63975328, 0.19647253, 0.59914252], "xyz": [6.66702951591668, 1.54145490146703, 27.14637049335156], "label": "Na", "properties": {}}, {"species": [{"element": "Na", "occu": 1}], "abc": [0.17515743, 0.42232006, 0.5185541], "xyz": [3.4813078463591403, 3.31337580105906, 23.4950137063323], "label": "Na", "properties": {}}, {"species": [{"element": "Na", "occu": 1}], "abc": [0.80291368, 0.96222426, 0.65913348], "xyz": [11.583048674077041, 7.549275727693261, 29.864483082676443], "label": "Na", "properties": {}}, {"species": [{"element": "Na", "occu": 1}], "abc": [0.31003856, 0.09810851, 0.63118112], "xyz": [3.24399172843276, 0.7697251295900099, 28.59799790528736], "label": "Na", "properties": {}}, {"species": [{"element": "Na", "occu": 1}], "abc": [0.92518833, 0.13744612, 0.54011118], "xyz": [8.982501741860462, 1.07835428882412, 24.471737041599543], "label": "Na", "properties": {}}, {"species": [{"element": "Zr", "occu": 1}], "abc": [0.61485629, 0.13562524, 0.14670145], "xyz": [6.168516566558139, 1.06406829983124, 6.646852427719351], "label": "Zr", "properties": {}}, {"species": [{"element": "Zr", "occu": 1}], "abc": [0.97151052, 0.45779656, 0.16470115000000002], "xyz": [10.840780791675602, 3.5917120387605603, 7.462395489108451], "label": "Zr", "properties": {}}, {"species": [{"element": "Zr", "occu": 1}], "abc": [0.31473981, 0.80869706, 0.07671288000000002], "xyz": [6.4794642294828595, 6.34475489748606, 3.475761096194641], "label": "Zr", "properties": {}}, {"species": [{"element": "Zr", "occu": 1}], "abc": [0.95163713, 0.44130011, 0.06082807000000001], "xyz": [10.58697428352154, 3.4622866493216105, 2.7560409576932106], "label": "Zr", "properties": {}}, {"species": [{"element": "Zr", "occu": 1}], "abc": [0.94943387, 0.45766042, 0.31940921000000005], "xyz": [10.640567575380821, 3.5906439318334202, 14.472017031354634], "label": "Zr", "properties": {}}, {"species": [{"element": "Zr", "occu": 1}], "abc": [0.29235395, 0.78474305, 0.33843314], "xyz": [6.1694318517979, 6.15682009497555, 15.333966625617421], "label": "Zr", "properties": {}}, {"species": [{"element": "Zr", "occu": 1}], "abc": [0.62392749, 0.12929028, 0.25202704000000004], "xyz": [6.22206636740742, 1.0143664145722802, 11.419018303329121], "label": "Zr", "properties": {}}, {"species": [{"element": "Zr", "occu": 1}], "abc": [0.29307696, 0.78760061, 0.23295489], "xyz": [6.18880899216756, 6.1792395134471105, 10.55488392340767], "label": "Zr", "properties": {}}, {"species": [{"element": "Zr", "occu": 1}], "abc": [0.26997236, 0.78391646, 0.49300645000000004], "xyz": [5.963359106995361, 6.150334958315461, 22.33748282013435], "label": "Zr", "properties": {}}, {"species": [{"element": "Zr", "occu": 1}], "abc": [0.62683144, 0.10563359, 0.51104731], "xyz": [6.1420225783924405, 0.82876428101709, 23.154890787738932], "label": "Zr", "properties": {}}, {"species": [{"element": "Zr", "occu": 1}], "abc": [0.94869712, 0.45458685, 0.42480199], "xyz": [10.62009558570548, 3.56652977428935, 19.24722719871897], "label": "Zr", "properties": {}}, {"species": [{"element": "Zr", "occu": 1}], "abc": [0.61766905, 0.11284136, 0.40570924], "xyz": [6.091570196871021, 0.88531392892536, 18.382159459515723], "label": "Zr", "properties": {}}, {"species": [{"element": "Zr", "occu": 1}], "abc": [0.28997938, 0.7994043, 0.5969039500000001], "xyz": [6.2138417029893205, 6.2718471456993, 27.044943790076854], "label": "Zr", "properties": {}}, {"species": [{"element": "Zr", "occu": 1}], "abc": [0.92678218, 0.4322374, 0.58098819], "xyz": [10.321530883349721, 3.3911837895474, 26.32382134721757], "label": "Zr", "properties": {}}, {"species": [{"element": "Si", "occu": 1}], "abc": [0.29366672, 0.06156551, 0.036626720000000015], "xyz": [2.9317663549558, 0.48302150509701, 1.6595091783441607], "label": "Si", "properties": {}}, {"species": [{"element": "Si", "occu": 1}], "abc": [0.96236992, 0.17149369, 0.11364493000000002], "xyz": [9.471661188046761, 1.34547964044219, 5.149104380825791], "label": "Si", "properties": {}}, {"species": [{"element": "Si", "occu": 1}], "abc": [0.24049707, 0.47698502, 0.11214912000000002], "xyz": [4.31769492869682, 3.74225799914802, 5.081331169791361], "label": "Si", "properties": {}}, {"species": [{"element": "Si", "occu": 1}], "abc": [0.63183332, 0.40984514, 0.20066907], "xyz": [7.554193875333761, 3.21550193248614, 9.09205529391621], "label": "Si", "properties": {}}, {"species": [{"element": "Si", "occu": 1}], "abc": [0.28259069, 0.50886069, 0.28323665000000003], "xyz": [4.84150624072714, 3.99234338135919, 12.833085253564953], "label": "Si", "properties": {}}, {"species": [{"element": "Si", "occu": 1}], "abc": [0.34247634, 0.12202413, 0.19756644], "xyz": [3.6447339680155197, 0.95735873755863, 8.951479152727321], "label": "Si", "properties": {}}, {"species": [{"element": "Si", "occu": 1}], "abc": [0.57087511, 0.79785285, 0.28792162000000004], "xyz": [8.74653127721654, 6.25967501045535, 13.045355167858862], "label": "Si", "properties": {}}, {"species": [{"element": "Si", "occu": 1}], "abc": [0.95924976, 0.73377109, 0.37454592000000003], "xyz": [11.969994920648519, 5.75691188602959, 16.97018984914176], "label": "Si", "properties": {}}, {"species": [{"element": "Si", "occu": 1}], "abc": [0.60939811, 0.83197201, 0.45696373], "xyz": [9.248140488952462, 6.52736203222851, 20.70443392434219], "label": "Si", "properties": {}}, {"species": [{"element": "Si", "occu": 1}], "abc": [0.67081292, 0.44454744, 0.36985736], "xyz": [8.06255163018376, 3.48776406718344, 16.75775727660408], "label": "Si", "properties": {}}, {"species": [{"element": "Si", "occu": 1}], "abc": [0.89923098, 0.1199004, 0.46015362000000004], "xyz": [8.66897356025292, 0.9406966931604, 20.848963702954862], "label": "Si", "properties": {}}, {"species": [{"element": "Si", "occu": 1}], "abc": [0.27925873, 0.06980101, 0.54414459], "xyz": [2.8385049759427403, 0.54763436390751, 24.654485617366774], "label": "Si", "properties": {}}, {"species": [{"element": "Si", "occu": 1}], "abc": [0.94774739, 0.17937914, 0.6211064900000001], "xyz": [9.37488717094834, 1.40734612912014, 28.141529486782474], "label": "Si", "properties": {}}, {"species": [{"element": "Si", "occu": 1}], "abc": [0.00115858, 0.76392704, 0.54551406], "xyz": [3.443113991063, 5.99350494530304, 24.71653452686418], "label": "Si", "properties": {}}, {"species": [{"element": "P", "occu": 1}], "abc": [0.67973551, 0.75498612, 0.11005888000000003], "xyz": [9.53815227959138, 5.92335760736412, 4.9866251064326415], "label": "P", "properties": {}}, {"species": [{"element": "P", "occu": 1}], "abc": [0.59643643, 0.45459159, 0.029704640000000018], "xyz": [7.435224421545501, 3.5665669626750898, 1.3458787114819208], "label": "P", "properties": {}}, {"species": [{"element": "P", "occu": 1}], "abc": [0.9967047, 0.083619, 0.28577859000000005], "xyz": [9.3872348419098, 0.656045490969, 12.948257258068773], "label": "P", "properties": {}}, {"species": [{"element": "P", "occu": 1}], "abc": [0.91671997, 0.8347632, 0.19909256], "xyz": [12.039269744479581, 6.549260734843201, 9.02062567054968], "label": "P", "properties": {}}, {"species": [{"element": "P", "occu": 1}], "abc": [0.32495215, 0.40677234, 0.45869088], "xyz": [4.76578363790618, 3.19139381609334, 20.782688850728643], "label": "P", "properties": {}}, {"species": [{"element": "P", "occu": 1}], "abc": [0.24528303, 0.1587273, 0.37207239000000003], "xyz": [2.93090314198842, 1.2453189999723, 16.858117413010174], "label": "P", "properties": {}}, {"species": [{"element": "P", "occu": 1}], "abc": [0.64521272, 0.78604059, 0.62802176], "xyz": [9.36556211365276, 6.16700014097409, 28.45485140137728], "label": "P", "properties": {}}, {"species": [{"element": "P", "occu": 1}], "abc": [0.5615783, 0.48624238, 0.54768421], "xyz": [7.26228185952076, 3.81488801488938, 24.81486120867963], "label": "P", "properties": {}}, {"species": [{"element": "O", "occu": 1}], "abc": [0.37479121, 0.00573254, 0.07067549000000002], "xyz": [3.41435618225222, 0.04497550818354001, 3.202214785789471], "label": "O", "properties": {}}, {"species": [{"element": "O", "occu": 1}], "abc": [0.89275633, 0.29817769, 0.08468581000000001], "xyz": [9.4115076602693, 2.33939809172619, 3.837004213604431], "label": "O", "properties": {}}, {"species": [{"element": "O", "occu": 1}], "abc": [0.44677161, 0.06451107, 0.16611415000000002], "xyz": [4.329268292934181, 0.5061313408565701, 7.526416686447451], "label": "O", "properties": {}}, {"species": [{"element": "O", "occu": 1}], "abc": [0.13846943, 0.52520446, 0.14417233000000002], "xyz": [3.6119028496599404, 4.12057089680346, 6.532261280787991], "label": "O", "properties": {}}, {"species": [{"element": "O", "occu": 1}], "abc": [0.51046542, 0.48491937, 9.999999999998899e-05], "xyz": [6.79421045524392, 3.80450814015987, 0.004530870299999501], "label": "O", "properties": {}}, {"species": [{"element": "O", "occu": 1}], "abc": [0.77792415, 0.64234614, 0.13703408], "xyz": [9.919766803479781, 5.03962363563714, 6.2088364315982405], "label": "O", "properties": {}}, {"species": [{"element": "O", "occu": 1}], "abc": [0.48406451, 0.59210145, 0.05383503000000002], "xyz": [7.03712531052334, 4.6454213332939505, 2.439195385266091], "label": "O", "properties": {}}, {"species": [{"element": "O", "occu": 1}], "abc": [0.77275478, 0.68374536, 0.08041581000000002], "xyz": [10.05905276145364, 5.36442746742936, 3.643536051794431], "label": "O", "properties": {}}, {"species": [{"element": "O", "occu": 1}], "abc": [0.7688009, 0.46091274, 0.029392540000000016], "xyz": [9.02202580123348, 3.61616049949374, 1.3317378652756207], "label": "O", "properties": {}}, {"species": [{"element": "O", "occu": 1}], "abc": [0.50552033, 0.75760925, 0.11082848000000002], "xyz": [7.974808421768019, 5.94393776987175, 5.021494684261441], "label": "O", "properties": {}}, {"species": [{"element": "O", "occu": 1}], "abc": [0.64203068, 0.27474216, 0.04235572000000001], "xyz": [7.03931785354984, 2.1555311023461603, 1.9190827378311606], "label": "O", "properties": {}}, {"species": [{"element": "O", "occu": 1}], "abc": [0.65414859, 0.93618527, 0.11418733000000002], "xyz": [10.1210158483167, 7.34498289976077, 5.173679821332991], "label": "O", "properties": {}}, {"species": [{"element": "O", "occu": 1}], "abc": [0.20761222, 0.9317626, 0.03711872000000002], "xyz": [6.06387636700388, 7.3102841744526, 1.681801060220161], "label": "O", "properties": {}}, {"species": [{"element": "O", "occu": 1}], "abc": [0.03142657, 0.2571821, 0.13781336], "xyz": [1.4397619931067802, 2.0177610000471002, 6.24414459767208], "label": "O", "properties": {}}, {"species": [{"element": "O", "occu": 1}], "abc": [0.13337429, 0.43786543, 0.08708531000000003], "xyz": [3.1733859454784206, 3.43533934874493, 3.9457224464529315], "label": "O", "properties": {}}, {"species": [{"element": "O", "occu": 1}], "abc": [0.42743603, 0.30196267, 0.11745441000000002], "xyz": [5.22141749835286, 2.3690937238481697, 5.321706978730231], "label": "O", "properties": {}}, {"species": [{"element": "O", "occu": 1}], "abc": [0.1182117, 0.98338355, 0.10516247000000002], "xyz": [5.4875341781124, 7.71528413244105, 4.764775119976411], "label": "O", "properties": {}}, {"species": [{"element": "O", "occu": 1}], "abc": [0.12249676, 0.25679753, 0.03495799000000002], "xyz": [2.2614263240798005, 2.01474379804203, 1.583901186386971], "label": "O", "properties": {}}, {"species": [{"element": "O", "occu": 1}], "abc": [0.7974353, 0.16060693, 0.12476708000000002], "xyz": [7.93152009982336, 1.26006592096143, 5.653034571897241], "label": "O", "properties": {}}, {"species": [{"element": "O", "occu": 1}], "abc": [0.43864694, 0.05039356, 0.015306610000000019], "xyz": [4.19237497396708, 0.39537028440756, 0.6935226464268309], "label": "O", "properties": {}}, {"species": [{"element": "O", "occu": 1}], "abc": [0.26630138, 0.6351333, 0.10143965000000002], "xyz": [5.26162466100532, 4.9830342102783005, 4.596098974273951], "label": "O", "properties": {}}, {"species": [{"element": "O", "occu": 1}], "abc": [0.69069052, 0.30076683, 0.23157882000000002], "xyz": [7.596205337456841, 2.35971158055633, 10.492535976470462], "label": "O", "properties": {}}, {"species": [{"element": "O", "occu": 1}], "abc": [0.22796969, 0.6137616, 0.25191228000000004], "xyz": [4.819024728958061, 4.8153593108016, 11.413818676572843], "label": "O", "properties": {}}, {"species": [{"element": "O", "occu": 1}], "abc": [0.7756728, 0.39221141, 0.33848325], "xyz": [8.775453288834122, 3.07715384107791, 15.33623704472475], "label": "O", "properties": {}}, {"species": [{"element": "O", "occu": 1}], "abc": [0.46569039, 0.8503911, 0.31925487], "xyz": [8.03160130239786, 6.6718717841060995, 14.465024086133612], "label": "O", "properties": {}}, {"species": [{"element": "O", "occu": 1}], "abc": [0.82149031, 0.93859745, 0.17152963000000002], "xyz": [11.64484045586054, 7.363908022189951, 7.771785061369891], "label": "O", "properties": {}}, {"species": [{"element": "O", "occu": 1}], "abc": [0.08718459, 0.9830887, 0.31398556000000005], "xyz": [5.20568407210386, 7.712970842243701, 14.226278484328683], "label": "O", "properties": {}}, {"species": [{"element": "O", "occu": 1}], "abc": [0.82153017, 0.92024732, 0.22800207], "xyz": [11.562746147495819, 7.21993930640532, 10.330478073015211], "label": "O", "properties": {}}, {"species": [{"element": "O", "occu": 1}], "abc": [0.0943707, 0.99156587, 0.25747939000000003], "xyz": [5.30874722273424, 7.77947975953137, 11.666057210131171], "label": "O", "properties": {}}, {"species": [{"element": "O", "occu": 1}], "abc": [0.09781682, 0.81356823, 0.19902481], "xyz": [4.54008787526584, 6.38297239726773, 9.01755600592143], "label": "O", "properties": {}}, {"species": [{"element": "O", "occu": 1}], "abc": [0.81528409, 0.1051469, 0.28572264], "xyz": [7.843691493435261, 0.8249458811319, 12.945722236135921], "label": "O", "properties": {}}, {"species": [{"element": "O", "occu": 1}], "abc": [0.93343357, 0.65503489, 0.19792894], "xyz": [11.382788970984262, 5.13917513976339, 8.96790355756482], "label": "O", "properties": {}}, {"species": [{"element": "O", "occu": 1}], "abc": [0.9804963, 0.26256362, 0.28590494000000005], "xyz": [10.04476183508364, 2.05998252781662, 12.953982012692823], "label": "O", "properties": {}}, {"species": [{"element": "O", "occu": 1}], "abc": [0.57027572, 0.31641469, 0.17642404], "xyz": [6.57781201060396, 2.48247922901319, 7.99354443042012], "label": "O", "properties": {}}, {"species": [{"element": "O", "occu": 1}], "abc": [0.33195037, 0.60893454, 0.30814276], "xyz": [5.737454657829261, 4.7774878826855405, 13.961548794440281], "label": "O", "properties": {}}, {"species": [{"element": "O", "occu": 1}], "abc": [0.44873454, 0.16421187, 0.2221523], "xyz": [4.795012491295201, 1.2883490220773701, 10.0654325814669], "label": "O", "properties": {}}, {"species": [{"element": "O", "occu": 1}], "abc": [0.47007617, 0.75041452, 0.26281669], "xyz": [7.622018464506221, 5.88749042925252, 11.907883350653071], "label": "O", "properties": {}}, {"species": [{"element": "O", "occu": 1}], "abc": [0.75907872, 0.62562941, 0.29125510000000004], "xyz": [9.6742645751106, 4.908470006195911, 13.196390823135303], "label": "O", "properties": {}}, {"species": [{"element": "O", "occu": 1}], "abc": [0.15804243, 0.29856078, 0.19418109], "xyz": [2.7704646656857803, 2.34240368216778, 8.79809333502627], "label": "O", "properties": {}}, {"species": [{"element": "O", "occu": 1}], "abc": [0.45485301, 0.32121853, 0.27962449000000006], "xyz": [5.5558269875193, 2.5201684811130303, 12.669422968936473], "label": "O", "properties": {}}, {"species": [{"element": "O", "occu": 1}], "abc": [0.46421212, 0.60045056, 0.20495889], "xyz": [6.895150006994, 4.7109255365145595, 9.28642147421967], "label": "O", "properties": {}}, {"species": [{"element": "O", "occu": 1}], "abc": [0.12480322, 0.4833383, 0.29427337000000003], "xyz": [3.30022072144628, 3.7921036167333, 13.333144722139112], "label": "O", "properties": {}}, {"species": [{"element": "O", "occu": 1}], "abc": [0.78968157, 0.43232919, 0.18828915000000002], "xyz": [9.08237641104786, 3.3919039418526897, 8.53113717547245], "label": "O", "properties": {}}, {"species": [{"element": "O", "occu": 1}], "abc": [0.59555605, 0.957043, 0.27747448], "xyz": [9.6849858422447, 7.508625369993, 12.572008804399442], "label": "O", "properties": {}}, {"species": [{"element": "O", "occu": 1}], "abc": [0.31063409, 0.96772879, 0.20806468], "xyz": [7.1569382918439395, 7.59246234899229, 9.427140790910041], "label": "O", "properties": {}}, {"species": [{"element": "O", "occu": 1}], "abc": [0.01326872, 0.62911539, 0.40591604000000003], "xyz": [2.9468410413343604, 4.935819788668891, 18.39152929929612], "label": "O", "properties": {}}, {"species": [{"element": "O", "occu": 1}], "abc": [0.5511339, 0.940629, 0.42598845], "xyz": [9.2095972594146, 7.379846854479, 19.30098416248035], "label": "O", "properties": {}}, {"species": [{"element": "O", "occu": 1}], "abc": [0.10256986, 0.71671163, 0.5134311], "xyz": [4.1478448985804, 5.62306931662113, 23.2628972208633], "label": "O", "properties": {}}, {"species": [{"element": "O", "occu": 1}], "abc": [0.79485405, 0.17702035, 0.49160882000000006], "xyz": [7.9819345180749, 1.38883988599785, 22.274158017560463], "label": "O", "properties": {}}, {"species": [{"element": "O", "occu": 1}], "abc": [0.15402568, 0.25883363, 0.34387110000000004], "xyz": [2.55563759547548, 2.03071832804313, 15.580353540183303], "label": "O", "properties": {}}, {"species": [{"element": "O", "occu": 1}], "abc": [0.42014414, 0.30260585, 0.48622041000000005], "xyz": [5.15837944977736, 2.37413988965835, 22.03001614922823], "label": "O", "properties": {}}, {"species": [{"element": "O", "occu": 1}], "abc": [0.1480555, 0.25079124, 0.40039833], "xyz": [2.4655216711278802, 1.9676205428972402, 18.14152901566599], "label": "O", "properties": {}}, {"species": [{"element": "O", "occu": 1}], "abc": [0.41967249, 0.32110915, 0.42976887], "xyz": [5.23725807372186, 2.5193103238066503, 19.47227008947561], "label": "O", "properties": {}}, {"species": [{"element": "O", "occu": 1}], "abc": [0.42647621, 0.13770208, 0.37194790000000005], "xyz": [4.4746489773127, 1.0803624616540801, 16.8524769325737], "label": "O", "properties": {}}, {"species": [{"element": "O", "occu": 1}], "abc": [0.14354273, 0.42868685, 0.45882334], "xyz": [3.22407865952482, 3.3633274133893503, 20.788690441528022], "label": "O", "properties": {}}, {"species": [{"element": "O", "occu": 1}], "abc": [0.26202406, 0.979505, 0.37207991], "xyz": [6.77035608259364, 7.684854382755, 16.858458134456733], "label": "O", "properties": {}}, {"species": [{"element": "O", "occu": 1}], "abc": [0.30907503, 0.58618257, 0.4598316], "xyz": [5.42839800851766, 4.59898386650307, 20.8343733944148], "label": "O", "properties": {}}, {"species": [{"element": "O", "occu": 1}], "abc": [0.91009206, 0.63346797, 0.34965474], "xyz": [11.074842459539282, 4.96996861229847, 15.842402767202222], "label": "O", "properties": {}}, {"species": [{"element": "O", "occu": 1}], "abc": [0.67098635, 0.92562472, 0.48117807], "xyz": [10.22579808468154, 7.26212851009272, 21.80155426374321], "label": "O", "properties": {}}, {"species": [{"element": "O", "occu": 1}], "abc": [0.77231849, 0.49151931, 0.39486603000000003], "xyz": [9.19135729551178, 3.85628896602081, 17.89086767805909], "label": "O", "properties": {}}, {"species": [{"element": "O", "occu": 1}], "abc": [0.79292684, 0.07755083, 0.4355951], "xyz": [7.51755251106292, 0.60843674694033, 19.7362490141553], "label": "O", "properties": {}}, {"species": [{"element": "O", "occu": 1}], "abc": [0.08383115, 0.94343157, 0.46348883], "xyz": [4.99716881132494, 7.40183484060207, 21.00007774228749], "label": "O", "properties": {}}, {"species": [{"element": "O", "occu": 1}], "abc": [0.48279388, 0.61700661, 0.36657615000000005], "xyz": [7.13754631593404, 4.84081852675311, 16.609089907233454], "label": "O", "properties": {}}, {"species": [{"element": "O", "occu": 1}], "abc": [0.7768741, 0.64115629, 0.45277787], "xyz": [9.90492650644688, 5.03028848779479, 20.51477803680261], "label": "O", "properties": {}}, {"species": [{"element": "O", "occu": 1}], "abc": [0.78699158, 0.92144967, 0.37804729000000004], "xyz": [11.25587525487856, 7.229372524885171, 17.128832382564873], "label": "O", "properties": {}}, {"species": [{"element": "O", "occu": 1}], "abc": [0.45153523, 0.80953234, 0.46933276], "xyz": [7.720025096731701, 6.35130821285334, 21.26485863101028], "label": "O", "properties": {}}, {"species": [{"element": "O", "occu": 1}], "abc": [0.11746108, 0.75882197, 0.36360815], "xyz": [4.47169990369916, 5.95345234775247, 16.47461367672945], "label": "O", "properties": {}}, {"species": [{"element": "O", "occu": 1}], "abc": [0.93058278, 0.27442487, 0.44960740000000005], "xyz": [9.64677650927376, 2.15304175574037, 20.371128153202203], "label": "O", "properties": {}}, {"species": [{"element": "O", "occu": 1}], "abc": [0.64574487, 0.28565119, 0.38032020000000005], "xyz": [7.12191770362206, 2.24111954447469, 17.231814986700602], "label": "O", "properties": {}}, {"species": [{"element": "O", "occu": 1}], "abc": [0.34843283, 0.94305313, 0.5730992300000001], "xyz": [7.387809906261581, 7.39886573243763, 25.966382801598694], "label": "O", "properties": {}}, {"species": [{"element": "O", "occu": 1}], "abc": [0.8665773, 0.23536372, 0.5870460000000001], "xyz": [8.892566306838841, 1.84658160518172, 26.598292861338003], "label": "O", "properties": {}}, {"species": [{"element": "O", "occu": 1}], "abc": [0.4630698, 0.5991125, 0.5207496300000001], "xyz": [6.8788095011712, 4.7004275847375006, 23.594490323029895], "label": "O", "properties": {}}, {"species": [{"element": "O", "occu": 1}], "abc": [0.7313389, 0.75552693, 0.65761029], "xyz": [10.00714378212176, 5.92760061388143, 29.795469319353874], "label": "O", "properties": {}}, {"species": [{"element": "O", "occu": 1}], "abc": [0.46900635, 0.55704721, 0.57737167], "xyz": [6.74346691619742, 4.370398000183711, 26.15996151664401], "label": "O", "properties": {}}, {"species": [{"element": "O", "occu": 1}], "abc": [0.75753772, 0.64871605, 0.60385367], "xyz": [9.76406972627228, 5.08959972639855, 27.359826589490012], "label": "O", "properties": {}}, {"species": [{"element": "O", "occu": 1}], "abc": [0.73560702, 0.48393737, 0.5469118500000001], "xyz": [8.82536932189032, 3.79680371087787, 24.779866578830553], "label": "O", "properties": {}}, {"species": [{"element": "O", "occu": 1}], "abc": [0.47284991, 0.77975131, 0.62835712], "xyz": [7.77891894755326, 6.11765664505281, 28.470046128015362], "label": "O", "properties": {}}, {"species": [{"element": "O", "occu": 1}], "abc": [0.58751647, 0.30493996, 0.5435166300000001], "xyz": [6.6821300106557, 2.39245250211396, 24.626033564230895], "label": "O", "properties": {}}, {"species": [{"element": "O", "occu": 1}], "abc": [0.59965319, 0.96598989, 0.6154157100000001], "xyz": [9.76223135243254, 7.57881954646839, 27.883687625924132], "label": "O", "properties": {}}, {"species": [{"element": "O", "occu": 1}], "abc": [0.21029571, 0.98430476, 0.5199043600000001], "xyz": [6.324232161289861, 7.72251162459876, 23.556192235645085], "label": "O", "properties": {}}, {"species": [{"element": "O", "occu": 1}], "abc": [0.03388086, 0.30918148, 0.62061421], "xyz": [1.6956065886426002, 2.42572998774348, 28.119224918469634], "label": "O", "properties": {}}, {"species": [{"element": "O", "occu": 1}], "abc": [0.10866434, 0.80239154, 0.57058876], "xyz": [4.58794201979044, 6.295283988192541, 25.85263666197828], "label": "O", "properties": {}}, {"species": [{"element": "O", "occu": 1}], "abc": [0.81432265, 0.93916897, 0.5402719500000001], "xyz": [11.58260360933474, 7.36839196864947, 24.479021321780852], "label": "O", "properties": {}}, {"species": [{"element": "O", "occu": 1}], "abc": [0.11887358, 0.98398285, 0.6227146100000001], "xyz": [5.4962113315967205, 7.71998603108535, 28.214391318250833], "label": "O", "properties": {}}, {"species": [{"element": "O", "occu": 1}], "abc": [0.1232258, 0.25793784, 0.55252309], "xyz": [2.2731416716952797, 2.0236902723338397, 25.03410458545227], "label": "O", "properties": {}}, {"species": [{"element": "O", "occu": 1}], "abc": [0.80300807, 0.19034202, 0.64245695], "xyz": [8.11551716201482, 1.49335705955502, 29.10889113783585], "label": "O", "properties": {}}, {"species": [{"element": "O", "occu": 1}], "abc": [0.44454098, 0.08008796, 0.53301654], "xyz": [4.37909389574764, 0.62834218346196, 24.15028810494762], "label": "O", "properties": {}}, {"species": [{"element": "O", "occu": 1}], "abc": [0.97564956, 0.60547819, 0.55616047], "xyz": [11.54179747761492, 4.75037056685169, 25.198909555570413], "label": "O", "properties": {}}]}, "formula": "(Na3Zr2Si2PO12)7.0(Na4P2O7)0.5(Na2O)0.5", "bandgap": 3.611, "slab_thickness": 45.23904041605047}