{"miller": "1-10_0.00", "final_energy": -1340.3797062, "gamma": 0.07413983174037826, "work_function": "Not calculated", "ionization_potentail": "Not calculated", "electron_affinity": "Not calculated", "is_stochiometric": false, "incar_parameters": {"SYSTEM": "unknown system", "LCOMPAT": false, "PREC": "normal", "ENMAX": 520.0, "ENAUG": 605.392, "EDIFF": 1e-05, "IALGO": 38, "IWAVPR": 11, "NBANDS": 706, "NBANDSLOW": -1, "NBANDSHIGH": -1, "NELECT": 1176.0, "TURBO": 0, "IRESTART": 0, "NREBOOT": 0, "NMIN": 0, "EREF": 0.0, "ISMEAR": 0, "SIGMA": 0.05, "KSPACING": 0.5, "KGAMMA": true, "KBLOWUP": true, "LREAL": true, "ROPT": [-0.0005, -0.0005, -0.0005, -0.0005, -0.0005], "LMAXPAW": -100, "LMAXMIX": 4, "NLSPLINE": false, "ISTART": 0, "ICHARG": 2, "INIWAV": 1, "ISPIN": 1, "LNONCOLLINEAR": false, "MAGMOM": [0.6, 0.6, 0.6, 0.6, 0.6, 0.6, 0.6, 0.6, 0.6, 0.6, 0.6, 0.6, 0.6, 0.6, 0.6, 0.6, 0.6, 0.6, 0.6, 0.6, 0.6, 0.6, 0.6, 0.6, 0.6, 0.6, 0.6, 0.6, 0.6, 0.6, 0.6, 0.6, 0.6, 0.6, 0.6, 0.6, 0.6, 0.6, 0.6, 0.6, 0.6, 0.6, 0.6, 0.6, 0.6, 0.6, 0.6, 0.6, 0.6, 0.6, 0.6, 0.6, 0.6, 0.6, 0.6, 0.6, 0.6, 0.6, 0.6, 0.6, 0.6, 0.6, 0.6, 0.6, 0.6, 0.6, 0.6, 0.6, 0.6, 0.6, 0.6, 0.6, 0.6, 0.6, 0.6, 0.6, 0.6, 0.6, 0.6, 0.6, 0.6, 0.6, 0.6, 0.6, 0.6, 0.6, 0.6, 0.6, 0.6, 0.6, 0.6, 0.6, 0.6, 0.6, 0.6, 0.6, 0.6, 0.6, 0.6, 0.6, 0.6, 0.6, 0.6, 0.6, 0.6, 0.6, 0.6, 0.6, 0.6, 0.6, 0.6, 0.6, 0.6, 0.6, 0.6, 0.6, 0.6, 0.6, 0.6, 0.6, 0.6, 0.6, 0.6, 0.6, 0.6, 0.6, 0.6, 0.6, 0.6, 0.6, 0.6, 0.6, 0.6, 0.6, 0.6, 0.6, 0.6, 0.6, 0.6, 0.6, 0.6, 0.6, 0.6, 0.6, 0.6, 0.6, 0.6, 0.6, 0.6, 0.6, 0.6, 0.6, 0.6, 0.6, 0.6, 0.6, 0.6, 0.6, 0.6, 0.6, 0.6, 0.6, 0.6, 0.6, 0.6, 0.6, 0.6, 0.6, 0.6, 0.6, 0.6, 0.6, 0.6, 0.6, 0.6, 0.6, 0.6, 0.6], "NUPDOWN": -1.0, "LSORBIT": false, "SAXIS": [0.0, 0.0, 1.0], "LSPIRAL": false, "QSPIRAL": [0.0, 0.0, 0.0], "LZEROZ": false, "LASPH": false, "LMETAGGA": false, "NELM": 100, "NELMDL": -5, "NELMIN": 6, "ENINI": 520.0, "LDIAG": true, "LSUBROT": false, "WEIMIN": 0.001, "EBREAK": 0.0, "DEPER": 0.3, "NRMM": 4, "TIME": 0.4, "AMIX": 0.4, "BMIX": 1.0, "AMIN": 0.1, "AMIX_MAG": 1.6, "BMIX_MAG": 1.0, "IMIX": 4, "MIXFIRST": false, "MAXMIX": -45, "WC": 100.0, "INIMIX": 1, "MIXPRE": 1, "MREMOVE": 5, "LDIPOL": false, "LMONO": false, "IDIPOL": 0, "EPSILON": 1.0, "DIPOL": [-100.0, -100.0, -100.0], "EFIELD": 0.0, "NGX": 54, "NGY": 90, "NGZ": 256, "NGXF": 108, "NGYF": 180, "NGZF": 512, "ADDGRID": false, "NSW": 150, "IBRION": 2, "MDALGO": 0, "ISIF": 2, "PSTRESS": 0.0, "EDIFFG": -0.01, "NFREE": 1, "POTIM": 0.5, "SMASS": -3.0, "SCALEE": 1.0, "TEBEG": 0.0001, "TEEND": 0.0001, "NBLOCK": 1, "KBLOCK": 150, "NPACO": 256, "APACO": 10.0, "ISYM": 0, "SYMPREC": 1e-05, "LORBIT": 11, "RWIGS": [-1.0, -1.0, -1.0, -1.0, -1.0], "NEDOS": 301, "EMIN": 10.0, "EMAX": -10.0, "EFERMI": 0.0, "NWRITE": 2, "LWAVE": false, "LDOWNSAMPLE": false, "LCHARG": false, "LPARD": false, "LVTOT": false, "LVHAR": false, "LELF": false, "LOPTICS": false, "STM": [0.0, 0.0, 0.0, 0.0, 0.0, 0.0, 0.0], "NPAR": 2, "NSIM": 4, "NBLK": -1, "LPLANE": true, "LSCALAPACK": true, "LSCAAWARE": false, "LSCALU": false, "LASYNC": false, "LORBITALREAL": false, "IDIOT": 3, "PHON_NSTRUCT": -1, "LMUSIC": false, "POMASS": [22.99, 91.224, 28.085, 30.974, 16.0], "DARWINR": [0.0, 0.0, 0.0, 0.0, 0.0], "DARWINV": [1.0, 1.0, 1.0, 1.0, 1.0], "LCORR": true, "GGA_COMPAT": true, "LBERRY": false, "ICORELEVEL": 0, "LDAU": false, "I_CONSTRAINED_M": 0, "GGA": "--", "VOSKOWN": 0, "LHFCALC": false, "PRECFOCK": "", "LSYMGRAD": false, "LHFONE": false, "LRHFCALC": false, "LTHOMAS": false, "LMODELHF": false, "LFOCKACE": false, "ENCUT4O": -1.0, "EXXOEP": 0, "FOURORBIT": 0, "AEXX": 0.0, "HFALPHA": 0.0, "MCALPHA": 0.0, "ALDAX": 1.0, "AGGAX": 1.0, "ALDAC": 1.0, "AGGAC": 1.0, "NKREDX": 1, "NKREDY": 1, "NKREDZ": 1, "SHIFTRED": false, "ODDONLY": false, "EVENONLY": false, "LMAXFOCK": 0, "NMAXFOCKAE": 0, "LFOCKAEDFT": false, "HFSCREEN": 0.0, "HFSCREENC": 0.0, "NBANDSGWLOW": 0, "LUSE_VDW": false, "Zab_VDW": -0.8491, "PARAM1": 0.1234, "PARAM2": 1.0, "PARAM3": 0.0, "MODEL_GW": 0, "MODEL_EPS0": 18.8505845, "MODEL_ALPHA": 1.0, "LEPSILON": false, "LRPA": false, "LNABLA": false, "LVEL": false, "CSHIFT": 0.1, "OMEGAMAX": -1.0, "DEG_THRESHOLD": 0.002, "RTIME": -0.1, "WPLASMAI": 0.0, "DFIELD": [0.0, 0.0, 0.0], "WPLASMA": [0.0, 0.0, 0.0, 0.0, 0.0, 0.0, 0.0, 0.0, 0.0], "NUCIND": false, "MAGPOS": [0.0, 0.0, 0.0], "LNICSALL": true, "ORBITALMAG": false, "LMAGBLOCH": false, "LCHIMAG": false, "LGAUGE": true, "MAGATOM": 0, "MAGDIPOL": [0.0, 0.0, 0.0], "AVECCONST": [0.0, 0.0, 0.0], "LFINITE_TEMPERATURE": false, "LADDER": false, "LRPAFORCE": false, "LFXC": false, "LHARTREE": true, "IBSE": 0, "KPOINT": [-1, 0, 0, 0], "LTCTC": false, "LTCTE": false, "LTETE": false, "LTRIPLET": false, "LFXCEPS": false, "LFXHEG": false, "NATURALO": 2, "LHOLEGF": false, "L2ORDER": false, "LDMP1": false, "LMP2LT": false, "LSMP2LT": false, "LGWLF": false, "ENCUTGW": -2.0, "ENCUTGWSOFT": -2.0, "ENCUTLF": -1.0, "LESF_SPLINES": false, "LMAXMP2": -1, "SCISSOR": 0.0, "NOMEGA": 0, "NOMEGAR": 0, "NBANDSGW": -1, "NBANDSO": -1, "NBANDSV": -1, "NELMGW": 1, "NELMHF": 1, "DIM": 3, "IESPILON": 4, "ANTIRES": 0, "OMEGAMIN": -30.0, "OMEGATL": -200.0, "OMEGAGRID": 0, "LSELFENERGY": false, "LSPECTRAL": false, "LSPECTRALGW": false, "LSINGLES": false, "LFERMIGW": false, "ODDONLYGW": false, "EVENONLYGW": false, "NKREDLFX": 1, "NKREDLFY": 1, "NKREDLFZ": 1, "MAXMEM": 2800, "TELESCOPE": 0, "NTAUPAR": -1, "NOMEGAPAR": -1, "DAMP_NEWTON": 0.80000001, "LAMBDA": 1.0, "OFIELD_KAPPA": 0.0, "OFIELD_K": [0.0, 0.0, 0.0], "OFIELD_Q6_NEAR": 0.0, "OFIELD_Q6_FAR": 0.0, "OFIELD_A": 0.0, "KPOINTS_OPT_MODE": 1, "LKPOINTS_OPT": false, "@module": "pymatgen.io.vasp.inputs", "@class": "Incar"}, "relaxed_structures": {"@module": "pymatgen.core.structure", "@class": "Structure", "charge": 0, "lattice": {"matrix": [[9.272956, 0.0, 0.0], [8.736002, 13.168604, 0.0], [0.0, 0.0, 45.796853]], "a": 9.272956, "b": 15.802843486310303, "c": 45.796853, "alpha": 90.0, "beta": 90.0, "gamma": 56.43985526040013, "volume": 5592.340068579235}, "sites": [{"species": [{"element": "Na", "occu": 1}], "abc": [0.55512821, 0.77044536, 0.04217058], "xyz": [11.878291671539479, 10.14568984947744, 1.93127985318474], "label": "Na", "properties": {}}, {"species": [{"element": "Na", "occu": 1}], "abc": [0.02655349, 0.29281449, 0.013815919999999999], "xyz": [2.8042573146854193, 3.85595806427196, 0.6327256572997599], "label": "Na", "properties": {}}, {"species": [{"element": "Na", "occu": 1}], "abc": [0.89029496, 0.10977851, 0.05638752999999999], "xyz": [9.214691274018781, 1.44562972590004, 2.5823714224430896], "label": "Na", "properties": {}}, {"species": [{"element": "Na", "occu": 1}], "abc": [0.70838104, 0.51875265, 0.07136814], "xyz": [11.100610403059541, 6.8312482218006005, 3.2684362164634195], "label": "Na", "properties": {}}, {"species": [{"element": "Na", "occu": 1}], "abc": [0.1688967, 0.03040688, 9.99999999999994e-05], "xyz": [1.8318062321389603, 0.40041616159552, 0.004579685299999972], "label": "Na", "properties": {}}, {"species": [{"element": "Na", "occu": 1}], "abc": [0.41434738, 0.1901144, 0.11079264], "xyz": [5.503064802084079, 2.5035412482976, 5.07395424756192], "label": "Na", "properties": {}}, {"species": [{"element": "Na", "occu": 1}], "abc": [0.59494314, 0.31818874, 0.16165957], "xyz": [8.296579028739322, 4.19010151431896, 7.4034995633332095], "label": "Na", "properties": {}}, {"species": [{"element": "Na", "occu": 1}], "abc": [0.14480402, 0.83517314, 0.10194903999999999], "xyz": [8.6388355274694, 10.99806435209656, 4.668945198371119], "label": "Na", "properties": {}}, {"species": [{"element": "Na", "occu": 1}], "abc": [0.93671332, 0.69534976, 0.15903195], "xyz": [14.76067829503344, 9.15678563093504, 7.28316283645335], "label": "Na", "properties": {}}, {"species": [{"element": "Na", "occu": 1}], "abc": [0.76894267, 0.99884027, 0.1641464], "xyz": [15.856242141833059, 13.15333197488308, 7.5173885512792], "label": "Na", "properties": {}}, {"species": [{"element": "Na", "occu": 1}], "abc": [0.25464332, 0.50390668, 0.10653979999999999], "xyz": [6.7634260663472805, 6.635747521874721, 4.8791875592494], "label": "Na", "properties": {}}, {"species": [{"element": "Na", "occu": 1}], "abc": [0.43001152, 0.68833118, 0.21235243], "xyz": [10.00074046959548, 9.064360730272721, 9.72507302090279], "label": "Na", "properties": {}}, {"species": [{"element": "Na", "occu": 1}], "abc": [0.59070727, 0.82682452, 0.26202946000000005], "xyz": [12.700743183959158, 10.88812468137008, 12.000124661289382], "label": "Na", "properties": {}}, {"species": [{"element": "Na", "occu": 1}], "abc": [0.09070389, 0.3268286, 0.20828641], "xyz": [3.6962684842560396, 4.3038764092744, 9.53886210066773], "label": "Na", "properties": {}}, {"species": [{"element": "Na", "occu": 1}], "abc": [0.93000706, 0.18833275, 0.25796134000000004], "xyz": [10.269189827734861, 2.4800794049809998, 11.81381756766302], "label": "Na", "properties": {}}, {"species": [{"element": "Na", "occu": 1}], "abc": [0.76368723, 0.50073111, 0.26287657000000003], "xyz": [11.4560260599741, 6.593929698070441, 12.038919633434212], "label": "Na", "properties": {}}, {"species": [{"element": "Na", "occu": 1}], "abc": [0.26368959, 0.00072857, 0.20743838], "xyz": [2.45154675470518, 0.00959424981628, 9.50002499541814], "label": "Na", "properties": {}}, {"species": [{"element": "Na", "occu": 1}], "abc": [0.43672315, 0.19534456, 0.31128127], "xyz": [5.75624502098052, 2.57241515419424, 14.25570256384331], "label": "Na", "properties": {}}, {"species": [{"element": "Na", "occu": 1}], "abc": [0.64480446, 0.33516745, 0.36836653], "xyz": [8.90726689971866, 4.4136874227398, 16.87002782453009], "label": "Na", "properties": {}}, {"species": [{"element": "Na", "occu": 1}], "abc": [0.09493499, 0.81818834, 0.30865427], "xyz": [8.028022959747119, 10.77439824687736, 14.13539423101231], "label": "Na", "properties": {}}, {"species": [{"element": "Na", "occu": 1}], "abc": [0.91436199, 0.69009205, 0.35951989], "xyz": [14.507484030326541, 9.0875489299982, 16.46487955290617], "label": "Na", "properties": {}}, {"species": [{"element": "Na", "occu": 1}], "abc": [0.75465648, 0.00388812, 0.36377407], "xyz": [7.0318629582511205, 0.05120111258448, 16.65970760900171], "label": "Na", "properties": {}}, {"species": [{"element": "Na", "occu": 1}], "abc": [0.26894247, 0.4988361, 0.30616986], "xyz": [6.851724858113521, 6.5689750618044, 14.02161607145058], "label": "Na", "properties": {}}, {"species": [{"element": "Na", "occu": 1}], "abc": [0.3903071, 0.60971976, 0.41392978], "xyz": [8.94581360758712, 8.029158070415042, 18.95668128698234], "label": "Na", "properties": {}}, {"species": [{"element": "Na", "occu": 1}], "abc": [0.52655897, 0.79279564, 0.45649817000000004], "xyz": [11.8086224568466, 10.44001183608656, 20.90617958625901], "label": "Na", "properties": {}}, {"species": [{"element": "Na", "occu": 1}], "abc": [0.05514834, 0.27045104, 0.42814183], "xyz": [2.8740489566351197, 3.5614626471481596, 19.60754845166099], "label": "Na", "properties": {}}, {"species": [{"element": "Na", "occu": 1}], "abc": [0.66886194, 0.5303851, 0.47021422], "xyz": [10.83577263406484, 6.984431349400401, 21.53433151184966], "label": "Na", "properties": {}}, {"species": [{"element": "Na", "occu": 1}], "abc": [0.20834565, 0.01876016, 0.39894496], "xyz": [2.09586884052172, 0.24704511801664003, 18.27042368821088], "label": "Na", "properties": {}}, {"species": [{"element": "Zr", "occu": 1}], "abc": [0.96261816, 0.58341339, 0.04300592], "xyz": [14.023016384347741, 7.682739901207561, 1.9695357963697602], "label": "Zr", "properties": {}}, {"species": [{"element": "Zr", "occu": 1}], "abc": [0.92874961, 0.90336127, 0.031401780000000004], "xyz": [16.5040201299897, 11.89600683356708, 1.4381027025983402], "label": "Zr", "properties": {}}, {"species": [{"element": "Zr", "occu": 1}], "abc": [0.54786414, 0.41143367, 0.03853521], "xyz": [8.674605428185181, 5.41800707249668, 1.76479134769413], "label": "Zr", "properties": {}}, {"species": [{"element": "Zr", "occu": 1}], "abc": [0.42566473, 0.08358453, 0.03459896], "xyz": [4.67736493329094, 1.10069157609612, 1.5845234850728798], "label": "Zr", "properties": {}}, {"species": [{"element": "Zr", "occu": 1}], "abc": [0.95484853, 0.10305257, 0.13539148], "xyz": [9.754535862979822, 1.35705848551228, 6.20050370701244], "label": "Zr", "properties": {}}, {"species": [{"element": "Zr", "occu": 1}], "abc": [0.06317701, 0.40242068, 0.13241812], "xyz": [4.1013854992629195, 5.29931857633072, 6.06433317617636], "label": "Zr", "properties": {}}, {"species": [{"element": "Zr", "occu": 1}], "abc": [0.56539557, 0.90359097, 0.13823612], "xyz": [13.13666076430686, 11.89903166190588, 6.330779266930359], "label": "Zr", "properties": {}}, {"species": [{"element": "Zr", "occu": 1}], "abc": [0.43790582, 0.60992774, 0.13424631], "xyz": [9.3890113574994, 8.031896876674962, 6.14805852486243], "label": "Zr", "properties": {}}, {"species": [{"element": "Zr", "occu": 1}], "abc": [0.9466147, 0.60736928, 0.23569345], "xyz": [14.083895706871761, 7.99820553008512, 10.79401828271285], "label": "Zr", "properties": {}}, {"species": [{"element": "Zr", "occu": 1}], "abc": [0.06382311, 0.90466018, 0.2359611], "xyz": [8.494942032613519, 11.91311166498872, 10.8062758104183], "label": "Zr", "properties": {}}, {"species": [{"element": "Zr", "occu": 1}], "abc": [0.5638222, 0.404661, 0.2343527], "xyz": [8.7634177577452, 5.328820463244, 10.7326161520531], "label": "Zr", "properties": {}}, {"species": [{"element": "Zr", "occu": 1}], "abc": [0.44661735, 0.1073695, 0.23462111], "xyz": [5.0794432021256, 1.4139064271780002, 10.74490848536683], "label": "Zr", "properties": {}}, {"species": [{"element": "Zr", "occu": 1}], "abc": [0.93790409, 0.10992824, 0.33606584], "xyz": [9.65747668328652, 1.44760146097696, 15.39075787280152], "label": "Zr", "properties": {}}, {"species": [{"element": "Zr", "occu": 1}], "abc": [0.06539385, 0.40358542, 0.33207896000000003], "xyz": [4.1321173300114395, 5.31465657615368, 15.208171315512882], "label": "Zr", "properties": {}}, {"species": [{"element": "Zr", "occu": 1}], "abc": [0.56317415, 0.90241214, 0.33789835], "xyz": [13.10576337315168, 11.88350811645256, 15.47468106389255], "label": "Zr", "properties": {}}, {"species": [{"element": "Zr", "occu": 1}], "abc": [0.45485203, 0.60304412, 0.33492397], "xyz": [9.48601749910892, 7.94124921080848, 15.33846382026641], "label": "Zr", "properties": {}}, {"species": [{"element": "Zr", "occu": 1}], "abc": [0.92566395, 0.58357169, 0.43571568000000005], "xyz": [13.68172453011958, 7.68482449122076, 19.954406946755043], "label": "Zr", "properties": {}}, {"species": [{"element": "Zr", "occu": 1}], "abc": [0.04787491, 0.9114139, 0.431779], "xyz": [8.40605558716176, 12.0020487291956, 19.774119391487], "label": "Zr", "properties": {}}, {"species": [{"element": "Zr", "occu": 1}], "abc": [0.42871978, 0.40329415, 0.43891506], "xyz": [7.49867815725798, 5.310820956866601, 20.10092848230618], "label": "Zr", "properties": {}}, {"species": [{"element": "Zr", "occu": 1}], "abc": [0.46260781, 0.08341024, 0.42730631], "xyz": [5.0184138908468405, 1.09839642010496, 19.56928426504243], "label": "Zr", "properties": {}}, {"species": [{"element": "Si", "occu": 1}], "abc": [0.26343547, 0.64664039, 0.05902605999999999], "xyz": [8.0918772624701, 8.515351226315559, 2.7032077929891796], "label": "Si", "properties": {}}, {"species": [{"element": "Si", "occu": 1}], "abc": [0.24157373, 0.34466428, 0.05828959], "xyz": [5.25109040845444, 4.53874741626512, 2.66947978466027], "label": "Si", "properties": {}}, {"species": [{"element": "Si", "occu": 1}], "abc": [0.2716, 0.14539635, 0.16320229], "xyz": [3.7887176539927, 1.9146669561954002, 7.47415128439337], "label": "Si", "properties": {}}, {"species": [{"element": "Si", "occu": 1}], "abc": [0.73759556, 0.36318944, 0.10905371], "xyz": [10.01251484789424, 4.78269791234176, 4.99431672597463], "label": "Si", "properties": {}}, {"species": [{"element": "Si", "occu": 1}], "abc": [0.24412993, 0.8637356, 0.16387314], "xyz": [9.80940202824428, 11.374192077102402, 7.50487410322842], "label": "Si", "properties": {}}, {"species": [{"element": "Si", "occu": 1}], "abc": [0.76638743, 0.64659029, 0.10994659999999999], "xyz": [12.75529098396366, 8.514691479255161, 5.035208278049799], "label": "Si", "properties": {}}, {"species": [{"element": "Si", "occu": 1}], "abc": [0.27173662, 0.64347464, 0.2628865], "xyz": [8.141197462837999, 8.47366271820256, 12.0393743961845], "label": "Si", "properties": {}}, {"species": [{"element": "Si", "occu": 1}], "abc": [0.74264454, 0.86578725, 0.2092178], "xyz": [14.45002929063474, 11.401209443499, 9.5815168315834], "label": "Si", "properties": {}}, {"species": [{"element": "Si", "occu": 1}], "abc": [0.24264028, 0.36579082, 0.26109719000000003], "xyz": [5.44554197536932, 4.816954455415281, 11.957429629143071], "label": "Si", "properties": {}}, {"species": [{"element": "Si", "occu": 1}], "abc": [0.77172517, 0.14347635, 0.20742737], "xyz": [8.40958322605522, 1.8893832365154, 9.49952077206661], "label": "Si", "properties": {}}, {"species": [{"element": "Si", "occu": 1}], "abc": [0.26639852, 0.14657924, 0.36036666], "xyz": [3.7508182882236003, 1.93024396618096, 16.50365895412098], "label": "Si", "properties": {}}, {"species": [{"element": "Si", "occu": 1}], "abc": [0.7441272, 0.36373507, 0.30644115000000005], "xyz": [10.077849082993339, 4.78988309774228, 14.034040299700951], "label": "Si", "properties": {}}, {"species": [{"element": "Si", "occu": 1}], "abc": [0.23761419, 0.86317295, 0.36126048000000005], "xyz": [9.74406654639154, 11.366782762061801, 16.54459309726944], "label": "Si", "properties": {}}, {"species": [{"element": "Si", "occu": 1}], "abc": [0.77160099, 0.64538942, 0.30711365], "xyz": [12.79314529372528, 8.49887769776968, 14.064838683343451], "label": "Si", "properties": {}}, {"species": [{"element": "Si", "occu": 1}], "abc": [0.741559, 0.84465658, 0.4120242], "xyz": [14.25536555059716, 11.12294801801432, 18.8694117198426], "label": "Si", "properties": {}}, {"species": [{"element": "Si", "occu": 1}], "abc": [0.76345969, 0.14660116, 0.41128818], "xyz": [8.360236140105961, 1.9305326219806402, 18.83570432009754], "label": "Si", "properties": {}}, {"species": [{"element": "P", "occu": 1}], "abc": [0.27762535, 0.97092175, 0.07958232999999999], "xyz": [11.056382004878099, 12.785684040737001, 3.6446202684074898], "label": "P", "properties": {}}, {"species": [{"element": "P", "occu": 1}], "abc": [0.73876478, 0.00758125, 0.09562852999999999], "xyz": [6.916763114452181, 0.09983447907500001, 4.379485731016089], "label": "P", "properties": {}}, {"species": [{"element": "P", "occu": 1}], "abc": [0.25156499, 0.50528684, 0.17562353], "xyz": [6.746937928224119, 6.6539223023713605, 8.04300498675109], "label": "P", "properties": {}}, {"species": [{"element": "P", "occu": 1}], "abc": [0.75203426, 0.50731158, 0.19199295], "xyz": [11.405455580975719, 6.68058530163432, 8.792672908186349], "label": "P", "properties": {}}, {"species": [{"element": "P", "occu": 1}], "abc": [0.25203547, 0.00731538, 0.27832271000000003], "xyz": [2.40102099806008, 0.09633334232952, 12.74630423643163], "label": "P", "properties": {}}, {"species": [{"element": "P", "occu": 1}], "abc": [0.7515637, 0.00528701, 0.29469095], "xyz": [7.015404451231221, 0.06962254103404, 13.49591811758035], "label": "P", "properties": {}}, {"species": [{"element": "P", "occu": 1}], "abc": [0.23877055, 0.5075607, 0.37469133000000004], "xyz": [6.648160094567199, 6.6838658642628, 17.159683760384493], "label": "P", "properties": {}}, {"species": [{"element": "P", "occu": 1}], "abc": [0.77761672, 0.47092102, 0.39073115], "xyz": [11.32477260198636, 6.20137242765608, 17.89425703907095], "label": "P", "properties": {}}, {"species": [{"element": "O", "occu": 1}], "abc": [0.45339335, 0.56683686, 0.043029880000000006], "xyz": [9.15618452787632, 7.46445014194344, 1.9706330889676402], "label": "O", "properties": {}}, {"species": [{"element": "O", "occu": 1}], "abc": [0.05275808, 0.43018649, 0.04225245], "xyz": [4.24733339149746, 5.66495553295996, 1.9350292415398498], "label": "O", "properties": {}}, {"species": [{"element": "O", "occu": 1}], "abc": [0.89611386, 0.95363912, 0.0738037], "xyz": [16.6406176543684, 12.558095930188479, 3.3799771997561], "label": "O", "properties": {}}, {"species": [{"element": "O", "occu": 1}], "abc": [0.56950385, 0.06528545, 0.07843051999999999], "xyz": [5.851317964651501, 0.8597182380117999, 3.5918709951535592], "label": "O", "properties": {}}, {"species": [{"element": "O", "occu": 1}], "abc": [0.30319649, 0.8703676, 0.07118145], "xyz": [10.415060805459639, 11.4615262588304, 3.2598864019768494], "label": "O", "properties": {}}, {"species": [{"element": "O", "occu": 1}], "abc": [0.29277667, 0.0212898, 0.050996139999999995], "xyz": [2.90089291411612, 0.28035694543920003, 2.3354627271474198], "label": "O", "properties": {}}, {"species": [{"element": "O", "occu": 1}], "abc": [0.16422024, 0.58590116, 0.058206049999999995], "xyz": [6.6412407653917604, 7.71550035918064, 2.66565391556065], "label": "O", "properties": {}}, {"species": [{"element": "O", "occu": 1}], "abc": [0.39455889, 0.35803754, 0.04572653], "xyz": [6.7865438918939205, 4.71485458139416, 2.09413117261009], "label": "O", "properties": {}}, {"species": [{"element": "O", "occu": 1}], "abc": [0.67715866, 0.97040948, 0.023280310000000002], "xyz": [14.75676161729792, 12.778938159965922, 1.06616493486443], "label": "O", "properties": {}}, {"species": [{"element": "O", "occu": 1}], "abc": [0.77268164, 0.64720737, 0.07364625], "xyz": [12.819047728462579, 8.522817561411479, 3.37276648525125], "label": "O", "properties": {}}, {"species": [{"element": "O", "occu": 1}], "abc": [0.98968209, 0.98929923, 0.016577989999999997], "xyz": [17.8197985264365, 13.02768979737492, 0.7592197710654699], "label": "O", "properties": {}}, {"species": [{"element": "O", "occu": 1}], "abc": [0.69890555, 0.3665939, 0.07391112999999999], "xyz": [9.6834854568936, 4.8275298979156, 3.3848971556738894], "label": "O", "properties": {}}, {"species": [{"element": "O", "occu": 1}], "abc": [0.28343963, 0.12300858, 0.0014750400000000004], "xyz": [3.70292641854344, 1.61985127862232, 0.06755219004912001], "label": "O", "properties": {}}, {"species": [{"element": "O", "occu": 1}], "abc": [0.82247881, 0.66834575, 0.013811420000000001], "xyz": [13.46547962475386, 8.801180516833, 0.63251957146126], "label": "O", "properties": {}}, {"species": [{"element": "O", "occu": 1}], "abc": [0.13840512, 0.75689427, 0.042955480000000004], "xyz": [7.895654444443259, 9.96724091149908, 1.96722580310444], "label": "O", "properties": {}}, {"species": [{"element": "O", "occu": 1}], "abc": [0.72799333, 0.34321593, 0.01230026], "xyz": [9.74898516829534, 4.51967466866172, 0.56331319908178], "label": "O", "properties": {}}, {"species": [{"element": "O", "occu": 1}], "abc": [0.28874568, 0.23153764, 0.05040583], "xyz": [4.70023927194536, 3.04902749225456, 2.30842838685299], "label": "O", "properties": {}}, {"species": [{"element": "O", "occu": 1}], "abc": [0.46041291, 0.05816445, 0.14992733], "xyz": [4.7775134077908605, 0.7659446089278, 6.86619989269249], "label": "O", "properties": {}}, {"species": [{"element": "O", "occu": 1}], "abc": [0.55659762, 0.4529358, 0.12463526999999999], "xyz": [9.11815329463632, 5.9645321876232, 5.707903138805309], "label": "O", "properties": {}}, {"species": [{"element": "O", "occu": 1}], "abc": [0.06555691, 0.95124302, 0.14745928], "xyz": [8.917967267132, 12.52654263814408, 6.75317096964584], "label": "O", "properties": {}}, {"species": [{"element": "O", "occu": 1}], "abc": [0.95850972, 0.55550215, 0.12169226999999999], "xyz": [13.74108635253662, 7.315187834498601, 5.5731230004263095], "label": "O", "properties": {}}, {"species": [{"element": "O", "occu": 1}], "abc": [0.09536893, 0.04901009, 0.09330058], "xyz": [1.31250413591726, 0.64539446721436, 4.27287294707474], "label": "O", "properties": {}}, {"species": [{"element": "O", "occu": 1}], "abc": [0.91292082, 0.45083003, 0.17184134], "xyz": [12.40392663908398, 5.93680213637812, 7.86979258730302], "label": "O", "properties": {}}, {"species": [{"element": "O", "occu": 1}], "abc": [0.41842062, 0.95542602, 0.10094539], "xyz": [12.226599620324759, 12.58162690867608, 4.62298118685767], "label": "O", "properties": {}}, {"species": [{"element": "O", "occu": 1}], "abc": [0.58077502, 0.56634438, 0.17460018], "xyz": [10.33308684272788, 7.4579648678455195, 7.996138777233539], "label": "O", "properties": {}}, {"species": [{"element": "O", "occu": 1}], "abc": [0.75627829, 0.08619439, 0.11298963000000001], "xyz": [7.76592967035402, 1.13505978893156, 5.1745694756343905], "label": "O", "properties": {}}, {"species": [{"element": "O", "occu": 1}], "abc": [0.25386013, 0.42374211, 0.15616433], "xyz": [6.0558457360885, 5.58009204471444, 7.151834864853489], "label": "O", "properties": {}}, {"species": [{"element": "O", "occu": 1}], "abc": [0.75707924, 0.92524213, 0.11625477000000001], "xyz": [15.1032795791977, 12.18414721408652, 5.32410261223881], "label": "O", "properties": {}}, {"species": [{"element": "O", "occu": 1}], "abc": [0.24730066, 0.58571102, 0.15504755], "xyz": [7.409980781092999, 7.71299648081608, 7.10068985536015], "label": "O", "properties": {}}, {"species": [{"element": "O", "occu": 1}], "abc": [0.12846069, 0.11826025, 0.155406], "xyz": [2.22433210662014, 1.557322401191, 7.117105737317999], "label": "O", "properties": {}}, {"species": [{"element": "O", "occu": 1}], "abc": [0.88632423, 0.38911773, 0.11185439999999999], "xyz": [11.618178854039341, 5.12413729574892, 5.122579514203199], "label": "O", "properties": {}}, {"species": [{"element": "O", "occu": 1}], "abc": [0.39363513, 0.88820665, 0.16024386], "xyz": [11.409536311357579, 11.6964416440166, 7.3386645005725795], "label": "O", "properties": {}}, {"species": [{"element": "O", "occu": 1}], "abc": [0.6250424, 0.61737599, 0.11587163], "xyz": [11.18938855672638, 8.12997993141796, 5.30655600598039], "label": "O", "properties": {}}, {"species": [{"element": "O", "occu": 1}], "abc": [0.79454194, 0.14144031, 0.17168856999999998], "xyz": [8.60337528081526, 1.8625714320272402, 7.862796202070209], "label": "O", "properties": {}}, {"species": [{"element": "O", "occu": 1}], "abc": [0.22268085, 0.36220309, 0.09446852], "xyz": [5.22911664273878, 4.7697090597863605, 4.3263609235675595], "label": "O", "properties": {}}, {"species": [{"element": "O", "occu": 1}], "abc": [0.73311557, 0.86156262, 0.17359317], "xyz": [14.32476119497016, 11.345576963982479, 7.950020888294009], "label": "O", "properties": {}}, {"species": [{"element": "O", "occu": 1}], "abc": [0.29725239, 0.65452279, 0.09431947], "xyz": [8.47432073585042, 8.61915143048516, 4.31953490262791], "label": "O", "properties": {}}, {"species": [{"element": "O", "occu": 1}], "abc": [0.79893846, 0.25319446, 0.12255210999999999], "xyz": [9.62042849523668, 3.33421757873384, 5.612500966509829], "label": "O", "properties": {}}, {"species": [{"element": "O", "occu": 1}], "abc": [0.21059723, 0.25653328, 0.14909466], "xyz": [4.19393409465844, 3.3781851771411198, 6.828066227104979], "label": "O", "properties": {}}, {"species": [{"element": "O", "occu": 1}], "abc": [0.7155928, 0.75348176, 0.12415899999999999], "xyz": [13.21807871064032, 9.922302918663041, 5.686091471626999], "label": "O", "properties": {}}, {"species": [{"element": "O", "occu": 1}], "abc": [0.29933589, 0.75530861, 0.14918174], "xyz": [9.37410606476806, 9.946359982880441, 6.83205421706422], "label": "O", "properties": {}}, {"species": [{"element": "O", "occu": 1}], "abc": [0.45326802, 0.55869981, 0.2464237], "xyz": [9.083937063226738, 7.3572965527652405, 11.2854299646161], "label": "O", "properties": {}}, {"species": [{"element": "O", "occu": 1}], "abc": [0.55670756, 0.95266812, 0.22399268], "xyz": [13.4848353104036, 12.54530921570448, 10.25815983903604], "label": "O", "properties": {}}, {"species": [{"element": "O", "occu": 1}], "abc": [0.05670293, 0.45267162, 0.24632161], "xyz": [4.480343952624319, 5.9610533058184805, 11.28075456389333], "label": "O", "properties": {}}, {"species": [{"element": "O", "occu": 1}], "abc": [0.95326876, 0.0586958, 0.22389153], "xyz": [9.352385893846161, 0.7729417466632, 10.25352748735509], "label": "O", "properties": {}}, {"species": [{"element": "O", "occu": 1}], "abc": [0.08751688, 0.563708, 0.19480981], "xyz": [5.736094392913279, 7.423247423632, 8.921676231527929], "label": "O", "properties": {}}, {"species": [{"element": "O", "occu": 1}], "abc": [0.91816618, 0.95015416, 0.2761043], "xyz": [16.8146632298964, 12.51220387199264, 12.6447080397679], "label": "O", "properties": {}}, {"species": [{"element": "O", "occu": 1}], "abc": [0.41817672, 0.45015862, 0.19420824], "xyz": [7.810320929421559, 5.92796060396648, 8.89412621866872], "label": "O", "properties": {}}, {"species": [{"element": "O", "occu": 1}], "abc": [0.58751422, 0.06370846, 0.27550424], "xyz": [6.00455074541124, 0.83895148118984, 12.61722718015672], "label": "O", "properties": {}}, {"species": [{"element": "O", "occu": 1}], "abc": [0.7568313, 0.58545183, 0.21190501], "xyz": [12.13257170210646, 7.70958331034532, 9.70458259293353], "label": "O", "properties": {}}, {"species": [{"element": "O", "occu": 1}], "abc": [0.25771571, 0.92539969, 0.25845277], "xyz": [10.47407998197814, 12.18622205933276, 11.83632351513281], "label": "O", "properties": {}}, {"species": [{"element": "O", "occu": 1}], "abc": [0.75771451, 0.42539867, 0.21186227], "xyz": [10.742536943708899, 5.60190662735668, 9.70262523543631], "label": "O", "properties": {}}, {"species": [{"element": "O", "occu": 1}], "abc": [0.25683166, 0.08545705, 0.25840997000000004], "xyz": [3.12814164230106, 1.1253500504582001, 11.834363409824412], "label": "O", "properties": {}}, {"species": [{"element": "O", "occu": 1}], "abc": [0.12347158, 0.61902879, 0.25671463], "xyz": [6.552783276088059, 8.15174500010916, 11.756722173059389], "label": "O", "properties": {}}, {"species": [{"element": "O", "occu": 1}], "abc": [0.88737692, 0.89230041, 0.2158341], "xyz": [16.02374530093634, 11.75035074832764, 9.8845225500873], "label": "O", "properties": {}}, {"species": [{"element": "O", "occu": 1}], "abc": [0.38737075, 0.39230989, 0.25448131], "xyz": [7.01929190409678, 5.16617358669356, 11.65444314531743], "label": "O", "properties": {}}, {"species": [{"element": "O", "occu": 1}], "abc": [0.62347392, 0.11902629, 0.21359865], "xyz": [6.8212601348001005, 1.56741007859916, 9.782145975048449], "label": "O", "properties": {}}, {"species": [{"element": "O", "occu": 1}], "abc": [0.7779606, 0.65004621, 0.27118266], "xyz": [12.89279940418602, 8.56020112119084, 12.41931241616898], "label": "O", "properties": {}}, {"species": [{"element": "O", "occu": 1}], "abc": [0.2219899, 0.86014097, 0.19949524999999999], "xyz": [9.572695809346339, 11.32685581810588, 9.13625463844825], "label": "O", "properties": {}}, {"species": [{"element": "O", "occu": 1}], "abc": [0.72199461, 0.36013395, 0.27081959], "xyz": [9.84115515823506, 4.7424613745058, 12.402684952750269], "label": "O", "properties": {}}, {"species": [{"element": "O", "occu": 1}], "abc": [0.27795996, 0.15005493, 0.19913219], "xyz": [3.88839064743162, 1.97601395141772, 9.11962763299807], "label": "O", "properties": {}}, {"species": [{"element": "O", "occu": 1}], "abc": [0.79998007, 0.7558064, 0.22276645], "xyz": [14.02090621199972, 9.9529151822656, 10.20200236398185], "label": "O", "properties": {}}, {"species": [{"element": "O", "occu": 1}], "abc": [0.21067561, 0.75673154, 0.2511585], "xyz": [8.56439390870624, 9.96509798457016, 11.5022689042005], "label": "O", "properties": {}}, {"species": [{"element": "O", "occu": 1}], "abc": [0.71065097, 0.25672741, 0.2191584], "xyz": [8.83260634338214, 3.3807415982356397, 10.0367650285152], "label": "O", "properties": {}}, {"species": [{"element": "O", "occu": 1}], "abc": [0.29999242, 0.25581012, 0.24754782], "xyz": [5.0165742309337595, 3.3686621694724797, 11.33691112301046], "label": "O", "properties": {}}, {"species": [{"element": "O", "occu": 1}], "abc": [0.45854225, 0.0554841, 0.34862643000000004], "xyz": [4.7367513169592, 0.7306481411964, 15.965993366624792], "label": "O", "properties": {}}, {"species": [{"element": "O", "occu": 1}], "abc": [0.56555972, 0.45124191, 0.32285668], "xyz": [9.18646062717614, 5.94222602099364, 14.785819914028039], "label": "O", "properties": {}}, {"species": [{"element": "O", "occu": 1}], "abc": [0.05661244, 0.95292951, 0.34567896000000004], "xyz": [8.84975877039166, 12.54875135710404, 15.831008516312881], "label": "O", "properties": {}}, {"species": [{"element": "O", "occu": 1}], "abc": [0.96041254, 0.55815546, 0.3203886], "xyz": [13.78191044013916, 7.35012822317784, 14.6727896170758], "label": "O", "properties": {}}, {"species": [{"element": "O", "occu": 1}], "abc": [0.08077061, 0.066352, 0.29571134000000004], "xyz": [1.32863351732716, 0.8737632126079999, 13.542648768413022], "label": "O", "properties": {}}, {"species": [{"element": "O", "occu": 1}], "abc": [0.91840506, 0.45543475, 0.36936791], "xyz": [12.49500859842686, 5.997439870589, 16.91588787718723], "label": "O", "properties": {}}, {"species": [{"element": "O", "occu": 1}], "abc": [0.41291707, 0.95083314, 0.29847476], "xyz": [12.135442034465198, 12.52114509073656, 13.66920470793028], "label": "O", "properties": {}}, {"species": [{"element": "O", "occu": 1}], "abc": [0.5953576, 0.5490043, 0.37701183000000005], "xyz": [10.3168274918742, 7.2296202209972, 17.26595535777099], "label": "O", "properties": {}}, {"species": [{"element": "O", "occu": 1}], "abc": [0.74731382, 0.08570841, 0.31526495000000004], "xyz": [7.67855701222874, 1.12866011075964, 14.438142571202352], "label": "O", "properties": {}}, {"species": [{"element": "O", "occu": 1}], "abc": [0.25705109, 0.4252398, 0.35406317000000004], "xyz": [6.098519190601639, 5.5998145312392005, 16.21497894920401], "label": "O", "properties": {}}, {"species": [{"element": "O", "occu": 1}], "abc": [0.7538549, 0.92373841, 0.31414781], "xyz": [15.06024391532122, 12.16434532087964, 14.38698107484193], "label": "O", "properties": {}}, {"species": [{"element": "O", "occu": 1}], "abc": [0.25632521, 0.58616631, 0.35733428], "xyz": [7.49764245051338, 7.718992014531239, 16.36478549302084], "label": "O", "properties": {}}, {"species": [{"element": "O", "occu": 1}], "abc": [0.12506366, 0.11736604, 0.35443610000000003], "xyz": [2.18501977655104, 1.5455469038081602, 16.232057969593303], "label": "O", "properties": {}}, {"species": [{"element": "O", "occu": 1}], "abc": [0.89363724, 0.38820309, 0.31006957], "xyz": [11.67800177712762, 5.11209276378636, 14.20021051706321], "label": "O", "properties": {}}, {"species": [{"element": "O", "occu": 1}], "abc": [0.38632316, 0.8891176, 0.35845877000000004], "xyz": [11.349690796296159, 11.7084375838304, 16.41628359625081], "label": "O", "properties": {}}, {"species": [{"element": "O", "occu": 1}], "abc": [0.62845835, 0.61825469, 0.31490592], "xyz": [11.22874083573198, 8.14155118375276, 14.42170012706976], "label": "O", "properties": {}}, {"species": [{"element": "O", "occu": 1}], "abc": [0.7972632, 0.15451589, 0.37599594000000003], "xyz": [8.74283769809098, 2.03475856711756, 17.21943079277682], "label": "O", "properties": {}}, {"species": [{"element": "O", "occu": 1}], "abc": [0.23311697, 0.36155639, 0.29672170000000003], "xyz": [5.3202407518161, 4.76119292357956, 13.588920076810101], "label": "O", "properties": {}}, {"species": [{"element": "O", "occu": 1}], "abc": [0.72268391, 0.86216908, 0.37584665], "xyz": [14.233326906556119, 11.353563195564321, 17.21259378059245], "label": "O", "properties": {}}, {"species": [{"element": "O", "occu": 1}], "abc": [0.29453498, 0.64143618, 0.29862774000000003], "xyz": [8.33479766135324, 8.44681904569272, 13.676210710502222], "label": "O", "properties": {}}, {"species": [{"element": "O", "occu": 1}], "abc": [0.79933424, 0.25531139, 0.32113189000000003], "xyz": [9.642592050476221, 3.3620945915995604, 14.706829959942171], "label": "O", "properties": {}}, {"species": [{"element": "O", "occu": 1}], "abc": [0.21561374, 0.25346948, 0.34615249000000003], "xyz": [4.2136866082344, 3.3378392082059203, 15.852694700113972], "label": "O", "properties": {}}, {"species": [{"element": "O", "occu": 1}], "abc": [0.71060331, 0.75652495, 0.32121977], "xyz": [13.19839670333426, 9.9623774826698, 14.71085458738381], "label": "O", "properties": {}}, {"species": [{"element": "O", "occu": 1}], "abc": [0.29893092, 0.75319223, 0.34775934000000003], "xyz": [9.351862095863979, 9.91849021274692, 15.926283373357021], "label": "O", "properties": {}}, {"species": [{"element": "O", "occu": 1}], "abc": [0.5527546, 0.9301867, 0.42806358], "xyz": [13.251781956171, 12.249260298366801, 19.60396484791374], "label": "O", "properties": {}}, {"species": [{"element": "O", "occu": 1}], "abc": [0.95340102, 0.06680227, 0.42728749000000005], "xyz": [9.42443047313966, 0.8796926399310799, 19.568422368268973], "label": "O", "properties": {}}, {"species": [{"element": "O", "occu": 1}], "abc": [0.06950883, 0.5652888, 0.39188788], "xyz": [5.58291640957908, 7.4440643528352, 17.94723163284164], "label": "O", "properties": {}}, {"species": [{"element": "O", "occu": 1}], "abc": [0.39611667, 0.453589, 0.39651693000000005], "xyz": [7.63572686295452, 5.973133919756, 18.159227555221293], "label": "O", "properties": {}}, {"species": [{"element": "O", "occu": 1}], "abc": [0.79274649, 0.52130175, 0.41931617000000004], "xyz": [11.905196451527939, 6.864816310257, 19.20336099801301], "label": "O", "properties": {}}, {"species": [{"element": "O", "occu": 1}], "abc": [0.80318131, 0.37037469, 0.39913248], "xyz": [10.683458980241742, 4.87731762423276, 18.27901151408544], "label": "O", "properties": {}}, {"species": [{"element": "O", "occu": 1}], "abc": [0.17710726, 0.47034992, 0.44703324], "xyz": [5.7512856710803995, 6.19385183791168, 20.472715578393718], "label": "O", "properties": {}}, {"species": [{"element": "O", "occu": 1}], "abc": [0.8945534, 0.85802819, 0.42458785000000004], "xyz": [15.79089030174678, 11.299033454946759, 19.44478735203605], "label": "O", "properties": {}}, {"species": [{"element": "O", "occu": 1}], "abc": [0.66421802, 0.08588326, 0.41210614], "xyz": [6.9095408049936395, 1.13096264116904, 18.87316431397742], "label": "O", "properties": {}}, {"species": [{"element": "O", "occu": 1}], "abc": [0.78347622, 0.62296914, 0.46884297], "xyz": [12.7074001680846, 8.20363390888056, 21.47153257717341], "label": "O", "properties": {}}, {"species": [{"element": "O", "occu": 1}], "abc": [0.19888818, 0.86661007, 0.39640071000000004], "xyz": [9.41498864680022, 11.41204483424228, 18.153905044965633], "label": "O", "properties": {}}, {"species": [{"element": "O", "occu": 1}], "abc": [0.48965111, 0.48924447, 0.45373101000000005], "xyz": [8.8145538667901, 6.44266668461988, 20.77945236651153], "label": "O", "properties": {}}, {"species": [{"element": "O", "occu": 1}], "abc": [0.27267062, 0.14720519, 0.39666698], "xyz": [3.8144474960031, 1.9384868538547602, 18.16609937301394], "label": "O", "properties": {}}, {"species": [{"element": "O", "occu": 1}], "abc": [0.78872032, 0.73154326, 0.41991426000000004], "xyz": [13.70453220611244, 9.63340349980904, 19.230751637823783], "label": "O", "properties": {}}, {"species": [{"element": "O", "occu": 1}], "abc": [0.22802682, 0.84320812, 0.45801012], "xyz": [9.48075049141616, 11.10387382186448, 20.97542213815236], "label": "O", "properties": {}}, {"species": [{"element": "O", "occu": 1}], "abc": [0.638418, 0.25684903, 0.42736106], "xyz": [8.16385566338606, 3.3823431638541197, 19.57179164274418], "label": "O", "properties": {}}, {"species": [{"element": "O", "occu": 1}], "abc": [0.32249899, 0.16834703, 0.45650271000000003], "xyz": [4.4611989350885, 2.2168953726461202, 20.90638750397163], "label": "O", "properties": {}}]}, "formula": "(Na3Zr2Si2PO12)8.0(ZrO2)4.0(Na2O)2.0", "bandgap": 3.9370000000000003, "slab_thickness": 21.52975182654966}