{"miller": "100_0.09", "final_energy": -599.24227951, "gamma": 0.05978658261221656, "work_function": "Not calculated", "ionization_potentail": "Not calculated", "electron_affinity": "Not calculated", "is_stochiometric": true, "incar_parameters": {"SYSTEM": "unknown system", "LCOMPAT": false, "PREC": "normal", "ENMAX": 520.0, "ENAUG": 605.392, "EDIFF": 1e-05, "IALGO": 38, "IWAVPR": 11, "NBANDS": 312, "NBANDSLOW": -1, "NBANDSHIGH": -1, "NELECT": 520.0, "TURBO": 0, "IRESTART": 0, "NREBOOT": 0, "NMIN": 0, "EREF": 0.0, "ISMEAR": 0, "SIGMA": 0.05, "KSPACING": 0.5, "KGAMMA": true, "KBLOWUP": true, "LREAL": true, "ROPT": [-0.0005, -0.0005, -0.0005, -0.0005, -0.0005], "LMAXPAW": -100, "LMAXMIX": 4, "NLSPLINE": false, "ISTART": 0, "ICHARG": 2, "INIWAV": 1, "ISPIN": 1, "LNONCOLLINEAR": false, "MAGMOM": [0.6, 0.6, 0.6, 0.6, 0.6, 0.6, 0.6, 0.6, 0.6, 0.6, 0.6, 0.6, 0.6, 0.6, 0.6, 0.6, 0.6, 0.6, 0.6, 0.6, 0.6, 0.6, 0.6, 0.6, 0.6, 0.6, 0.6, 0.6, 0.6, 0.6, 0.6, 0.6, 0.6, 0.6, 0.6, 0.6, 0.6, 0.6, 0.6, 0.6, 0.6, 0.6, 0.6, 0.6, 0.6, 0.6, 0.6, 0.6, 0.6, 0.6, 0.6, 0.6, 0.6, 0.6, 0.6, 0.6, 0.6, 0.6, 0.6, 0.6, 0.6, 0.6, 0.6, 0.6, 0.6, 0.6, 0.6, 0.6, 0.6, 0.6, 0.6, 0.6, 0.6, 0.6, 0.6, 0.6, 0.6, 0.6, 0.6, 0.6], "NUPDOWN": -1.0, "LSORBIT": false, "SAXIS": [0.0, 0.0, 1.0], "LSPIRAL": false, "QSPIRAL": [0.0, 0.0, 0.0], "LZEROZ": false, "LASPH": false, "LMETAGGA": false, "NELM": 100, "NELMDL": -5, "NELMIN": 6, "ENINI": 520.0, "LDIAG": true, "LSUBROT": false, "WEIMIN": 0.001, "EBREAK": 1e-08, "DEPER": 0.3, "NRMM": 4, "TIME": 0.4, "AMIX": 0.4, "BMIX": 1.0, "AMIN": 0.1, "AMIX_MAG": 1.6, "BMIX_MAG": 1.0, "IMIX": 4, "MIXFIRST": false, "MAXMIX": -45, "WC": 100.0, "INIMIX": 1, "MIXPRE": 1, "MREMOVE": 5, "LDIPOL": false, "LMONO": false, "IDIPOL": 0, "EPSILON": 1.0, "DIPOL": [-100.0, -100.0, -100.0], "EFIELD": 0.0, "NGX": 54, "NGY": 54, "NGZ": 252, "NGXF": 108, "NGYF": 108, "NGZF": 504, "ADDGRID": false, "NSW": 150, "IBRION": 2, "MDALGO": 0, "ISIF": 2, "PSTRESS": 0.0, "EDIFFG": -0.01, "NFREE": 1, "POTIM": 0.5, "SMASS": -3.0, "SCALEE": 1.0, "TEBEG": 0.0001, "TEEND": 0.0001, "NBLOCK": 1, "KBLOCK": 150, "NPACO": 256, "APACO": 10.0, "ISYM": 0, "SYMPREC": 1e-05, "LORBIT": 11, "RWIGS": [-1.0, -1.0, -1.0, -1.0, -1.0], "NEDOS": 301, "EMIN": 10.0, "EMAX": -10.0, "EFERMI": 0.0, "NWRITE": 2, "LWAVE": false, "LDOWNSAMPLE": false, "LCHARG": false, "LPARD": false, "LVTOT": false, "LVHAR": false, "LELF": false, "LOPTICS": false, "STM": [0.0, 0.0, 0.0, 0.0, 0.0, 0.0, 0.0], "NPAR": 2, "NSIM": 4, "NBLK": -1, "LPLANE": true, "LSCALAPACK": true, "LSCAAWARE": false, "LSCALU": false, "LASYNC": false, "LORBITALREAL": false, "IDIOT": 3, "PHON_NSTRUCT": -1, "LMUSIC": false, "POMASS": [22.99, 91.224, 28.085, 30.974, 16.0], "DARWINR": [0.0, 0.0, 0.0, 0.0, 0.0], "DARWINV": [1.0, 1.0, 1.0, 1.0, 1.0], "LCORR": true, "GGA_COMPAT": true, "LBERRY": false, "ICORELEVEL": 0, "LDAU": false, "I_CONSTRAINED_M": 0, "GGA": "--", "VOSKOWN": 0, "LHFCALC": false, "PRECFOCK": "", "LSYMGRAD": false, "LHFONE": false, "LRHFCALC": false, "LTHOMAS": false, "LMODELHF": false, "LFOCKACE": false, "ENCUT4O": -1.0, "EXXOEP": 0, "FOURORBIT": 0, "AEXX": 0.0, "HFALPHA": 0.0, "MCALPHA": 0.0, "ALDAX": 1.0, "AGGAX": 1.0, "ALDAC": 1.0, "AGGAC": 1.0, "NKREDX": 1, "NKREDY": 1, "NKREDZ": 1, "SHIFTRED": false, "ODDONLY": false, "EVENONLY": false, "LMAXFOCK": 0, "NMAXFOCKAE": 0, "LFOCKAEDFT": false, "HFSCREEN": 0.0, "HFSCREENC": 0.0, "NBANDSGWLOW": 0, "LUSE_VDW": false, "Zab_VDW": -0.8491, "PARAM1": 0.1234, "PARAM2": 1.0, "PARAM3": 0.0, "MODEL_GW": 0, "MODEL_EPS0": 25.16553134, "MODEL_ALPHA": 1.0, "LEPSILON": false, "LRPA": false, "LNABLA": false, "LVEL": false, "CSHIFT": 0.1, "OMEGAMAX": -1.0, "DEG_THRESHOLD": 0.002, "RTIME": -0.1, "WPLASMAI": 0.0, "DFIELD": [0.0, 0.0, 0.0], "WPLASMA": [0.0, 0.0, 0.0, 0.0, 0.0, 0.0, 0.0, 0.0, 0.0], "NUCIND": false, "MAGPOS": [0.0, 0.0, 0.0], "LNICSALL": true, "ORBITALMAG": false, "LMAGBLOCH": false, "LCHIMAG": false, "LGAUGE": true, "MAGATOM": 0, "MAGDIPOL": [0.0, 0.0, 0.0], "AVECCONST": [0.0, 0.0, 0.0], "LFINITE_TEMPERATURE": false, "LADDER": false, "LRPAFORCE": false, "LFXC": false, "LHARTREE": true, "IBSE": 0, "KPOINT": [-1, 0, 0, 0], "LTCTC": false, "LTCTE": false, "LTETE": false, "LTRIPLET": false, "LFXCEPS": false, "LFXHEG": false, "NATURALO": 2, "LHOLEGF": false, "L2ORDER": false, "LDMP1": false, "LMP2LT": false, "LSMP2LT": false, "LGWLF": false, "ENCUTGW": -2.0, "ENCUTGWSOFT": -2.0, "ENCUTLF": -1.0, "LESF_SPLINES": false, "LMAXMP2": -1, "SCISSOR": 0.0, "NOMEGA": 0, "NOMEGAR": 0, "NBANDSGW": -1, "NBANDSO": -1, "NBANDSV": -1, "NELMGW": 1, "NELMHF": 1, "DIM": 3, "IESPILON": 4, "ANTIRES": 0, "OMEGAMIN": -30.0, "OMEGATL": -200.0, "OMEGAGRID": 0, "LSELFENERGY": false, "LSPECTRAL": false, "LSPECTRALGW": false, "LSINGLES": false, "LFERMIGW": false, "ODDONLYGW": false, "EVENONLYGW": false, "NKREDLFX": 1, "NKREDLFY": 1, "NKREDLFZ": 1, "MAXMEM": 2800, "TELESCOPE": 0, "NTAUPAR": -1, "NOMEGAPAR": -1, "DAMP_NEWTON": 0.80000001, "LAMBDA": 1.0, "OFIELD_KAPPA": 0.0, "OFIELD_K": [0.0, 0.0, 0.0], "OFIELD_Q6_NEAR": 0.0, "OFIELD_Q6_FAR": 0.0, "OFIELD_A": 0.0, "KPOINTS_OPT_MODE": 1, "LKPOINTS_OPT": false, "@module": "pymatgen.io.vasp.inputs", "@class": "Incar"}, "relaxed_structures": {"@module": "pymatgen.core.structure", "@class": "Structure", "charge": 0, "lattice": {"matrix": [[9.132688, 0.0, 0.0], [4.435089, 8.143568, 0.0], [0.0, 0.0, 45.116094]], "a": 9.132688, "b": 9.27295606635473, "c": 45.116094, "alpha": 90.0, "beta": 90.0, "gamma": 61.42673605530538, "volume": 3355.404179042951}, "sites": [{"species": [{"element": "Na", "occu": 1}], "abc": [0.25680135, 0.83390539, 0.00010000000000000286], "xyz": [6.043731229758509, 6.79096524903152, 0.004511609400000129], "label": "Na", "properties": {}}, {"species": [{"element": "Na", "occu": 1}], "abc": [0.82726006, 0.13675279, 0.05178782], "xyz": [8.16161881748959, 1.11365564455472, 2.3364641551750798], "label": "Na", "properties": {}}, {"species": [{"element": "Na", "occu": 1}], "abc": [0.20370787, 0.65389842, 0.05877254], "xyz": [4.760498109513939, 5.32506624836256, 2.6515874392587597], "label": "Na", "properties": {}}, {"species": [{"element": "Na", "occu": 1}], "abc": [0.29969517, 0.85744237, 0.20539834], "xyz": [6.539855706037891, 6.98264024617616, 9.26677081488396], "label": "Na", "properties": {}}, {"species": [{"element": "Na", "occu": 1}], "abc": [0.68180447, 0.00938249, 0.17784202], "xyz": [6.26831967970697, 0.07640694532432, 8.023537291469879], "label": "Na", "properties": {}}, {"species": [{"element": "Na", "occu": 1}], "abc": [0.84423559, 0.37963054, 0.13580912], "xyz": [9.39383547398398, 3.09154711736672, 6.127177023977279], "label": "Na", "properties": {}}, {"species": [{"element": "Na", "occu": 1}], "abc": [0.13734966, 0.48622383, 0.24731113999999998], "xyz": [3.41081755165695, 3.95959682282544, 11.157712639487158], "label": "Na", "properties": {}}, {"species": [{"element": "Na", "occu": 1}], "abc": [0.27594074, 0.023529, 0.13075353], "xyz": [2.6244338939901204, 0.19161001147200002, 5.89908855031182], "label": "Na", "properties": {}}, {"species": [{"element": "Na", "occu": 1}], "abc": [0.70551077, 0.84318337, 0.25250833], "xyz": [10.18280303231969, 6.86652111006416, 11.39218955206302], "label": "Na", "properties": {}}, {"species": [{"element": "Na", "occu": 1}], "abc": [0.72484588, 0.03305931, 0.3832066], "xyz": [6.76641225225403, 0.26922073901808, 17.2887849870204], "label": "Na", "properties": {}}, {"species": [{"element": "Na", "occu": 1}], "abc": [0.15410629, 0.72977362, 0.33150844], "xyz": [4.6440156199597, 5.94296109907616, 14.95636594083336], "label": "Na", "properties": {}}, {"species": [{"element": "Na", "occu": 1}], "abc": [0.77746565, 0.21273065, 0.32447383], "xyz": [8.04383057794505, 1.7323865139592, 14.63899181482002], "label": "Na", "properties": {}}, {"species": [{"element": "Zr", "occu": 1}], "abc": [0.34446941, 0.2526637, 0.05651615], "xyz": [4.26651764364338, 2.0575840220816, 2.5497879359180997], "label": "Zr", "properties": {}}, {"species": [{"element": "Zr", "occu": 1}], "abc": [0.59790788, 0.65369375, 0.08737933], "xyz": [8.359696080775189, 5.3233995043, 3.9422140659370197], "label": "Zr", "properties": {}}, {"species": [{"element": "Zr", "occu": 1}], "abc": [0.28817493, 0.32591292, 0.16668647], "xyz": [4.0772645315617195, 2.65409402609856, 7.52024244904818], "label": "Zr", "properties": {}}, {"species": [{"element": "Zr", "occu": 1}], "abc": [0.69364016, 0.54057311, 0.21654773], "xyz": [8.732289019406869, 4.40219388025648, 9.769787742166619], "label": "Zr", "properties": {}}, {"species": [{"element": "Zr", "occu": 1}], "abc": [0.01850945, 0.89391248, 0.13006537], "xyz": [4.13362243891232, 7.2796370669286405, 5.86804145906478], "label": "Zr", "properties": {}}, {"species": [{"element": "Zr", "occu": 1}], "abc": [0.96299876, 0.97248692, 0.25312982], "xyz": [13.107833261002758, 7.9195133621305605, 11.42022875332308], "label": "Zr", "properties": {}}, {"species": [{"element": "Zr", "occu": 1}], "abc": [0.63662855, 0.61404592, 0.32664754], "xyz": [8.53747822432928, 5.000524704642561, 14.737061119508759], "label": "Zr", "properties": {}}, {"species": [{"element": "Zr", "occu": 1}], "abc": [0.38353172, 0.21297941, 0.29590687], "xyz": [4.44725817538085, 1.73441230793488, 13.350162162165779], "label": "Zr", "properties": {}}, {"species": [{"element": "Si", "occu": 1}], "abc": [0.19106862, 0.96122369, 0.06483923], "xyz": [6.0080827071089695, 7.82779048272592, 2.9252927955676196], "label": "Si", "properties": {}}, {"species": [{"element": "Si", "occu": 1}], "abc": [0.03518816, 0.52475577, 0.10452842000000001], "xyz": [2.6487010297876092, 4.27338429638736, 4.71591402239148], "label": "Si", "properties": {}}, {"species": [{"element": "Si", "occu": 1}], "abc": [0.58646946, 0.03615284, 0.11258329], "xyz": [5.51638366271124, 0.29441311093312, 5.079318294469259], "label": "Si", "properties": {}}, {"species": [{"element": "Si", "occu": 1}], "abc": [0.42971159, 0.6166226, 0.15235571], "xyz": [6.6591979918653195, 5.0215080734368005, 6.87369453379674], "label": "Si", "properties": {}}, {"species": [{"element": "Si", "occu": 1}], "abc": [0.55175168, 0.25026828, 0.23093596], "xyz": [6.14893804259276, 2.03807675642304, 10.41892847934024], "label": "Si", "properties": {}}, {"species": [{"element": "Si", "occu": 1}], "abc": [0.39502003, 0.83048166, 0.2705962], "xyz": [7.2908547627083795, 6.76308387096288, 12.2082435952428], "label": "Si", "properties": {}}, {"species": [{"element": "Si", "occu": 1}], "abc": [0.9465286, 0.34128381, 0.27872994], "xyz": [10.15797445848589, 2.7792679140340804, 12.57520617365436], "label": "Si", "properties": {}}, {"species": [{"element": "Si", "occu": 1}], "abc": [0.7903309, 0.90539924, 0.31840499], "xyz": [11.23337173639156, 7.373180278088321, 14.36518945890906], "label": "Si", "properties": {}}, {"species": [{"element": "P", "occu": 1}], "abc": [0.55566551, 0.44295644, 0.02400903], "xyz": [7.03927096971404, 3.60724589017792, 1.0831936543288199], "label": "P", "properties": {}}, {"species": [{"element": "P", "occu": 1}], "abc": [0.01208987, 0.17291091, 0.18582615], "xyz": [0.8772882855915499, 1.4081117535268801, 8.3837500510581], "label": "P", "properties": {}}, {"species": [{"element": "P", "occu": 1}], "abc": [0.96939633, 0.69352566, 0.1973476], "xyz": [11.92904225611878, 5.64777337195488, 8.9035528722744], "label": "P", "properties": {}}, {"species": [{"element": "P", "occu": 1}], "abc": [0.42578789, 0.42383508, 0.35927202], "xyz": [5.76833425467044, 3.45152979476544, 16.20895022588988], "label": "P", "properties": {}}, {"species": [{"element": "O", "occu": 1}], "abc": [0.36087514, 0.78957538, 0.07266297], "xyz": [6.79759714308514, 6.42996079815584, 3.2782693848391795], "label": "O", "properties": {}}, {"species": [{"element": "O", "occu": 1}], "abc": [0.53805439, 0.15382397, 0.08240094], "xyz": [5.59610586818365, 1.2526759597249602, 3.71760855472836], "label": "O", "properties": {}}, {"species": [{"element": "O", "occu": 1}], "abc": [0.69782834, 0.28774245, 0.011811250000000002], "xyz": [7.649211881605971, 2.3432502080616, 0.5328774652575], "label": "O", "properties": {}}, {"species": [{"element": "O", "occu": 1}], "abc": [0.47476585, 0.59725686, 0.005338719999999998], "xyz": [6.98477571106534, 4.86380185287648, 0.2408621933596799], "label": "O", "properties": {}}, {"species": [{"element": "O", "occu": 1}], "abc": [0.40522062, 0.39815613, 0.03209066000000001], "xyz": [5.466611366072129, 3.24241151927184, 1.4478052330820401], "label": "O", "properties": {}}, {"species": [{"element": "O", "occu": 1}], "abc": [0.61120898, 0.48158634, 0.05557007], "xyz": [7.717859196222499, 3.92183110766112, 2.50710450170658], "label": "O", "properties": {}}, {"species": [{"element": "O", "occu": 1}], "abc": [0.25311369, 0.09586003, 0.05365495000000001], "xyz": [2.7367561238913902, 0.78064267278704, 2.4207017677653], "label": "O", "properties": {}}, {"species": [{"element": "O", "occu": 1}], "abc": [0.04752923, 0.69516725, 0.10715925000000001], "xyz": [3.51719825210549, 5.661141771748, 4.8346067959695], "label": "O", "properties": {}}, {"species": [{"element": "O", "occu": 1}], "abc": [0.5735309, 0.87281938, 0.10323560000000001], "xyz": [9.108910399284019, 7.1078639727478405, 4.6575870337464], "label": "O", "properties": {}}, {"species": [{"element": "O", "occu": 1}], "abc": [0.16364389, 0.43364099, 0.07623607], "xyz": [3.4177449751744295, 3.53138488965232, 3.4394737003105798], "label": "O", "properties": {}}, {"species": [{"element": "O", "occu": 1}], "abc": [0.0782628, 0.01591395, 0.09604383], "xyz": [0.7853295189979499, 0.1295963339736, 4.33312246240002], "label": "O", "properties": {}}, {"species": [{"element": "O", "occu": 1}], "abc": [0.56327697, 0.56165957, 0.12433807], "xyz": [7.635243005247089, 4.57391290114576, 5.60964805389858], "label": "O", "properties": {}}, {"species": [{"element": "O", "occu": 1}], "abc": [0.08826447, 0.92679589, 0.039230520000000005], "xyz": [4.91651412297957, 7.5474253523355195, 1.7699278279888802], "label": "O", "properties": {}}, {"species": [{"element": "O", "occu": 1}], "abc": [0.76732968, 0.0066563, 0.12370336000000001], "xyz": [7.03730384349054, 0.054206031678400005, 5.58101241787584], "label": "O", "properties": {}}, {"species": [{"element": "O", "occu": 1}], "abc": [0.85205807, 0.54999558, 0.09475415000000001], "xyz": [10.22085985809878, 4.478926405429441, 4.2749371382901], "label": "O", "properties": {}}, {"species": [{"element": "O", "occu": 1}], "abc": [0.26462148, 0.79423052, 0.1462095], "xyz": [5.93918845765452, 6.467870247295361, 6.596401545692999], "label": "O", "properties": {}}, {"species": [{"element": "O", "occu": 1}], "abc": [0.71666611, 0.07247658, 0.23705974000000002], "xyz": [6.8665280655193, 0.59021795763744, 10.695209513455561], "label": "O", "properties": {}}, {"species": [{"element": "O", "occu": 1}], "abc": [0.10116944, 0.40445997, 0.13335155], "xyz": [2.71776489454205, 3.29374726897296, 6.0163010648457], "label": "O", "properties": {}}, {"species": [{"element": "O", "occu": 1}], "abc": [0.88118393, 0.46102762, 0.24982488000000003], "xyz": [10.09227642946202, 3.75440977334816, 11.27112276961872], "label": "O", "properties": {}}, {"species": [{"element": "O", "occu": 1}], "abc": [0.10599697, 0.51233549, 0.19464456], "xyz": [3.2402907519639697, 4.17223890162832, 8.781602265548639], "label": "O", "properties": {}}, {"species": [{"element": "O", "occu": 1}], "abc": [0.87540071, 0.35405094, 0.18852725], "xyz": [9.56500898884214, 2.88323790535392, 8.5056131325615], "label": "O", "properties": {}}, {"species": [{"element": "O", "occu": 1}], "abc": [0.9631591, 0.79922671, 0.17060085], "xyz": [12.34087314468799, 6.50855706030128, 7.6968439850799], "label": "O", "properties": {}}, {"species": [{"element": "O", "occu": 1}], "abc": [0.01816229, 0.06708095, 0.21254903000000003], "xyz": [0.46338051139006997, 0.5462782778296, 9.58938201708882], "label": "O", "properties": {}}, {"species": [{"element": "O", "occu": 1}], "abc": [0.18788939, 0.15864698, 0.18166241], "xyz": [2.41954865326154, 1.29195246962464, 8.195898365826539], "label": "O", "properties": {}}, {"species": [{"element": "O", "occu": 1}], "abc": [0.79362146, 0.70780817, 0.20155419], "xyz": [10.38708941316161, 5.76408396335056, 9.09333778213386], "label": "O", "properties": {}}, {"species": [{"element": "O", "occu": 1}], "abc": [0.9711388, 0.10784782, 0.1567966], "xyz": [9.347422345250381, 0.87826605582176, 7.0740501444804], "label": "O", "properties": {}}, {"species": [{"element": "O", "occu": 1}], "abc": [0.01035375, 0.75859268, 0.22637480999999998], "xyz": [3.45898361892852, 6.17765107388224, 10.213147207192138], "label": "O", "properties": {}}, {"species": [{"element": "O", "occu": 1}], "abc": [0.37531273, 0.47410315, 0.15500759], "xyz": [5.53030373094859, 3.8608912410392, 6.99333700115346], "label": "O", "properties": {}}, {"species": [{"element": "O", "occu": 1}], "abc": [0.60634278, 0.39260133, 0.22827623000000002], "xyz": [7.278761270861009, 3.19717562774544, 10.298931850645621], "label": "O", "properties": {}}, {"species": [{"element": "O", "occu": 1}], "abc": [0.40799535, 0.99375754, 0.27999001], "xyz": [8.133497371321859, 8.09273210250272, 12.63205561022094], "label": "O", "properties": {}}, {"species": [{"element": "O", "occu": 1}], "abc": [0.9341146, 0.17087067, 0.2761613], "xyz": [9.28880382698443, 1.39149692035056, 12.4593191699622], "label": "O", "properties": {}}, {"species": [{"element": "O", "occu": 1}], "abc": [0.45156466, 0.12934939, 0.13948815], "xyz": [4.69767520835179, 1.05336555322352, 6.2931604872861], "label": "O", "properties": {}}, {"species": [{"element": "O", "occu": 1}], "abc": [0.530422, 0.73704892, 0.24377491], "xyz": [8.113056191889878, 6.0022079993465605, 10.99817175440154], "label": "O", "properties": {}}, {"species": [{"element": "O", "occu": 1}], "abc": [0.41817395, 0.30507258, 0.25895104], "xyz": [5.17207625883722, 2.4843793001654397, 11.68285946203776], "label": "O", "properties": {}}, {"species": [{"element": "O", "occu": 1}], "abc": [0.90300879, 0.85078007, 0.28717953], "xyz": [12.020182870203751, 6.928385353089761, 12.95641867035582], "label": "O", "properties": {}}, {"species": [{"element": "O", "occu": 1}], "abc": [0.45837567, 0.23196742, 0.20133136], "xyz": [5.21499813370134, 1.88904245855456, 9.083284562907838], "label": "O", "properties": {}}, {"species": [{"element": "O", "occu": 1}], "abc": [0.52300099, 0.63493857, 0.18195833], "xyz": [7.59241393284385, 5.17066542061776, 8.209249120363019], "label": "O", "properties": {}}, {"species": [{"element": "O", "occu": 1}], "abc": [0.1294311, 0.31622829, 0.28864582], "xyz": [2.5845544642646097, 2.57522658313872, 13.022571947827078], "label": "O", "properties": {}}, {"species": [{"element": "O", "occu": 1}], "abc": [0.21440256, 0.85993468, 0.25933657], "xyz": [5.7719585268678, 7.00293654213824, 11.70025306975758], "label": "O", "properties": {}}, {"species": [{"element": "O", "occu": 1}], "abc": [0.62042567, 0.07713228, 0.31064074], "xyz": [6.00824259787388, 0.6281319671750399, 14.01489682606956], "label": "O", "properties": {}}, {"species": [{"element": "O", "occu": 1}], "abc": [0.44275521, 0.71284286, 0.30080166], "xyz": [7.205066720419019, 5.80508430372448, 13.57099596791604], "label": "O", "properties": {}}, {"species": [{"element": "O", "occu": 1}], "abc": [0.28376432, 0.57899567, 0.37151258], "xyz": [5.15942832715679, 4.715090610350559, 16.76119648146252], "label": "O", "properties": {}}, {"species": [{"element": "O", "occu": 1}], "abc": [0.50667715, 0.26948327, 0.37792664], "xyz": [5.82250661414023, 2.19455533410736, 17.05057381534416], "label": "O", "properties": {}}, {"species": [{"element": "O", "occu": 1}], "abc": [0.57623605, 0.4685646, 0.35115838], "xyz": [7.3407097622518, 3.8157876824928, 15.842894480967718], "label": "O", "properties": {}}, {"species": [{"element": "O", "occu": 1}], "abc": [0.37024625, 0.38524385, 0.32769833], "xyz": [5.08993424587265, 3.1372594890568, 14.784468659923018], "label": "O", "properties": {}}, {"species": [{"element": "O", "occu": 1}], "abc": [0.72828739, 0.7706445, 0.32953065], "xyz": [10.06909845206482, 6.275795889576, 14.867135781281098], "label": "O", "properties": {}}, {"species": [{"element": "O", "occu": 1}], "abc": [0.81726923, 0.43309587, 0.30689001], "xyz": [9.38468361857267, 3.52694566786416, 13.84567853882094], "label": "O", "properties": {}}, {"species": [{"element": "O", "occu": 1}], "abc": [0.89316415, 0.93967201, 0.3440343], "xyz": [12.324518509894089, 7.65228291113168, 15.5214838180242], "label": "O", "properties": {}}]}, "formula": "(Na3Zr2Si2PO12)4.0", "bandgap": 3.3137, "slab_thickness": 17.284273377620398}