{"miller": "100_0.20", "final_energy": -599.24732572, "gamma": 0.059752657446639226, "work_function": "Not calculated", "ionization_potentail": "Not calculated", "electron_affinity": "Not calculated", "is_stochiometric": true, "incar_parameters": {"SYSTEM": "unknown system", "LCOMPAT": false, "PREC": "normal", "ENMAX": 520.0, "ENAUG": 605.392, "EDIFF": 1e-05, "IALGO": 38, "IWAVPR": 11, "NBANDS": 312, "NBANDSLOW": -1, "NBANDSHIGH": -1, "NELECT": 520.0, "TURBO": 0, "IRESTART": 0, "NREBOOT": 0, "NMIN": 0, "EREF": 0.0, "ISMEAR": 0, "SIGMA": 0.05, "KSPACING": 0.5, "KGAMMA": true, "KBLOWUP": true, "LREAL": true, "ROPT": [-0.0005, -0.0005, -0.0005, -0.0005, -0.0005], "LMAXPAW": -100, "LMAXMIX": 4, "NLSPLINE": false, "ISTART": 0, "ICHARG": 2, "INIWAV": 1, "ISPIN": 1, "LNONCOLLINEAR": false, "MAGMOM": [0.6, 0.6, 0.6, 0.6, 0.6, 0.6, 0.6, 0.6, 0.6, 0.6, 0.6, 0.6, 0.6, 0.6, 0.6, 0.6, 0.6, 0.6, 0.6, 0.6, 0.6, 0.6, 0.6, 0.6, 0.6, 0.6, 0.6, 0.6, 0.6, 0.6, 0.6, 0.6, 0.6, 0.6, 0.6, 0.6, 0.6, 0.6, 0.6, 0.6, 0.6, 0.6, 0.6, 0.6, 0.6, 0.6, 0.6, 0.6, 0.6, 0.6, 0.6, 0.6, 0.6, 0.6, 0.6, 0.6, 0.6, 0.6, 0.6, 0.6, 0.6, 0.6, 0.6, 0.6, 0.6, 0.6, 0.6, 0.6, 0.6, 0.6, 0.6, 0.6, 0.6, 0.6, 0.6, 0.6, 0.6, 0.6, 0.6, 0.6], "NUPDOWN": -1.0, "LSORBIT": false, "SAXIS": [0.0, 0.0, 1.0], "LSPIRAL": false, "QSPIRAL": [0.0, 0.0, 0.0], "LZEROZ": false, "LASPH": false, "LMETAGGA": false, "NELM": 100, "NELMDL": -5, "NELMIN": 6, "ENINI": 520.0, "LDIAG": true, "LSUBROT": false, "WEIMIN": 0.001, "EBREAK": 1e-08, "DEPER": 0.3, "NRMM": 4, "TIME": 0.4, "AMIX": 0.4, "BMIX": 1.0, "AMIN": 0.1, "AMIX_MAG": 1.6, "BMIX_MAG": 1.0, "IMIX": 4, "MIXFIRST": false, "MAXMIX": -45, "WC": 100.0, "INIMIX": 1, "MIXPRE": 1, "MREMOVE": 5, "LDIPOL": false, "LMONO": false, "IDIPOL": 0, "EPSILON": 1.0, "DIPOL": [-100.0, -100.0, -100.0], "EFIELD": 0.0, "NGX": 54, "NGY": 54, "NGZ": 252, "NGXF": 108, "NGYF": 108, "NGZF": 504, "ADDGRID": false, "NSW": 150, "IBRION": 2, "MDALGO": 0, "ISIF": 2, "PSTRESS": 0.0, "EDIFFG": -0.01, "NFREE": 1, "POTIM": 0.5, "SMASS": -3.0, "SCALEE": 1.0, "TEBEG": 0.0001, "TEEND": 0.0001, "NBLOCK": 1, "KBLOCK": 150, "NPACO": 256, "APACO": 10.0, "ISYM": 0, "SYMPREC": 1e-05, "LORBIT": 11, "RWIGS": [-1.0, -1.0, -1.0, -1.0, -1.0], "NEDOS": 301, "EMIN": 10.0, "EMAX": -10.0, "EFERMI": 0.0, "NWRITE": 2, "LWAVE": false, "LDOWNSAMPLE": false, "LCHARG": false, "LPARD": false, "LVTOT": false, "LVHAR": false, "LELF": false, "LOPTICS": false, "STM": [0.0, 0.0, 0.0, 0.0, 0.0, 0.0, 0.0], "NPAR": 2, "NSIM": 4, "NBLK": -1, "LPLANE": true, "LSCALAPACK": true, "LSCAAWARE": false, "LSCALU": false, "LASYNC": false, "LORBITALREAL": false, "IDIOT": 3, "PHON_NSTRUCT": -1, "LMUSIC": false, "POMASS": [22.99, 91.224, 28.085, 30.974, 16.0], "DARWINR": [0.0, 0.0, 0.0, 0.0, 0.0], "DARWINV": [1.0, 1.0, 1.0, 1.0, 1.0], "LCORR": true, "GGA_COMPAT": true, "LBERRY": false, "ICORELEVEL": 0, "LDAU": false, "I_CONSTRAINED_M": 0, "GGA": "--", "VOSKOWN": 0, "LHFCALC": false, "PRECFOCK": "", "LSYMGRAD": false, "LHFONE": false, "LRHFCALC": false, "LTHOMAS": false, "LMODELHF": false, "LFOCKACE": false, "ENCUT4O": -1.0, "EXXOEP": 0, "FOURORBIT": 0, "AEXX": 0.0, "HFALPHA": 0.0, "MCALPHA": 0.0, "ALDAX": 1.0, "AGGAX": 1.0, "ALDAC": 1.0, "AGGAC": 1.0, "NKREDX": 1, "NKREDY": 1, "NKREDZ": 1, "SHIFTRED": false, "ODDONLY": false, "EVENONLY": false, "LMAXFOCK": 0, "NMAXFOCKAE": 0, "LFOCKAEDFT": false, "HFSCREEN": 0.0, "HFSCREENC": 0.0, "NBANDSGWLOW": 0, "LUSE_VDW": false, "Zab_VDW": -0.8491, "PARAM1": 0.1234, "PARAM2": 1.0, "PARAM3": 0.0, "MODEL_GW": 0, "MODEL_EPS0": 25.16553134, "MODEL_ALPHA": 1.0, "LEPSILON": false, "LRPA": false, "LNABLA": false, "LVEL": false, "CSHIFT": 0.1, "OMEGAMAX": -1.0, "DEG_THRESHOLD": 0.002, "RTIME": -0.1, "WPLASMAI": 0.0, "DFIELD": [0.0, 0.0, 0.0], "WPLASMA": [0.0, 0.0, 0.0, 0.0, 0.0, 0.0, 0.0, 0.0, 0.0], "NUCIND": false, "MAGPOS": [0.0, 0.0, 0.0], "LNICSALL": true, "ORBITALMAG": false, "LMAGBLOCH": false, "LCHIMAG": false, "LGAUGE": true, "MAGATOM": 0, "MAGDIPOL": [0.0, 0.0, 0.0], "AVECCONST": [0.0, 0.0, 0.0], "LFINITE_TEMPERATURE": false, "LADDER": false, "LRPAFORCE": false, "LFXC": false, "LHARTREE": true, "IBSE": 0, "KPOINT": [-1, 0, 0, 0], "LTCTC": false, "LTCTE": false, "LTETE": false, "LTRIPLET": false, "LFXCEPS": false, "LFXHEG": false, "NATURALO": 2, "LHOLEGF": false, "L2ORDER": false, "LDMP1": false, "LMP2LT": false, "LSMP2LT": false, "LGWLF": false, "ENCUTGW": -2.0, "ENCUTGWSOFT": -2.0, "ENCUTLF": -1.0, "LESF_SPLINES": false, "LMAXMP2": -1, "SCISSOR": 0.0, "NOMEGA": 0, "NOMEGAR": 0, "NBANDSGW": -1, "NBANDSO": -1, "NBANDSV": -1, "NELMGW": 1, "NELMHF": 1, "DIM": 3, "IESPILON": 4, "ANTIRES": 0, "OMEGAMIN": -30.0, "OMEGATL": -200.0, "OMEGAGRID": 0, "LSELFENERGY": false, "LSPECTRAL": false, "LSPECTRALGW": false, "LSINGLES": false, "LFERMIGW": false, "ODDONLYGW": false, "EVENONLYGW": false, "NKREDLFX": 1, "NKREDLFY": 1, "NKREDLFZ": 1, "MAXMEM": 2800, "TELESCOPE": 0, "NTAUPAR": -1, "NOMEGAPAR": -1, "DAMP_NEWTON": 0.80000001, "LAMBDA": 1.0, "OFIELD_KAPPA": 0.0, "OFIELD_K": [0.0, 0.0, 0.0], "OFIELD_Q6_NEAR": 0.0, "OFIELD_Q6_FAR": 0.0, "OFIELD_A": 0.0, "KPOINTS_OPT_MODE": 1, "LKPOINTS_OPT": false, "@module": "pymatgen.io.vasp.inputs", "@class": "Incar"}, "relaxed_structures": {"@module": "pymatgen.core.structure", "@class": "Structure", "charge": 0, "lattice": {"matrix": [[9.132688, 0.0, 0.0], [4.435089, 8.143568, 0.0], [0.0, 0.0, 45.116094]], "a": 9.132688, "b": 9.27295606635473, "c": 45.116094, "alpha": 90.0, "beta": 90.0, "gamma": 61.42673605530538, "volume": 3355.404179042951}, "sites": [{"species": [{"element": "Na", "occu": 1}], "abc": [0.2151157, 0.80839564, 9.99999999999994e-05], "xyz": [5.5498911826135595, 6.58322486524352, 0.004511609399999972], "label": "Na", "properties": {}}, {"species": [{"element": "Na", "occu": 1}], "abc": [0.80674805, 0.34640588, 0.13597769], "xyz": [8.90411914318172, 2.82097983937984, 6.13478224394286], "label": "Na", "properties": {}}, {"species": [{"element": "Na", "occu": 1}], "abc": [0.79023931, 0.11187005, 0.05067789], "xyz": [7.71316269174973, 0.9110213593384, 2.28638844896166], "label": "Na", "properties": {}}, {"species": [{"element": "Na", "occu": 1}], "abc": [0.23960657, 0.98718147, 0.13113129], "xyz": [6.56648972516099, 8.03917942928496, 5.91613160598126], "label": "Na", "properties": {}}, {"species": [{"element": "Na", "occu": 1}], "abc": [0.16600252, 0.62112561, 0.05800642], "xyz": [4.270796582903049, 5.05817864157648, 2.61702309732348], "label": "Na", "properties": {}}, {"species": [{"element": "Na", "occu": 1}], "abc": [0.25897416, 0.81859612, 0.20535051], "xyz": [5.995676850596761, 6.6662931677561605, 9.26461291210794], "label": "Na", "properties": {}}, {"species": [{"element": "Na", "occu": 1}], "abc": [0.64579179, 0.98083786, 0.17786397], "xyz": [10.24791813470106, 7.987519809884479, 8.02452758973318], "label": "Na", "properties": {}}, {"species": [{"element": "Na", "occu": 1}], "abc": [0.11423833, 0.68746721, 0.33226036], "xyz": [4.09228128646273, 5.59843597240528, 14.990289634233838], "label": "Na", "properties": {}}, {"species": [{"element": "Na", "occu": 1}], "abc": [0.09758058, 0.4507888, 0.24719575000000002], "xyz": [2.8904614402022397, 3.6710292464384, 11.1525066934005], "label": "Na", "properties": {}}, {"species": [{"element": "Na", "occu": 1}], "abc": [0.73857699, 0.17663361, 0.32528282999999997], "xyz": [7.5285789943904105, 1.43842781412048, 14.675490734866017], "label": "Na", "properties": {}}, {"species": [{"element": "Na", "occu": 1}], "abc": [0.66490295, 0.8101368, 0.25225920999999996], "xyz": [9.665380002804799, 6.5974041201024, 11.380950230725738], "label": "Na", "properties": {}}, {"species": [{"element": "Na", "occu": 1}], "abc": [0.68845699, 0.99115808, 0.38330086999999996], "xyz": [10.683337188958241, 8.071563223229441, 17.293038081201775], "label": "Na", "properties": {}}, {"species": [{"element": "Zr", "occu": 1}], "abc": [0.30642129, 0.21932848, 0.0566247], "xyz": [3.77119136716224, 1.78611639121664, 2.5546852879218], "label": "Zr", "properties": {}}, {"species": [{"element": "Zr", "occu": 1}], "abc": [0.98005679, 0.85996836, 0.13008409], "xyz": [12.76458909913556, 7.00321081750848, 5.86888603234446], "label": "Zr", "properties": {}}, {"species": [{"element": "Zr", "occu": 1}], "abc": [0.55962664, 0.62017501, 0.08727428], "xyz": [7.861426864534209, 5.05043736583568, 3.9374746202623196], "label": "Zr", "properties": {}}, {"species": [{"element": "Zr", "occu": 1}], "abc": [0.24930565, 0.29147179, 0.1665913], "xyz": [3.56953404772651, 2.37362034194672, 7.5159487503822], "label": "Zr", "properties": {}}, {"species": [{"element": "Zr", "occu": 1}], "abc": [0.65460589, 0.50646981, 0.21666227], "xyz": [8.22455003949541, 4.12447133768208, 9.77495533957338], "label": "Zr", "properties": {}}, {"species": [{"element": "Zr", "occu": 1}], "abc": [0.34439658, 0.17778389, 0.29601154999999996], "xyz": [3.93375388832325, 1.44779519751952, 13.354884914885696], "label": "Zr", "properties": {}}, {"species": [{"element": "Zr", "occu": 1}], "abc": [0.92366931, 0.93798547, 0.25328132999999997], "xyz": [12.595632663562109, 7.6385484579569605, 11.427064292725017], "label": "Zr", "properties": {}}, {"species": [{"element": "Zr", "occu": 1}], "abc": [0.59734519, 0.57864716, 0.32664903999999995], "xyz": [8.02171890276796, 4.71225249546688, 14.737128793649756], "label": "Zr", "properties": {}}, {"species": [{"element": "Si", "occu": 1}], "abc": [0.15266003, 0.9282962, 0.06520282], "xyz": [5.51127268942244, 7.5596432288416, 2.9416965561850796], "label": "Si", "properties": {}}, {"species": [{"element": "Si", "occu": 1}], "abc": [0.99674562, 0.49170701, 0.10416425000000001], "xyz": [11.28373111410045, 4.00424947201168, 4.699484094439501], "label": "Si", "properties": {}}, {"species": [{"element": "Si", "occu": 1}], "abc": [0.54818383, 0.0023003, 0.11278482000000001], "xyz": [5.016593921261741, 0.0187326494704, 5.08841054089308], "label": "Si", "properties": {}}, {"species": [{"element": "Si", "occu": 1}], "abc": [0.39170468, 0.58094933, 0.15217912], "xyz": [6.1538786136202095, 4.73100037340944, 6.865727482757279], "label": "Si", "properties": {}}, {"species": [{"element": "Si", "occu": 1}], "abc": [0.51229237, 0.21688878, 0.23110234999999998], "xyz": [5.64052742239198, 1.7662485283670402, 10.426435346220899], "label": "Si", "properties": {}}, {"species": [{"element": "Si", "occu": 1}], "abc": [0.35561426, 0.79578283, 0.27049355999999997], "xyz": [6.7770817606527505, 6.48051158933744, 12.203612879354637], "label": "Si", "properties": {}}, {"species": [{"element": "Si", "occu": 1}], "abc": [0.90715916, 0.306326, 0.27910495999999996], "xyz": [9.64338464763608, 2.4945866111679997, 12.592125611226237], "label": "Si", "properties": {}}, {"species": [{"element": "Si", "occu": 1}], "abc": [0.75107952, 0.86966869, 0.31828257], "xyz": [10.716432960013169, 7.0822061144859205, 14.359666346681578], "label": "Si", "properties": {}}, {"species": [{"element": "P", "occu": 1}], "abc": [0.51652214, 0.41209997, 0.023558109999999997], "xyz": [6.54493559355965, 3.35596412849296, 1.0628499052223397], "label": "P", "properties": {}}, {"species": [{"element": "P", "occu": 1}], "abc": [0.97328374, 0.13856556, 0.18602567], "xyz": [9.50324732382796, 1.12841806031808, 8.39275161413298], "label": "P", "properties": {}}, {"species": [{"element": "P", "occu": 1}], "abc": [0.93041214, 0.65941617, 0.19731562], "xyz": [11.42173318802145, 5.37000042069456, 8.90211005958828], "label": "P", "properties": {}}, {"species": [{"element": "P", "occu": 1}], "abc": [0.38745639, 0.386379, 0.35962544999999996], "xyz": [5.252143576207319, 3.146503660272, 16.2248956069923], "label": "P", "properties": {}}, {"species": [{"element": "O", "occu": 1}], "abc": [0.32196462, 0.7558193, 0.07281455], "xyz": [6.292528284916259, 6.1550658652624, 3.2851080823677], "label": "O", "properties": {}}, {"species": [{"element": "O", "occu": 1}], "abc": [0.06394823, 0.37025548, 0.13285151], "xyz": [2.22613523927996, 3.0152006787526404, 5.99374121320194], "label": "O", "properties": {}}, {"species": [{"element": "O", "occu": 1}], "abc": [0.49756474, 0.12258594, 0.08295175], "xyz": [5.08778308426978, 0.99828693823392, 3.7424589504645], "label": "O", "properties": {}}, {"species": [{"element": "O", "occu": 1}], "abc": [0.66122674, 0.26234088, 0.010418489999999999], "xyz": [7.20228266481544, 2.1363907954598402, 0.4700415741780599], "label": "O", "properties": {}}, {"species": [{"element": "O", "occu": 1}], "abc": [0.4278136, 0.56917534, 0.005779149999999997], "xyz": [6.43143142046206, 4.63511808521312, 0.26073267464009986], "label": "O", "properties": {}}, {"species": [{"element": "O", "occu": 1}], "abc": [0.37241257, 0.35886181, 0.03169793], "xyz": [4.99271187513925, 2.92241555233808, 1.43008678948542], "label": "O", "properties": {}}, {"species": [{"element": "O", "occu": 1}], "abc": [0.57316942, 0.44856232, 0.05520313], "xyz": [7.22399129524744, 3.65289775515776, 2.49054960217422], "label": "O", "properties": {}}, {"species": [{"element": "O", "occu": 1}], "abc": [0.21544938, 0.06224629, 0.053906369999999995], "xyz": [2.24369980340325, 0.50690689536272, 2.4320448561187797], "label": "O", "properties": {}}, {"species": [{"element": "O", "occu": 1}], "abc": [0.00856282, 0.66225991, 0.10701954], "xyz": [3.0153832054421494, 5.39315861075888, 4.828303626476759], "label": "O", "properties": {}}, {"species": [{"element": "O", "occu": 1}], "abc": [0.5357999, 0.83915101, 0.10303182999999999], "xyz": [8.61500273092109, 6.83368331220368, 4.648393727272019], "label": "O", "properties": {}}, {"species": [{"element": "O", "occu": 1}], "abc": [0.12394386, 0.40309084, 0.07557234], "xyz": [2.9196843533804397, 3.28259766571712, 3.40952879523996], "label": "O", "properties": {}}, {"species": [{"element": "O", "occu": 1}], "abc": [0.04090446, 0.98317239, 0.09645437], "xyz": [4.73402472298119, 8.00653121368752, 4.35164442363078], "label": "O", "properties": {}}, {"species": [{"element": "O", "occu": 1}], "abc": [0.52519174, 0.52772223, 0.12417749], "xyz": [7.13690735892559, 4.2975418651166395, 5.60240331152406], "label": "O", "properties": {}}, {"species": [{"element": "O", "occu": 1}], "abc": [0.04859438, 0.89613683, 0.03949872], "xyz": [4.41824390832131, 7.29775121240944, 1.78202796439968], "label": "O", "properties": {}}, {"species": [{"element": "O", "occu": 1}], "abc": [0.72887042, 0.97341132, 0.12382183999999999], "xyz": [10.973711976096439, 7.92704127638976, 5.586357772692959], "label": "O", "properties": {}}, {"species": [{"element": "O", "occu": 1}], "abc": [0.81362416, 0.51636355, 0.09451669], "xyz": [9.72069390314803, 4.2050416821464, 4.26422387060886], "label": "O", "properties": {}}, {"species": [{"element": "O", "occu": 1}], "abc": [0.2263259, 0.75894178, 0.14633782], "xyz": [5.43293817113762, 6.18049399347104, 6.60219084287508], "label": "O", "properties": {}}, {"species": [{"element": "O", "occu": 1}], "abc": [0.67742768, 0.03880122, 0.23695977], "xyz": [6.35882250801242, 0.31598037355296, 10.690699257538379], "label": "O", "properties": {}}, {"species": [{"element": "O", "occu": 1}], "abc": [0.40576016, 0.67585526, 0.3003806], "xyz": [6.70315917332822, 5.50387326796768, 13.5519993853764], "label": "O", "properties": {}}, {"species": [{"element": "O", "occu": 1}], "abc": [0.84032044, 0.42744121, 0.25037028], "xyz": [9.57012420716041, 3.48089655963728, 11.29572908728632], "label": "O", "properties": {}}, {"species": [{"element": "O", "occu": 1}], "abc": [0.06699581, 0.4782052, 0.19446942], "xyz": [2.73273445230008, 3.8942965641536, 8.773700632845479], "label": "O", "properties": {}}, {"species": [{"element": "O", "occu": 1}], "abc": [0.83708111, 0.31995168, 0.18877881], "xyz": [9.0638147848232, 2.6055482627942403, 8.516962537168139], "label": "O", "properties": {}}, {"species": [{"element": "O", "occu": 1}], "abc": [0.92371884, 0.76520909, 0.17055421], "xyz": [11.82980638320093, 6.231532258633121, 7.69473977045574], "label": "O", "properties": {}}, {"species": [{"element": "O", "occu": 1}], "abc": [0.98001885, 0.03317316, 0.21284872], "xyz": [9.09733230818004, 0.27014788423488, 9.602902859299679], "label": "O", "properties": {}}, {"species": [{"element": "O", "occu": 1}], "abc": [0.1487575, 0.1244312, 0.1815138], "xyz": [1.9104192815367997, 1.0133139385216001, 8.1891936630972], "label": "O", "properties": {}}, {"species": [{"element": "O", "occu": 1}], "abc": [0.75514143, 0.67298912, 0.20171652], "xyz": [9.88123771929552, 5.48053266198016, 9.10066147767288], "label": "O", "properties": {}}, {"species": [{"element": "O", "occu": 1}], "abc": [0.93080728, 0.07346269, 0.15716319], "xyz": [8.82658604469805, 0.59824841147792, 7.09058925337986], "label": "O", "properties": {}}, {"species": [{"element": "O", "occu": 1}], "abc": [0.97220053, 0.72435124, 0.22626779], "xyz": [12.091366330584998, 5.89880357882432, 10.208318882812259], "label": "O", "properties": {}}, {"species": [{"element": "O", "occu": 1}], "abc": [0.33744924, 0.4383213, 0.15454282], "xyz": [5.02581260085282, 3.5694993123984005, 6.97236839414508], "label": "O", "properties": {}}, {"species": [{"element": "O", "occu": 1}], "abc": [0.56695027, 0.35918447, 0.22870991], "xyz": [6.7707950192935895, 2.92504315598896, 10.318497798291538], "label": "O", "properties": {}}, {"species": [{"element": "O", "occu": 1}], "abc": [0.3683037, 0.95883711, 0.28018100999999995], "xyz": [7.61613070069839, 7.80835520620848, 12.640672784174937], "label": "O", "properties": {}}, {"species": [{"element": "O", "occu": 1}], "abc": [0.89508687, 0.13583916, 0.27631446], "xyz": [8.7770078808918, 1.10621543652288, 12.466229150919238], "label": "O", "properties": {}}, {"species": [{"element": "O", "occu": 1}], "abc": [0.41403523, 0.09347494, 0.13986729], "xyz": [4.1958242547679, 0.76121953018592, 6.31026580316526], "label": "O", "properties": {}}, {"species": [{"element": "O", "occu": 1}], "abc": [0.48984486, 0.7042844, 0.24343182], "xyz": [7.597164270095279, 5.7353879027392, 10.982692873711079], "label": "O", "properties": {}}, {"species": [{"element": "O", "occu": 1}], "abc": [0.37879041, 0.27037854, 0.25911415], "xyz": [4.65852752051214, 2.20184602623072, 11.690218348130099], "label": "O", "properties": {}}, {"species": [{"element": "O", "occu": 1}], "abc": [0.86296238, 0.81531176, 0.28701175999999995], "xyz": [11.49714639062408, 6.63954675875968, 12.948849543265437], "label": "O", "properties": {}}, {"species": [{"element": "O", "occu": 1}], "abc": [0.41866469, 0.20019774, 0.20139598], "xyz": [4.71142878488558, 1.6303239091363202, 9.08619996490212], "label": "O", "properties": {}}, {"species": [{"element": "O", "occu": 1}], "abc": [0.48522129, 0.59790419, 0.18186851], "xyz": [7.083132948650429, 4.869073428749919, 8.20519679279994], "label": "O", "properties": {}}, {"species": [{"element": "O", "occu": 1}], "abc": [0.09036882, 0.2814209, 0.2887666], "xyz": [2.07343697594826, 2.2917702357712, 13.028021069660399], "label": "O", "properties": {}}, {"species": [{"element": "O", "occu": 1}], "abc": [0.17478508, 0.82495017, 0.25948295], "xyz": [5.25498502721017, 6.718037806006561, 11.706857163597299], "label": "O", "properties": {}}, {"species": [{"element": "O", "occu": 1}], "abc": [0.58156887, 0.04201649, 0.31070549999999997], "xyz": [5.49763391284017, 0.34216414343631996, 14.017818544316997], "label": "O", "properties": {}}, {"species": [{"element": "O", "occu": 1}], "abc": [0.24326902, 0.53733032, 0.37256389999999995], "xyz": [4.6048078513242405, 4.37578599938176, 16.808627933406598], "label": "O", "properties": {}}, {"species": [{"element": "O", "occu": 1}], "abc": [0.47453901, 0.22964885, 0.37754223], "xyz": [5.35232981065653, 1.8701610260968, 17.033230737649617], "label": "O", "properties": {}}, {"species": [{"element": "O", "occu": 1}], "abc": [0.53304008, 0.43775928, 0.35153987999999997], "xyz": [6.809590109510959, 3.56492246431104, 15.860106270828718], "label": "O", "properties": {}}, {"species": [{"element": "O", "occu": 1}], "abc": [0.33102651, 0.34972206, 0.32797458999999995], "xyz": [4.57421029692222, 2.84798537671008, 14.796932432051458], "label": "O", "properties": {}}, {"species": [{"element": "O", "occu": 1}], "abc": [0.68863445, 0.73539476, 0.32949334999999996], "xyz": [9.55062478863524, 5.98873723490368, 14.865452950974896], "label": "O", "properties": {}}, {"species": [{"element": "O", "occu": 1}], "abc": [0.77982777, 0.39538741, 0.30763662999999997], "xyz": [8.87550206997525, 3.21986425967888, 13.879363116923217], "label": "O", "properties": {}}, {"species": [{"element": "O", "occu": 1}], "abc": [0.85529066, 0.90204595, 0.34393659], "xyz": [11.81175681743363, 7.3458725329496, 15.51707552447946], "label": "O", "properties": {}}]}, "formula": "(Na3Zr2Si2PO12)4.0", "bandgap": 3.3324, "slab_thickness": 17.288526471801774}