{"miller": "100_0.37", "final_energy": -599.24571081, "gamma": 0.05976351432519639, "work_function": "Not calculated", "ionization_potentail": "Not calculated", "electron_affinity": "Not calculated", "is_stochiometric": true, "incar_parameters": {"SYSTEM": "unknown system", "LCOMPAT": false, "PREC": "normal", "ENMAX": 520.0, "ENAUG": 605.392, "EDIFF": 1e-05, "IALGO": 38, "IWAVPR": 11, "NBANDS": 312, "NBANDSLOW": -1, "NBANDSHIGH": -1, "NELECT": 520.0, "TURBO": 0, "IRESTART": 0, "NREBOOT": 0, "NMIN": 0, "EREF": 0.0, "ISMEAR": 0, "SIGMA": 0.05, "KSPACING": 0.5, "KGAMMA": true, "KBLOWUP": true, "LREAL": true, "ROPT": [-0.0005, -0.0005, -0.0005, -0.0005, -0.0005], "LMAXPAW": -100, "LMAXMIX": 4, "NLSPLINE": false, "ISTART": 0, "ICHARG": 2, "INIWAV": 1, "ISPIN": 1, "LNONCOLLINEAR": false, "MAGMOM": [0.6, 0.6, 0.6, 0.6, 0.6, 0.6, 0.6, 0.6, 0.6, 0.6, 0.6, 0.6, 0.6, 0.6, 0.6, 0.6, 0.6, 0.6, 0.6, 0.6, 0.6, 0.6, 0.6, 0.6, 0.6, 0.6, 0.6, 0.6, 0.6, 0.6, 0.6, 0.6, 0.6, 0.6, 0.6, 0.6, 0.6, 0.6, 0.6, 0.6, 0.6, 0.6, 0.6, 0.6, 0.6, 0.6, 0.6, 0.6, 0.6, 0.6, 0.6, 0.6, 0.6, 0.6, 0.6, 0.6, 0.6, 0.6, 0.6, 0.6, 0.6, 0.6, 0.6, 0.6, 0.6, 0.6, 0.6, 0.6, 0.6, 0.6, 0.6, 0.6, 0.6, 0.6, 0.6, 0.6, 0.6, 0.6, 0.6, 0.6], "NUPDOWN": -1.0, "LSORBIT": false, "SAXIS": [0.0, 0.0, 1.0], "LSPIRAL": false, "QSPIRAL": [0.0, 0.0, 0.0], "LZEROZ": false, "LASPH": false, "LMETAGGA": false, "NELM": 100, "NELMDL": -5, "NELMIN": 6, "ENINI": 520.0, "LDIAG": true, "LSUBROT": false, "WEIMIN": 0.001, "EBREAK": 1e-08, "DEPER": 0.3, "NRMM": 4, "TIME": 0.4, "AMIX": 0.4, "BMIX": 1.0, "AMIN": 0.1, "AMIX_MAG": 1.6, "BMIX_MAG": 1.0, "IMIX": 4, "MIXFIRST": false, "MAXMIX": -45, "WC": 100.0, "INIMIX": 1, "MIXPRE": 1, "MREMOVE": 5, "LDIPOL": false, "LMONO": false, "IDIPOL": 0, "EPSILON": 1.0, "DIPOL": [-100.0, -100.0, -100.0], "EFIELD": 0.0, "NGX": 54, "NGY": 54, "NGZ": 252, "NGXF": 108, "NGYF": 108, "NGZF": 504, "ADDGRID": false, "NSW": 150, "IBRION": 2, "MDALGO": 0, "ISIF": 2, "PSTRESS": 0.0, "EDIFFG": -0.01, "NFREE": 1, "POTIM": 0.5, "SMASS": -3.0, "SCALEE": 1.0, "TEBEG": 0.0001, "TEEND": 0.0001, "NBLOCK": 1, "KBLOCK": 150, "NPACO": 256, "APACO": 10.0, "ISYM": 0, "SYMPREC": 1e-05, "LORBIT": 11, "RWIGS": [-1.0, -1.0, -1.0, -1.0, -1.0], "NEDOS": 301, "EMIN": 10.0, "EMAX": -10.0, "EFERMI": 0.0, "NWRITE": 2, "LWAVE": false, "LDOWNSAMPLE": false, "LCHARG": false, "LPARD": false, "LVTOT": false, "LVHAR": false, "LELF": false, "LOPTICS": false, "STM": [0.0, 0.0, 0.0, 0.0, 0.0, 0.0, 0.0], "NPAR": 2, "NSIM": 4, "NBLK": -1, "LPLANE": true, "LSCALAPACK": true, "LSCAAWARE": false, "LSCALU": false, "LASYNC": false, "LORBITALREAL": false, "IDIOT": 3, "PHON_NSTRUCT": -1, "LMUSIC": false, "POMASS": [22.99, 91.224, 28.085, 30.974, 16.0], "DARWINR": [0.0, 0.0, 0.0, 0.0, 0.0], "DARWINV": [1.0, 1.0, 1.0, 1.0, 1.0], "LCORR": true, "GGA_COMPAT": true, "LBERRY": false, "ICORELEVEL": 0, "LDAU": false, "I_CONSTRAINED_M": 0, "GGA": "--", "VOSKOWN": 0, "LHFCALC": false, "PRECFOCK": "", "LSYMGRAD": false, "LHFONE": false, "LRHFCALC": false, "LTHOMAS": false, "LMODELHF": false, "LFOCKACE": false, "ENCUT4O": -1.0, "EXXOEP": 0, "FOURORBIT": 0, "AEXX": 0.0, "HFALPHA": 0.0, "MCALPHA": 0.0, "ALDAX": 1.0, "AGGAX": 1.0, "ALDAC": 1.0, "AGGAC": 1.0, "NKREDX": 1, "NKREDY": 1, "NKREDZ": 1, "SHIFTRED": false, "ODDONLY": false, "EVENONLY": false, "LMAXFOCK": 0, "NMAXFOCKAE": 0, "LFOCKAEDFT": false, "HFSCREEN": 0.0, "HFSCREENC": 0.0, "NBANDSGWLOW": 0, "LUSE_VDW": false, "Zab_VDW": -0.8491, "PARAM1": 0.1234, "PARAM2": 1.0, "PARAM3": 0.0, "MODEL_GW": 0, "MODEL_EPS0": 25.16553134, "MODEL_ALPHA": 1.0, "LEPSILON": false, "LRPA": false, "LNABLA": false, "LVEL": false, "CSHIFT": 0.1, "OMEGAMAX": -1.0, "DEG_THRESHOLD": 0.002, "RTIME": -0.1, "WPLASMAI": 0.0, "DFIELD": [0.0, 0.0, 0.0], "WPLASMA": [0.0, 0.0, 0.0, 0.0, 0.0, 0.0, 0.0, 0.0, 0.0], "NUCIND": false, "MAGPOS": [0.0, 0.0, 0.0], "LNICSALL": true, "ORBITALMAG": false, "LMAGBLOCH": false, "LCHIMAG": false, "LGAUGE": true, "MAGATOM": 0, "MAGDIPOL": [0.0, 0.0, 0.0], "AVECCONST": [0.0, 0.0, 0.0], "LFINITE_TEMPERATURE": false, "LADDER": false, "LRPAFORCE": false, "LFXC": false, "LHARTREE": true, "IBSE": 0, "KPOINT": [-1, 0, 0, 0], "LTCTC": false, "LTCTE": false, "LTETE": false, "LTRIPLET": false, "LFXCEPS": false, "LFXHEG": false, "NATURALO": 2, "LHOLEGF": false, "L2ORDER": false, "LDMP1": false, "LMP2LT": false, "LSMP2LT": false, "LGWLF": false, "ENCUTGW": -2.0, "ENCUTGWSOFT": -2.0, "ENCUTLF": -1.0, "LESF_SPLINES": false, "LMAXMP2": -1, "SCISSOR": 0.0, "NOMEGA": 0, "NOMEGAR": 0, "NBANDSGW": -1, "NBANDSO": -1, "NBANDSV": -1, "NELMGW": 1, "NELMHF": 1, "DIM": 3, "IESPILON": 4, "ANTIRES": 0, "OMEGAMIN": -30.0, "OMEGATL": -200.0, "OMEGAGRID": 0, "LSELFENERGY": false, "LSPECTRAL": false, "LSPECTRALGW": false, "LSINGLES": false, "LFERMIGW": false, "ODDONLYGW": false, "EVENONLYGW": false, "NKREDLFX": 1, "NKREDLFY": 1, "NKREDLFZ": 1, "MAXMEM": 2800, "TELESCOPE": 0, "NTAUPAR": -1, "NOMEGAPAR": -1, "DAMP_NEWTON": 0.80000001, "LAMBDA": 1.0, "OFIELD_KAPPA": 0.0, "OFIELD_K": [0.0, 0.0, 0.0], "OFIELD_Q6_NEAR": 0.0, "OFIELD_Q6_FAR": 0.0, "OFIELD_A": 0.0, "KPOINTS_OPT_MODE": 1, "LKPOINTS_OPT": false, "@module": "pymatgen.io.vasp.inputs", "@class": "Incar"}, "relaxed_structures": {"@module": "pymatgen.core.structure", "@class": "Structure", "charge": 0, "lattice": {"matrix": [[9.132688, 0.0, 0.0], [4.435089, 8.143568, 0.0], [0.0, 0.0, 45.116094]], "a": 9.132688, "b": 9.27295606635473, "c": 45.116094, "alpha": 90.0, "beta": 90.0, "gamma": 61.42673605530538, "volume": 3355.404179042951}, "sites": [{"species": [{"element": "Na", "occu": 1}], "abc": [0.15823724, 0.75274339, 9.999999999998899e-05], "xyz": [4.78361527171283, 6.13001698301552, 0.004511609399999503], "label": "Na", "properties": {}}, {"species": [{"element": "Na", "occu": 1}], "abc": [0.74756941, 0.29535198, 0.13610012000000002], "xyz": [8.1372304975003, 2.4052189330646403, 6.140305807331281], "label": "Na", "properties": {}}, {"species": [{"element": "Na", "occu": 1}], "abc": [0.73084216, 0.05571431, 0.051247320000000034], "xyz": [6.921651347949671, 0.45371327205808004, 2.3120789063680816], "label": "Na", "properties": {}}, {"species": [{"element": "Na", "occu": 1}], "abc": [0.17904528, 0.93789855, 0.13094577000000002], "xyz": [5.7948282223335905, 7.6378406190264005, 5.90776166822238], "label": "Na", "properties": {}}, {"species": [{"element": "Na", "occu": 1}], "abc": [0.10671877, 0.5695334, 0.05844384000000003], "xyz": [3.5005605476263595, 4.6380339711711995, 2.6367577791609613], "label": "Na", "properties": {}}, {"species": [{"element": "Na", "occu": 1}], "abc": [0.20163572, 0.7702051, 0.20544803], "xyz": [5.257404287169259, 6.2722176057968, 9.26901263359482], "label": "Na", "properties": {}}, {"species": [{"element": "Na", "occu": 1}], "abc": [0.58622311, 0.92545538, 0.17790274], "xyz": [9.4582697378485, 7.53650881799584, 8.02627674069756], "label": "Na", "properties": {}}, {"species": [{"element": "Na", "occu": 1}], "abc": [0.05513394, 0.63913536, 0.33220014000000003], "xyz": [3.3381432768777595, 5.204842265364481, 14.98757274305316], "label": "Na", "properties": {}}, {"species": [{"element": "Na", "occu": 1}], "abc": [0.03988883, 0.39847943, 0.24723195], "xyz": [2.13158397579431, 3.24504433480624, 11.154139896003299], "label": "Na", "properties": {}}, {"species": [{"element": "Na", "occu": 1}], "abc": [0.68024687, 0.12620121, 0.32510064000000005], "xyz": [6.772196024944249, 1.02772813531728, 14.667271033700162], "label": "Na", "properties": {}}, {"species": [{"element": "Na", "occu": 1}], "abc": [0.60896785, 0.75652219, 0.25255155], "xyz": [8.91675661920571, 6.16078989777392, 11.3941394696457], "label": "Na", "properties": {}}, {"species": [{"element": "Na", "occu": 1}], "abc": [0.62863811, 0.94322081, 0.38351608000000004], "xyz": [9.92442396254177, 7.681182805250081, 17.30274751579152], "label": "Na", "properties": {}}, {"species": [{"element": "Zr", "occu": 1}], "abc": [0.19147425, 0.23999222, 0.16670700000000002], "xyz": [2.81306144029158, 1.95439296304096, 7.521168682458001], "label": "Zr", "properties": {}}, {"species": [{"element": "Zr", "occu": 1}], "abc": [0.24797011, 0.16775563, 0.056671300000000036], "xyz": [3.00864479725675, 1.36612938028784, 2.5567876979022013], "label": "Zr", "properties": {}}, {"species": [{"element": "Zr", "occu": 1}], "abc": [0.92168564, 0.80826862, 0.13023039000000003], "xyz": [12.0022106498075, 6.58219046923616, 5.875486516896661], "label": "Zr", "properties": {}}, {"species": [{"element": "Zr", "occu": 1}], "abc": [0.50132109, 0.56832051, 0.08738099000000005], "xyz": [7.09896114516531, 4.62815671897968, 3.942288958653062], "label": "Zr", "properties": {}}, {"species": [{"element": "Zr", "occu": 1}], "abc": [0.53880967, 0.52778197, 0.32676191000000004], "xyz": [7.261540617038291, 4.29802836186896, 14.742221047179541], "label": "Zr", "properties": {}}, {"species": [{"element": "Zr", "occu": 1}], "abc": [0.59644448, 0.45456352, 0.21674472], "xyz": [7.46317101251552, 3.70176893543936, 9.77867516152368], "label": "Zr", "properties": {}}, {"species": [{"element": "Zr", "occu": 1}], "abc": [0.28610384, 0.12683118, 0.29603680000000004], "xyz": [3.17540467759694, 1.03285833885024, 13.356024096259201], "label": "Zr", "properties": {}}, {"species": [{"element": "Zr", "occu": 1}], "abc": [0.86582216, 0.88653882, 0.25332313000000006], "xyz": [11.839162219421059, 7.21958916530976, 11.428950145454221], "label": "Zr", "properties": {}}, {"species": [{"element": "Si", "occu": 1}], "abc": [0.33314442, 0.53046266, 0.15237681], "xyz": [5.3951531550777, 4.3198587431708795, 6.87464648338014], "label": "Si", "properties": {}}, {"species": [{"element": "Si", "occu": 1}], "abc": [0.09431135, 0.87634002, 0.06510648000000004], "xyz": [4.74796211737058, 7.13653454399136, 2.937350071689121], "label": "Si", "properties": {}}, {"species": [{"element": "Si", "occu": 1}], "abc": [0.93836448, 0.43957622, 0.10445117000000004], "xyz": [10.51934968410582, 3.57971883875296, 4.712428804129981], "label": "Si", "properties": {}}, {"species": [{"element": "Si", "occu": 1}], "abc": [0.48996046, 0.95066816, 0.11267047000000004], "xyz": [8.690953912582719, 7.74183080639488, 5.083251515544181], "label": "Si", "properties": {}}, {"species": [{"element": "Si", "occu": 1}], "abc": [0.69235667, 0.81947637, 0.31846855], "xyz": [9.95752808617589, 6.67346154348816, 14.3680570378437], "label": "Si", "properties": {}}, {"species": [{"element": "Si", "occu": 1}], "abc": [0.45473316, 0.16403854, 0.23110702000000002], "xyz": [4.880461597864141, 1.3358590051107202, 10.42664603837988], "label": "Si", "properties": {}}, {"species": [{"element": "Si", "occu": 1}], "abc": [0.29801939, 0.74454869, 0.27062244], "xyz": [6.02385781180373, 6.06328288632592, 12.20942744154936], "label": "Si", "properties": {}}, {"species": [{"element": "Si", "occu": 1}], "abc": [0.84892653, 0.25492259, 0.27907529000000003], "xyz": [8.88358550817315, 2.07597944640112, 12.590787016717261], "label": "Si", "properties": {}}, {"species": [{"element": "P", "occu": 1}], "abc": [0.45802314, 0.3591793, 0.02385399000000003], "xyz": [5.77597459685802, 2.9250010537424, 1.0761988551150612], "label": "P", "properties": {}}, {"species": [{"element": "P", "occu": 1}], "abc": [0.91477571, 0.08761125, 0.18601209000000002], "xyz": [8.742924840559729, 0.71346817194, 8.39213893757646], "label": "P", "properties": {}}, {"species": [{"element": "P", "occu": 1}], "abc": [0.87277401, 0.60739103, 0.19751323], "xyz": [10.664606003690551, 4.9463301553950405, 8.91102545092362], "label": "P", "properties": {}}, {"species": [{"element": "P", "occu": 1}], "abc": [0.32832819, 0.33624263, 0.35959181000000007], "xyz": [4.48978491051879, 2.73821472190384, 16.22337790159014], "label": "P", "properties": {}}, {"species": [{"element": "O", "occu": 1}], "abc": [0.16808648, 0.70834407, 0.14634043000000002], "xyz": [4.67665037193047, 5.76844810144176, 6.60230859588042], "label": "O", "properties": {}}, {"species": [{"element": "O", "occu": 1}], "abc": [0.26402938, 0.70425024, 0.07273023000000003], "xyz": [5.5347104430447995, 5.735109718456321, 3.2813038933216214], "label": "O", "properties": {}}, {"species": [{"element": "O", "occu": 1}], "abc": [0.004699, 0.31898927, 0.13324376000000002], "xyz": [1.45766030340703, 2.59771081151536, 6.01143800107344], "label": "O", "properties": {}}, {"species": [{"element": "O", "occu": 1}], "abc": [0.44131361, 0.06915398, 0.08259209000000003], "xyz": [4.3370835662879, 0.5631601386006401, 3.7262324960964612], "label": "O", "properties": {}}, {"species": [{"element": "O", "occu": 1}], "abc": [0.60144869, 0.20658226, 0.011183840000000032], "xyz": [6.40905394269986, 1.68231668190368, 0.5045711767209614], "label": "O", "properties": {}}, {"species": [{"element": "O", "occu": 1}], "abc": [0.37378812, 0.51505433, 0.005643210000000032], "xyz": [5.6980020714519295, 4.1943799600494405, 0.25459959282174144], "label": "O", "properties": {}}, {"species": [{"element": "O", "occu": 1}], "abc": [0.31018239, 0.31062796, 0.03183574000000003], "xyz": [4.21046163945276, 2.52961991496128, 1.4363042383995612], "label": "O", "properties": {}}, {"species": [{"element": "O", "occu": 1}], "abc": [0.87329206, 0.02242993, 0.15705493], "xyz": [8.07498265267105, 0.18265966019024002, 7.08570498504342], "label": "O", "properties": {}}, {"species": [{"element": "O", "occu": 1}], "abc": [0.5139263, 0.39638881, 0.055500450000000034], "xyz": [6.451548203848489, 3.22801922867408, 2.5039635192423013], "label": "O", "properties": {}}, {"species": [{"element": "O", "occu": 1}], "abc": [0.27888839, 0.38781417, 0.15485318], "xyz": [4.26699101210345, 3.1581910647585603, 6.98637062507892], "label": "O", "properties": {}}, {"species": [{"element": "O", "occu": 1}], "abc": [0.15606331, 0.01145451, 0.054089710000000034], "xyz": [1.47607928977867, 0.09328058109168, 2.4403164407927416], "label": "O", "properties": {}}, {"species": [{"element": "O", "occu": 1}], "abc": [0.94984972, 0.61036148, 0.10724010000000005], "xyz": [11.38168862561908, 4.97052021696064, 4.838254432169402], "label": "O", "properties": {}}, {"species": [{"element": "O", "occu": 1}], "abc": [0.47764373, 0.78723788, 0.10310750000000005], "xyz": [7.853641223217559, 6.41092520795584, 4.651807662105002], "label": "O", "properties": {}}, {"species": [{"element": "O", "occu": 1}], "abc": [0.35483333, 0.04322688, 0.13957683], "xyz": [3.43229715488336, 0.35202103670784, 6.29716138250202], "label": "O", "properties": {}}, {"species": [{"element": "O", "occu": 1}], "abc": [0.06693123, 0.35013209, 0.07609522000000005], "xyz": [2.1641290219522498, 2.85132448389712, 3.433119098470682], "label": "O", "properties": {}}, {"species": [{"element": "O", "occu": 1}], "abc": [0.98183577, 0.93030431, 0.09631632000000004], "xyz": [13.09278216658335, 7.575996409178081, 4.345416146854081], "label": "O", "properties": {}}, {"species": [{"element": "O", "occu": 1}], "abc": [0.46683512, 0.47654721, 0.12437770000000004], "xyz": [6.37698878745425, 3.88079460984528, 5.611436004703801], "label": "O", "properties": {}}, {"species": [{"element": "O", "occu": 1}], "abc": [0.99089697, 0.84360849, 0.039356950000000036], "xyz": [12.791031601460968, 6.869983103692321, 1.7756318557533015], "label": "O", "properties": {}}, {"species": [{"element": "O", "occu": 1}], "abc": [0.67041569, 0.92136339, 0.12397156000000004], "xyz": [10.20902596306643, 7.50318541917552, 5.593112554286641], "label": "O", "properties": {}}, {"species": [{"element": "O", "occu": 1}], "abc": [0.75555159, 0.46416343, 0.09462434000000004], "xyz": [8.95882306196919, 3.77994645531824, 4.269080618127962], "label": "O", "properties": {}}, {"species": [{"element": "O", "occu": 1}], "abc": [0.52321786, 0.99192529, 0.31076149000000003], "xyz": [9.17766241390849, 8.07781105003472, 14.02034459442006], "label": "O", "properties": {}}, {"species": [{"element": "O", "occu": 1}], "abc": [0.6196346, 0.98613915, 0.23714486], "xyz": [10.032544372439151, 8.0306912254872, 10.69904979537684], "label": "O", "properties": {}}, {"species": [{"element": "O", "occu": 1}], "abc": [0.34649634, 0.62552566, 0.30063293], "xyz": [5.9387049402456595, 5.09401074795488, 13.56338352937542], "label": "O", "properties": {}}, {"species": [{"element": "O", "occu": 1}], "abc": [0.7830648, 0.37529892, 0.25023304], "xyz": [8.81597061398628, 3.05627227534656, 11.28953735454576], "label": "O", "properties": {}}, {"species": [{"element": "O", "occu": 1}], "abc": [0.00944072, 0.42626721, 0.19470912], "xyz": [1.9767521643870498, 3.47133601080528, 8.78451496057728], "label": "O", "properties": {}}, {"species": [{"element": "O", "occu": 1}], "abc": [0.77866122, 0.26897357, 0.18870978000000002], "xyz": [8.30419170155709, 2.19040455749776, 8.513848173199321], "label": "O", "properties": {}}, {"species": [{"element": "O", "occu": 1}], "abc": [0.86645255, 0.71330807, 0.17078796000000002], "xyz": [11.076625580822629, 5.80887277299376, 7.70528565742824], "label": "O", "properties": {}}, {"species": [{"element": "O", "occu": 1}], "abc": [0.92080325, 0.98226255, 0.21280675000000002], "xyz": [12.765830622252949, 7.9991218697784, 9.6010093368345], "label": "O", "properties": {}}, {"species": [{"element": "O", "occu": 1}], "abc": [0.09057384, 0.07321466, 0.18171925000000003], "xyz": [1.15189615488666, 0.59622856230688, 8.1984627646095], "label": "O", "properties": {}}, {"species": [{"element": "O", "occu": 1}], "abc": [0.69725831, 0.62127267, 0.20177365000000003], "xyz": [9.123242185354911, 5.05937623468656, 9.1032389601231], "label": "O", "properties": {}}, {"species": [{"element": "O", "occu": 1}], "abc": [0.27183361, 0.29920362, 0.32798252000000006], "xyz": [3.80956623186586, 2.4365850253161603, 14.797290202676882], "label": "O", "properties": {}}, {"species": [{"element": "O", "occu": 1}], "abc": [0.91402676, 0.67232885, 0.22652719000000002], "xyz": [11.32935950974853, 5.4751557083368, 10.22002199759586], "label": "O", "properties": {}}, {"species": [{"element": "O", "occu": 1}], "abc": [0.62964496, 0.68501967, 0.32947730000000003], "xyz": [8.78847417365311, 5.57850426398256, 14.8647288376662], "label": "O", "properties": {}}, {"species": [{"element": "O", "occu": 1}], "abc": [0.50949924, 0.30632365, 0.22854972], "xyz": [6.0116702457119695, 2.4945674737832, 10.311270651193679], "label": "O", "properties": {}}, {"species": [{"element": "O", "occu": 1}], "abc": [0.31119752, 0.90741906, 0.28023464000000003], "xyz": [6.8665541479301, 7.389628819606081, 12.64309236029616], "label": "O", "properties": {}}, {"species": [{"element": "O", "occu": 1}], "abc": [0.83660725, 0.08462598, 0.27641066000000003], "xyz": [8.01579674580022, 0.68915742269664, 12.47056931916204], "label": "O", "properties": {}}, {"species": [{"element": "O", "occu": 1}], "abc": [0.72068158, 0.34568646, 0.30741625000000006], "xyz": [8.11491023368198, 2.8151211936892797, 13.869420432127502], "label": "O", "properties": {}}, {"species": [{"element": "O", "occu": 1}], "abc": [0.43289447, 0.65182689, 0.24371051000000002], "xyz": [6.84440040117857, 5.308196602943521, 10.99526627794794], "label": "O", "properties": {}}, {"species": [{"element": "O", "occu": 1}], "abc": [0.32066023, 0.21871393, 0.25904986], "xyz": [3.8985055796880097, 1.78111176150224, 11.68731783444684], "label": "O", "properties": {}}, {"species": [{"element": "O", "occu": 1}], "abc": [0.80528069, 0.76475648, 0.28729144000000006], "xyz": [10.74614034632144, 6.22784639832064, 12.961467612435362], "label": "O", "properties": {}}, {"species": [{"element": "O", "occu": 1}], "abc": [0.36140234, 0.14658344, 0.20140522000000002], "xyz": [3.9506854160160803, 1.19371221131392, 9.08661683761068], "label": "O", "properties": {}}, {"species": [{"element": "O", "occu": 1}], "abc": [0.42644577, 0.54796654, 0.18205541], "xyz": [6.32487654025182, 4.46240278021472, 8.21362899076854], "label": "O", "properties": {}}, {"species": [{"element": "O", "occu": 1}], "abc": [0.03212228, 0.22975912, 0.28880665000000005], "xyz": [1.31236490685032, 1.8710590173401602, 13.029827969225101], "label": "O", "properties": {}}, {"species": [{"element": "O", "occu": 1}], "abc": [0.11714925, 0.77464462, 0.25940271000000004], "xyz": [4.50550538275518, 6.30837113880416, 11.70323704821474], "label": "O", "properties": {}}, {"species": [{"element": "O", "occu": 1}], "abc": [0.18519668, 0.48897155, 0.37229302000000003], "xyz": [3.8599758397937896, 3.9819730674904, 16.79640688586388], "label": "O", "properties": {}}, {"species": [{"element": "O", "occu": 1}], "abc": [0.41268682, 0.18043678, 0.37780871000000005], "xyz": [4.5691931469455795, 1.46939918763104, 17.04525327437874], "label": "O", "properties": {}}, {"species": [{"element": "O", "occu": 1}], "abc": [0.47604585, 0.38471978, 0.35145734000000006], "xyz": [6.0538446861052195, 3.1329916893750402, 15.856382388429962], "label": "O", "properties": {}}, {"species": [{"element": "O", "occu": 1}], "abc": [0.79574729, 0.85210009, 0.34423494000000004], "xyz": [11.046451462473529, 6.93913502572112, 15.53053591112436], "label": "O", "properties": {}}]}, "formula": "(Na3Zr2Si2PO12)4.0", "bandgap": 3.32, "slab_thickness": 17.298235906391522}