{"miller": "100_0.17", "final_energy": -599.2437552, "gamma": 0.05977666169580789, "work_function": "Not calculated", "ionization_potentail": "Not calculated", "electron_affinity": "Not calculated", "is_stochiometric": true, "incar_parameters": {"SYSTEM": "unknown system", "LCOMPAT": false, "PREC": "normal", "ENMAX": 520.0, "ENAUG": 605.392, "EDIFF": 1e-05, "IALGO": 38, "IWAVPR": 11, "NBANDS": 312, "NBANDSLOW": -1, "NBANDSHIGH": -1, "NELECT": 520.0, "TURBO": 0, "IRESTART": 0, "NREBOOT": 0, "NMIN": 0, "EREF": 0.0, "ISMEAR": 0, "SIGMA": 0.05, "KSPACING": 0.5, "KGAMMA": true, "KBLOWUP": true, "LREAL": true, "ROPT": [-0.0005, -0.0005, -0.0005, -0.0005, -0.0005], "LMAXPAW": -100, "LMAXMIX": 4, "NLSPLINE": false, "ISTART": 0, "ICHARG": 2, "INIWAV": 1, "ISPIN": 1, "LNONCOLLINEAR": false, "MAGMOM": [0.6, 0.6, 0.6, 0.6, 0.6, 0.6, 0.6, 0.6, 0.6, 0.6, 0.6, 0.6, 0.6, 0.6, 0.6, 0.6, 0.6, 0.6, 0.6, 0.6, 0.6, 0.6, 0.6, 0.6, 0.6, 0.6, 0.6, 0.6, 0.6, 0.6, 0.6, 0.6, 0.6, 0.6, 0.6, 0.6, 0.6, 0.6, 0.6, 0.6, 0.6, 0.6, 0.6, 0.6, 0.6, 0.6, 0.6, 0.6, 0.6, 0.6, 0.6, 0.6, 0.6, 0.6, 0.6, 0.6, 0.6, 0.6, 0.6, 0.6, 0.6, 0.6, 0.6, 0.6, 0.6, 0.6, 0.6, 0.6, 0.6, 0.6, 0.6, 0.6, 0.6, 0.6, 0.6, 0.6, 0.6, 0.6, 0.6, 0.6], "NUPDOWN": -1.0, "LSORBIT": false, "SAXIS": [0.0, 0.0, 1.0], "LSPIRAL": false, "QSPIRAL": [0.0, 0.0, 0.0], "LZEROZ": false, "LASPH": false, "LMETAGGA": false, "NELM": 100, "NELMDL": -5, "NELMIN": 6, "ENINI": 520.0, "LDIAG": true, "LSUBROT": false, "WEIMIN": 0.001, "EBREAK": 1e-08, "DEPER": 0.3, "NRMM": 4, "TIME": 0.4, "AMIX": 0.4, "BMIX": 1.0, "AMIN": 0.1, "AMIX_MAG": 1.6, "BMIX_MAG": 1.0, "IMIX": 4, "MIXFIRST": false, "MAXMIX": -45, "WC": 100.0, "INIMIX": 1, "MIXPRE": 1, "MREMOVE": 5, "LDIPOL": false, "LMONO": false, "IDIPOL": 0, "EPSILON": 1.0, "DIPOL": [-100.0, -100.0, -100.0], "EFIELD": 0.0, "NGX": 54, "NGY": 54, "NGZ": 252, "NGXF": 108, "NGYF": 108, "NGZF": 504, "ADDGRID": false, "NSW": 150, "IBRION": 2, "MDALGO": 0, "ISIF": 2, "PSTRESS": 0.0, "EDIFFG": -0.01, "NFREE": 1, "POTIM": 0.5, "SMASS": -3.0, "SCALEE": 1.0, "TEBEG": 0.0001, "TEEND": 0.0001, "NBLOCK": 1, "KBLOCK": 150, "NPACO": 256, "APACO": 10.0, "ISYM": 0, "SYMPREC": 1e-05, "LORBIT": 11, "RWIGS": [-1.0, -1.0, -1.0, -1.0, -1.0], "NEDOS": 301, "EMIN": 10.0, "EMAX": -10.0, "EFERMI": 0.0, "NWRITE": 2, "LWAVE": false, "LDOWNSAMPLE": false, "LCHARG": false, "LPARD": false, "LVTOT": false, "LVHAR": false, "LELF": false, "LOPTICS": false, "STM": [0.0, 0.0, 0.0, 0.0, 0.0, 0.0, 0.0], "NPAR": 2, "NSIM": 4, "NBLK": -1, "LPLANE": true, "LSCALAPACK": true, "LSCAAWARE": false, "LSCALU": false, "LASYNC": false, "LORBITALREAL": false, "IDIOT": 3, "PHON_NSTRUCT": -1, "LMUSIC": false, "POMASS": [22.99, 91.224, 28.085, 30.974, 16.0], "DARWINR": [0.0, 0.0, 0.0, 0.0, 0.0], "DARWINV": [1.0, 1.0, 1.0, 1.0, 1.0], "LCORR": true, "GGA_COMPAT": true, "LBERRY": false, "ICORELEVEL": 0, "LDAU": false, "I_CONSTRAINED_M": 0, "GGA": "--", "VOSKOWN": 0, "LHFCALC": false, "PRECFOCK": "", "LSYMGRAD": false, "LHFONE": false, "LRHFCALC": false, "LTHOMAS": false, "LMODELHF": false, "LFOCKACE": false, "ENCUT4O": -1.0, "EXXOEP": 0, "FOURORBIT": 0, "AEXX": 0.0, "HFALPHA": 0.0, "MCALPHA": 0.0, "ALDAX": 1.0, "AGGAX": 1.0, "ALDAC": 1.0, "AGGAC": 1.0, "NKREDX": 1, "NKREDY": 1, "NKREDZ": 1, "SHIFTRED": false, "ODDONLY": false, "EVENONLY": false, "LMAXFOCK": 0, "NMAXFOCKAE": 0, "LFOCKAEDFT": false, "HFSCREEN": 0.0, "HFSCREENC": 0.0, "NBANDSGWLOW": 0, "LUSE_VDW": false, "Zab_VDW": -0.8491, "PARAM1": 0.1234, "PARAM2": 1.0, "PARAM3": 0.0, "MODEL_GW": 0, "MODEL_EPS0": 25.16553134, "MODEL_ALPHA": 1.0, "LEPSILON": false, "LRPA": false, "LNABLA": false, "LVEL": false, "CSHIFT": 0.1, "OMEGAMAX": -1.0, "DEG_THRESHOLD": 0.002, "RTIME": -0.1, "WPLASMAI": 0.0, "DFIELD": [0.0, 0.0, 0.0], "WPLASMA": [0.0, 0.0, 0.0, 0.0, 0.0, 0.0, 0.0, 0.0, 0.0], "NUCIND": false, "MAGPOS": [0.0, 0.0, 0.0], "LNICSALL": true, "ORBITALMAG": false, "LMAGBLOCH": false, "LCHIMAG": false, "LGAUGE": true, "MAGATOM": 0, "MAGDIPOL": [0.0, 0.0, 0.0], "AVECCONST": [0.0, 0.0, 0.0], "LFINITE_TEMPERATURE": false, "LADDER": false, "LRPAFORCE": false, "LFXC": false, "LHARTREE": true, "IBSE": 0, "KPOINT": [-1, 0, 0, 0], "LTCTC": false, "LTCTE": false, "LTETE": false, "LTRIPLET": false, "LFXCEPS": false, "LFXHEG": false, "NATURALO": 2, "LHOLEGF": false, "L2ORDER": false, "LDMP1": false, "LMP2LT": false, "LSMP2LT": false, "LGWLF": false, "ENCUTGW": -2.0, "ENCUTGWSOFT": -2.0, "ENCUTLF": -1.0, "LESF_SPLINES": false, "LMAXMP2": -1, "SCISSOR": 0.0, "NOMEGA": 0, "NOMEGAR": 0, "NBANDSGW": -1, "NBANDSO": -1, "NBANDSV": -1, "NELMGW": 1, "NELMHF": 1, "DIM": 3, "IESPILON": 4, "ANTIRES": 0, "OMEGAMIN": -30.0, "OMEGATL": -200.0, "OMEGAGRID": 0, "LSELFENERGY": false, "LSPECTRAL": false, "LSPECTRALGW": false, "LSINGLES": false, "LFERMIGW": false, "ODDONLYGW": false, "EVENONLYGW": false, "NKREDLFX": 1, "NKREDLFY": 1, "NKREDLFZ": 1, "MAXMEM": 2800, "TELESCOPE": 0, "NTAUPAR": -1, "NOMEGAPAR": -1, "DAMP_NEWTON": 0.80000001, "LAMBDA": 1.0, "OFIELD_KAPPA": 0.0, "OFIELD_K": [0.0, 0.0, 0.0], "OFIELD_Q6_NEAR": 0.0, "OFIELD_Q6_FAR": 0.0, "OFIELD_A": 0.0, "KPOINTS_OPT_MODE": 1, "LKPOINTS_OPT": false, "@module": "pymatgen.io.vasp.inputs", "@class": "Incar"}, "relaxed_structures": {"@module": "pymatgen.core.structure", "@class": "Structure", "charge": 0, "lattice": {"matrix": [[9.132688, 0.0, 0.0], [4.435089, 8.143568, 0.0], [0.0, 0.0, 45.116094]], "a": 9.132688, "b": 9.27295606635473, "c": 45.116094, "alpha": 90.0, "beta": 90.0, "gamma": 61.42673605530538, "volume": 3355.404179042951}, "sites": [{"species": [{"element": "Na", "occu": 1}], "abc": [0.22895872, 0.81048867, 9.99999999999994e-05], "xyz": [5.68559793958099, 6.60026959737456, 0.004511609399999972], "label": "Na", "properties": {}}, {"species": [{"element": "Na", "occu": 1}], "abc": [0.80053004, 0.11292216, 0.051633290000000005], "xyz": [7.81181091961976, 0.91958928866688, 2.3294923651692603], "label": "Na", "properties": {}}, {"species": [{"element": "Na", "occu": 1}], "abc": [0.24856072, 0.99928579, 0.13087019], "xyz": [6.701948919900669, 8.13775178229872, 5.90435179383786], "label": "Na", "properties": {}}, {"species": [{"element": "Na", "occu": 1}], "abc": [0.17750358, 0.62936435, 0.05883801], "xyz": [4.41237172070019, 5.1252713810008, 2.65454118993294], "label": "Na", "properties": {}}, {"species": [{"element": "Na", "occu": 1}], "abc": [0.27146798, 0.83137117, 0.20554947], "xyz": [6.166437494314369, 6.770327656134561, 9.27358921017018], "label": "Na", "properties": {}}, {"species": [{"element": "Na", "occu": 1}], "abc": [0.65465851, 0.98538426, 0.17807078], "xyz": [10.34905881067402, 8.02454372743968, 8.03385804913332], "label": "Na", "properties": {}}, {"species": [{"element": "Na", "occu": 1}], "abc": [0.81680267, 0.35659471, 0.13618566000000001], "xyz": [9.04113321845615, 2.90395326932528, 6.14416503801204], "label": "Na", "properties": {}}, {"species": [{"element": "Na", "occu": 1}], "abc": [0.10994238, 0.46151442, 0.24742005], "xyz": [3.05092698200082, 3.7583740622505597, 11.1626262332847], "label": "Na", "properties": {}}, {"species": [{"element": "Na", "occu": 1}], "abc": [0.75008241, 0.18899572, 0.32504167], "xyz": [7.68848146363716, 1.53909949752896, 14.66461053763698], "label": "Na", "properties": {}}, {"species": [{"element": "Na", "occu": 1}], "abc": [0.67879725, 0.81825189, 0.25265289], "xyz": [9.82826345607621, 6.66348990734352, 11.39871153461166], "label": "Na", "properties": {}}, {"species": [{"element": "Na", "occu": 1}], "abc": [0.69769519, 0.00735582, 0.38346314], "xyz": [6.4044562057387004, 0.05990262036576, 17.30035906977516], "label": "Na", "properties": {}}, {"species": [{"element": "Na", "occu": 1}], "abc": [0.12555305, 0.70310553, 0.33188747], "xyz": [4.264972435040569, 5.72578769473104, 14.97346629394218], "label": "Na", "properties": {}}, {"species": [{"element": "Zr", "occu": 1}], "abc": [0.31724848, 0.22836699, 0.05668965], "xyz": [3.9101593116263498, 1.85972211202032, 2.5576155782270997], "label": "Zr", "properties": {}}, {"species": [{"element": "Zr", "occu": 1}], "abc": [0.99118332, 0.86986417, 0.13025141], "xyz": [12.91009302422529, 7.083798019158561, 5.87643485719254], "label": "Zr", "properties": {}}, {"species": [{"element": "Zr", "occu": 1}], "abc": [0.57112097, 0.62912209, 0.08743238], "xyz": [8.00608209028337, 5.12329852021712, 3.94460747472372], "label": "Zr", "properties": {}}, {"species": [{"element": "Zr", "occu": 1}], "abc": [0.26068367, 0.30171934, 0.16679956], "xyz": [3.7188947507262196, 2.45707196220512, 7.52534462811864], "label": "Zr", "properties": {}}, {"species": [{"element": "Zr", "occu": 1}], "abc": [0.66615955, 0.51651252, 0.21671704], "xyz": [8.37460632418468, 4.20625482947136, 9.77742634804176], "label": "Zr", "properties": {}}, {"species": [{"element": "Zr", "occu": 1}], "abc": [0.35610729, 0.18907782, 0.29609575], "xyz": [4.0907937337215, 1.53976808446176, 13.358683690000499], "label": "Zr", "properties": {}}, {"species": [{"element": "Zr", "occu": 1}], "abc": [0.93533153, 0.94899025, 0.25337038], "xyz": [12.75094725893489, 7.728166632212001, 11.43108188089572], "label": "Zr", "properties": {}}, {"species": [{"element": "Zr", "occu": 1}], "abc": [0.60939562, 0.59019808, 0.32689562], "xyz": [8.183001078455678, 4.80631819794944, 14.748253520108278], "label": "Zr", "properties": {}}, {"species": [{"element": "Si", "occu": 1}], "abc": [0.16396227, 0.93677786, 0.06500363], "xyz": [5.6521094380112995, 7.6287142038044795, 2.93270988142122], "label": "Si", "properties": {}}, {"species": [{"element": "Si", "occu": 1}], "abc": [0.00786379, 0.50083053, 0.10462041], "xyz": [2.29304551503469, 4.07854747753104, 4.720064251878539], "label": "Si", "properties": {}}, {"species": [{"element": "Si", "occu": 1}], "abc": [0.55929149, 0.01165129, 0.1127804], "xyz": [5.15950918733993, 0.09488307240272, 5.088211127757599], "label": "Si", "properties": {}}, {"species": [{"element": "Si", "occu": 1}], "abc": [0.40258582, 0.5919051, 0.15237258], "xyz": [6.301842485338059, 4.8202194313968, 6.87445564230252], "label": "Si", "properties": {}}, {"species": [{"element": "Si", "occu": 1}], "abc": [0.52418874, 0.22621844, 0.23110753], "xyz": [5.790551130374281, 1.84222524899392, 10.42666904758782], "label": "Si", "properties": {}}, {"species": [{"element": "Si", "occu": 1}], "abc": [0.3678231, 0.80665837, 0.27069099], "xyz": [6.93681527503773, 6.56907728886416, 12.21252014979306], "label": "Si", "properties": {}}, {"species": [{"element": "Si", "occu": 1}], "abc": [0.91889005, 0.31773266, 0.2790729], "xyz": [9.80110875826114, 2.58747752253088, 12.590679189252599], "label": "Si", "properties": {}}, {"species": [{"element": "Si", "occu": 1}], "abc": [0.76249312, 0.88209317, 0.31860697], "xyz": [10.87577348234869, 7.18338571223056, 14.374302007575178], "label": "Si", "properties": {}}, {"species": [{"element": "P", "occu": 1}], "abc": [0.52852825, 0.41869309, 0.023977029999999996], "xyz": [6.683824724271011, 3.40965564954512, 1.0817499393208199], "label": "P", "properties": {}}, {"species": [{"element": "P", "occu": 1}], "abc": [0.98497791, 0.14870072, 0.18602718000000001], "xyz": [9.65499686648616, 1.21095442496896, 8.39281973943492], "label": "P", "properties": {}}, {"species": [{"element": "P", "occu": 1}], "abc": [0.94245363, 0.6695531, 0.19760092], "xyz": [11.57666254598334, 5.4525511994608005, 8.91498168120648], "label": "P", "properties": {}}, {"species": [{"element": "P", "occu": 1}], "abc": [0.39732718, 0.39969767, 0.35961112], "xyz": [5.40135990840247, 3.25496515508656, 16.22424909336528], "label": "P", "properties": {}}, {"species": [{"element": "O", "occu": 1}], "abc": [0.33399807, 0.76527106, 0.07277712], "xyz": [6.444345426136499, 6.23203691554208, 3.2834193869692796], "label": "O", "properties": {}}, {"species": [{"element": "O", "occu": 1}], "abc": [0.07341983, 0.38061146, 0.13347382], "xyz": [2.35856609992298, 3.09953530608928, 6.0218174096590795], "label": "O", "properties": {}}, {"species": [{"element": "O", "occu": 1}], "abc": [0.51073266, 0.12922519, 0.08257027], "xyz": [5.23748725388199, 1.05235412207792, 3.7252480629253797], "label": "O", "properties": {}}, {"species": [{"element": "O", "occu": 1}], "abc": [0.67124421, 0.26427686, 0.011680320000000001], "xyz": [7.30235533647702, 2.15215658023648, 0.52697041507008], "label": "O", "properties": {}}, {"species": [{"element": "O", "occu": 1}], "abc": [0.44601594, 0.57331894, 0.005410819999999997], "xyz": [6.61604494733238, 4.6688617735779205, 0.24411506373707983], "label": "O", "properties": {}}, {"species": [{"element": "O", "occu": 1}], "abc": [0.37924349, 0.37241814, 0.0321372], "xyz": [5.11522006631558, 3.0328124475235203, 1.4499049360967997], "label": "O", "properties": {}}, {"species": [{"element": "O", "occu": 1}], "abc": [0.58412481, 0.457568, 0.055513570000000005], "xyz": [7.36398444634128, 3.726236122624, 2.50455544239558], "label": "O", "properties": {}}, {"species": [{"element": "O", "occu": 1}], "abc": [0.22543721, 0.07190719, 0.053841240000000005], "xyz": [2.37776248991039, 0.58558109145392, 2.42910644491656], "label": "O", "properties": {}}, {"species": [{"element": "O", "occu": 1}], "abc": [0.01969977, 0.67143939, 0.10734675000000002], "xyz": [3.1578053058374698, 5.46791233034352, 4.843066063594501], "label": "O", "properties": {}}, {"species": [{"element": "O", "occu": 1}], "abc": [0.54717141, 0.84794478, 0.10340012000000001], "xyz": [8.7578563364355, 6.90529597617504, 4.66500953353128], "label": "O", "properties": {}}, {"species": [{"element": "O", "occu": 1}], "abc": [0.13715681, 0.41010104, 0.07641360999999999], "xyz": [3.0714449641978394, 3.33968570611072, 3.4474836116393393], "label": "O", "properties": {}}, {"species": [{"element": "O", "occu": 1}], "abc": [0.05126532, 0.99129362, 0.09620582], "xyz": [4.864665602612339, 8.07266700243616, 4.3404308184670795], "label": "O", "properties": {}}, {"species": [{"element": "O", "occu": 1}], "abc": [0.53636618, 0.53710769, 0.12438703000000001], "xyz": [7.280585383426249, 4.37397299683792, 5.61185693786082], "label": "O", "properties": {}}, {"species": [{"element": "O", "occu": 1}], "abc": [0.06118503, 0.90240261, 0.039361780000000006], "xyz": [4.561019678442929, 7.3487770179124805, 1.77584976648732], "label": "O", "properties": {}}, {"species": [{"element": "O", "occu": 1}], "abc": [0.7398396, 0.98272204, 0.12398526000000001], "xyz": [11.11518394650636, 8.00286375783872, 5.59373064477444], "label": "O", "properties": {}}, {"species": [{"element": "O", "occu": 1}], "abc": [0.8252631, 0.52535438, 0.09467732000000001], "xyz": [9.86686384205262, 4.27825911762784, 4.2714708687880805], "label": "O", "properties": {}}, {"species": [{"element": "O", "occu": 1}], "abc": [0.2377317, 0.76974355, 0.14628724], "xyz": [5.58501059523555, 6.268458941986401, 6.59990887084056], "label": "O", "properties": {}}, {"species": [{"element": "O", "occu": 1}], "abc": [0.68909906, 0.04833263, 0.23722555], "xyz": [6.50768623172735, 0.39360005902384004, 10.7026902130017], "label": "O", "properties": {}}, {"species": [{"element": "O", "occu": 1}], "abc": [0.41723034, 0.68782261, 0.30072773], "xyz": [6.860989010916209, 5.60133019647248, 13.56766053508662], "label": "O", "properties": {}}, {"species": [{"element": "O", "occu": 1}], "abc": [0.85230959, 0.43854417, 0.25030081], "xyz": [9.72885998925905, 3.57131426939856, 11.292594872236139], "label": "O", "properties": {}}, {"species": [{"element": "O", "occu": 1}], "abc": [0.0789513, 0.4883319, 0.19483673], "xyz": [2.8868330281334997, 3.9767640342192, 8.79027222533262], "label": "O", "properties": {}}, {"species": [{"element": "O", "occu": 1}], "abc": [0.84865572, 0.32994711, 0.18880911], "xyz": [9.21385270831815, 2.68694672668848, 8.51832955481634], "label": "O", "properties": {}}, {"species": [{"element": "O", "occu": 1}], "abc": [0.93637367, 0.77544426, 0.17088841000000002], "xyz": [11.990772887164102, 6.31488306151968, 7.70981756907054], "label": "O", "properties": {}}, {"species": [{"element": "O", "occu": 1}], "abc": [0.99073638, 0.04280967, 0.21271787], "xyz": [9.23795094530007, 0.34862345870256, 9.596999418399779], "label": "O", "properties": {}}, {"species": [{"element": "O", "occu": 1}], "abc": [0.16082181, 0.13434821, 0.18188498], "xyz": [2.06458168266597, 1.09407378381328, 8.20593985486812], "label": "O", "properties": {}}, {"species": [{"element": "O", "occu": 1}], "abc": [0.76667854, 0.68371263, 0.20173168], "xyz": [10.03416226658959, 5.5678602948638405, 9.101345437657919], "label": "O", "properties": {}}, {"species": [{"element": "O", "occu": 1}], "abc": [0.94391492, 0.08399618, 0.15696111000000001], "xyz": [8.99301099686498, 0.6840286035702401, 7.08147219310434], "label": "O", "properties": {}}, {"species": [{"element": "O", "occu": 1}], "abc": [0.98353215, 0.7343418, 0.22665362], "xyz": [12.2391635033394, 5.9801623835424005, 10.225726025360279], "label": "O", "properties": {}}, {"species": [{"element": "O", "occu": 1}], "abc": [0.34784882, 0.4496236, 0.15496371], "xyz": [5.17091542672856, 3.6615403610048003, 6.99135730694874], "label": "O", "properties": {}}, {"species": [{"element": "O", "occu": 1}], "abc": [0.57902368, 0.36839954, 0.22846227000000002], "xyz": [6.9219273615109005, 3.0000867051587203, 10.307325248773381], "label": "O", "properties": {}}, {"species": [{"element": "O", "occu": 1}], "abc": [0.3812817, 0.96956985, 0.28018141], "xyz": [7.782255382676249, 7.8957580042248, 12.64069083061254], "label": "O", "properties": {}}, {"species": [{"element": "O", "occu": 1}], "abc": [0.90625062, 0.14759805, 0.27628901], "xyz": [8.93111465024301, 1.2019747568424002, 12.465080946326939], "label": "O", "properties": {}}, {"species": [{"element": "O", "occu": 1}], "abc": [0.42407704, 0.10485454, 0.13964963], "xyz": [4.33800251123758, 0.85389007659872, 6.300445834145219], "label": "O", "properties": {}}, {"species": [{"element": "O", "occu": 1}], "abc": [0.5020525, 0.71387739, 0.2436782], "xyz": [7.75119860185771, 5.8135090691275195, 10.9938085769508], "label": "O", "properties": {}}, {"species": [{"element": "O", "occu": 1}], "abc": [0.39063234, 0.28125088, 0.25914235], "xyz": [4.81489596805824, 2.29038566633984, 11.6914906219809], "label": "O", "properties": {}}, {"species": [{"element": "O", "occu": 1}], "abc": [0.87516931, 0.82731528, 0.28739202], "xyz": [11.6618651532652, 6.73729824011904, 12.96600538916988], "label": "O", "properties": {}}, {"species": [{"element": "O", "occu": 1}], "abc": [0.43081407, 0.20829792, 0.20147012], "xyz": [4.85831030103504, 1.69628827577856, 9.08954487211128], "label": "O", "properties": {}}, {"species": [{"element": "O", "occu": 1}], "abc": [0.49620463, 0.60945355, 0.18201616], "xyz": [7.234662805561389, 4.9631264272664, 8.21185818407904], "label": "O", "properties": {}}, {"species": [{"element": "O", "occu": 1}], "abc": [0.10223741, 0.29224924, 0.28873442], "xyz": [2.22985375704044, 2.37995155888832, 13.02656923375548], "label": "O", "properties": {}}, {"species": [{"element": "O", "occu": 1}], "abc": [0.18663727, 0.83662522, 0.25965744], "xyz": [5.41500726642634, 6.81311436958496, 11.71472947083936], "label": "O", "properties": {}}, {"species": [{"element": "O", "occu": 1}], "abc": [0.59299386, 0.05416437, 0.31090659], "xyz": [5.655851710874609, 0.44109123027216, 14.026890939659458], "label": "O", "properties": {}}, {"species": [{"element": "O", "occu": 1}], "abc": [0.25441752, 0.55336507, 0.3720894], "xyz": [4.77773916683499, 4.50636607636976, 16.7872203468036], "label": "O", "properties": {}}, {"species": [{"element": "O", "occu": 1}], "abc": [0.48081376, 0.24463736, 0.37804163], "xyz": [5.476110520511919, 1.99222097650048, 17.05576171499322], "label": "O", "properties": {}}, {"species": [{"element": "O", "occu": 1}], "abc": [0.54581945, 0.44712867, 0.35139935], "xyz": [6.96785418708323, 3.6412227288945602, 15.853766106138899], "label": "O", "properties": {}}, {"species": [{"element": "O", "occu": 1}], "abc": [0.3412978, 0.36149918, 0.32804947], "xyz": [4.7202473592134195, 2.9438931542742397, 14.80031072517018], "label": "O", "properties": {}}, {"species": [{"element": "O", "occu": 1}], "abc": [0.70015933, 0.74755378, 0.32973521], "xyz": [9.709804257765459, 6.08775504108704, 14.876364729469739], "label": "O", "properties": {}}, {"species": [{"element": "O", "occu": 1}], "abc": [0.7913019, 0.40808981, 0.30752626], "xyz": [9.03662799385029, 3.32330711784208, 13.874383653628438], "label": "O", "properties": {}}, {"species": [{"element": "O", "occu": 1}], "abc": [0.86582811, 0.91556582, 0.34426256], "xyz": [11.967953887317659, 7.45597251364576, 15.531782017640639], "label": "O", "properties": {}}]}, "formula": "(Na3Zr2Si2PO12)4.0", "bandgap": 3.3172, "slab_thickness": 17.295847460375157}