{"miller": "100_0.23", "final_energy": -599.24653126, "gamma": 0.059757998521831605, "work_function": "Not calculated", "ionization_potentail": "Not calculated", "electron_affinity": "Not calculated", "is_stochiometric": true, "incar_parameters": {"SYSTEM": "unknown system", "LCOMPAT": false, "PREC": "normal", "ENMAX": 520.0, "ENAUG": 605.392, "EDIFF": 1e-05, "IALGO": 38, "IWAVPR": 11, "NBANDS": 312, "NBANDSLOW": -1, "NBANDSHIGH": -1, "NELECT": 520.0, "TURBO": 0, "IRESTART": 0, "NREBOOT": 0, "NMIN": 0, "EREF": 0.0, "ISMEAR": 0, "SIGMA": 0.05, "KSPACING": 0.5, "KGAMMA": true, "KBLOWUP": true, "LREAL": true, "ROPT": [-0.0005, -0.0005, -0.0005, -0.0005, -0.0005], "LMAXPAW": -100, "LMAXMIX": 4, "NLSPLINE": false, "ISTART": 0, "ICHARG": 2, "INIWAV": 1, "ISPIN": 1, "LNONCOLLINEAR": false, "MAGMOM": [0.6, 0.6, 0.6, 0.6, 0.6, 0.6, 0.6, 0.6, 0.6, 0.6, 0.6, 0.6, 0.6, 0.6, 0.6, 0.6, 0.6, 0.6, 0.6, 0.6, 0.6, 0.6, 0.6, 0.6, 0.6, 0.6, 0.6, 0.6, 0.6, 0.6, 0.6, 0.6, 0.6, 0.6, 0.6, 0.6, 0.6, 0.6, 0.6, 0.6, 0.6, 0.6, 0.6, 0.6, 0.6, 0.6, 0.6, 0.6, 0.6, 0.6, 0.6, 0.6, 0.6, 0.6, 0.6, 0.6, 0.6, 0.6, 0.6, 0.6, 0.6, 0.6, 0.6, 0.6, 0.6, 0.6, 0.6, 0.6, 0.6, 0.6, 0.6, 0.6, 0.6, 0.6, 0.6, 0.6, 0.6, 0.6, 0.6, 0.6], "NUPDOWN": -1.0, "LSORBIT": false, "SAXIS": [0.0, 0.0, 1.0], "LSPIRAL": false, "QSPIRAL": [0.0, 0.0, 0.0], "LZEROZ": false, "LASPH": false, "LMETAGGA": false, "NELM": 100, "NELMDL": -5, "NELMIN": 6, "ENINI": 520.0, "LDIAG": true, "LSUBROT": false, "WEIMIN": 0.001, "EBREAK": 1e-08, "DEPER": 0.3, "NRMM": 4, "TIME": 0.4, "AMIX": 0.4, "BMIX": 1.0, "AMIN": 0.1, "AMIX_MAG": 1.6, "BMIX_MAG": 1.0, "IMIX": 4, "MIXFIRST": false, "MAXMIX": -45, "WC": 100.0, "INIMIX": 1, "MIXPRE": 1, "MREMOVE": 5, "LDIPOL": false, "LMONO": false, "IDIPOL": 0, "EPSILON": 1.0, "DIPOL": [-100.0, -100.0, -100.0], "EFIELD": 0.0, "NGX": 54, "NGY": 54, "NGZ": 252, "NGXF": 108, "NGYF": 108, "NGZF": 504, "ADDGRID": false, "NSW": 150, "IBRION": 2, "MDALGO": 0, "ISIF": 2, "PSTRESS": 0.0, "EDIFFG": -0.01, "NFREE": 1, "POTIM": 0.5, "SMASS": -3.0, "SCALEE": 1.0, "TEBEG": 0.0001, "TEEND": 0.0001, "NBLOCK": 1, "KBLOCK": 150, "NPACO": 256, "APACO": 10.0, "ISYM": 0, "SYMPREC": 1e-05, "LORBIT": 11, "RWIGS": [-1.0, -1.0, -1.0, -1.0, -1.0], "NEDOS": 301, "EMIN": 10.0, "EMAX": -10.0, "EFERMI": 0.0, "NWRITE": 2, "LWAVE": false, "LDOWNSAMPLE": false, "LCHARG": false, "LPARD": false, "LVTOT": false, "LVHAR": false, "LELF": false, "LOPTICS": false, "STM": [0.0, 0.0, 0.0, 0.0, 0.0, 0.0, 0.0], "NPAR": 2, "NSIM": 4, "NBLK": -1, "LPLANE": true, "LSCALAPACK": true, "LSCAAWARE": false, "LSCALU": false, "LASYNC": false, "LORBITALREAL": false, "IDIOT": 3, "PHON_NSTRUCT": -1, "LMUSIC": false, "POMASS": [22.99, 91.224, 28.085, 30.974, 16.0], "DARWINR": [0.0, 0.0, 0.0, 0.0, 0.0], "DARWINV": [1.0, 1.0, 1.0, 1.0, 1.0], "LCORR": true, "GGA_COMPAT": true, "LBERRY": false, "ICORELEVEL": 0, "LDAU": false, "I_CONSTRAINED_M": 0, "GGA": "--", "VOSKOWN": 0, "LHFCALC": false, "PRECFOCK": "", "LSYMGRAD": false, "LHFONE": false, "LRHFCALC": false, "LTHOMAS": false, "LMODELHF": false, "LFOCKACE": false, "ENCUT4O": -1.0, "EXXOEP": 0, "FOURORBIT": 0, "AEXX": 0.0, "HFALPHA": 0.0, "MCALPHA": 0.0, "ALDAX": 1.0, "AGGAX": 1.0, "ALDAC": 1.0, "AGGAC": 1.0, "NKREDX": 1, "NKREDY": 1, "NKREDZ": 1, "SHIFTRED": false, "ODDONLY": false, "EVENONLY": false, "LMAXFOCK": 0, "NMAXFOCKAE": 0, "LFOCKAEDFT": false, "HFSCREEN": 0.0, "HFSCREENC": 0.0, "NBANDSGWLOW": 0, "LUSE_VDW": false, "Zab_VDW": -0.8491, "PARAM1": 0.1234, "PARAM2": 1.0, "PARAM3": 0.0, "MODEL_GW": 0, "MODEL_EPS0": 25.16553134, "MODEL_ALPHA": 1.0, "LEPSILON": false, "LRPA": false, "LNABLA": false, "LVEL": false, "CSHIFT": 0.1, "OMEGAMAX": -1.0, "DEG_THRESHOLD": 0.002, "RTIME": -0.1, "WPLASMAI": 0.0, "DFIELD": [0.0, 0.0, 0.0], "WPLASMA": [0.0, 0.0, 0.0, 0.0, 0.0, 0.0, 0.0, 0.0, 0.0], "NUCIND": false, "MAGPOS": [0.0, 0.0, 0.0], "LNICSALL": true, "ORBITALMAG": false, "LMAGBLOCH": false, "LCHIMAG": false, "LGAUGE": true, "MAGATOM": 0, "MAGDIPOL": [0.0, 0.0, 0.0], "AVECCONST": [0.0, 0.0, 0.0], "LFINITE_TEMPERATURE": false, "LADDER": false, "LRPAFORCE": false, "LFXC": false, "LHARTREE": true, "IBSE": 0, "KPOINT": [-1, 0, 0, 0], "LTCTC": false, "LTCTE": false, "LTETE": false, "LTRIPLET": false, "LFXCEPS": false, "LFXHEG": false, "NATURALO": 2, "LHOLEGF": false, "L2ORDER": false, "LDMP1": false, "LMP2LT": false, "LSMP2LT": false, "LGWLF": false, "ENCUTGW": -2.0, "ENCUTGWSOFT": -2.0, "ENCUTLF": -1.0, "LESF_SPLINES": false, "LMAXMP2": -1, "SCISSOR": 0.0, "NOMEGA": 0, "NOMEGAR": 0, "NBANDSGW": -1, "NBANDSO": -1, "NBANDSV": -1, "NELMGW": 1, "NELMHF": 1, "DIM": 3, "IESPILON": 4, "ANTIRES": 0, "OMEGAMIN": -30.0, "OMEGATL": -200.0, "OMEGAGRID": 0, "LSELFENERGY": false, "LSPECTRAL": false, "LSPECTRALGW": false, "LSINGLES": false, "LFERMIGW": false, "ODDONLYGW": false, "EVENONLYGW": false, "NKREDLFX": 1, "NKREDLFY": 1, "NKREDLFZ": 1, "MAXMEM": 2800, "TELESCOPE": 0, "NTAUPAR": -1, "NOMEGAPAR": -1, "DAMP_NEWTON": 0.80000001, "LAMBDA": 1.0, "OFIELD_KAPPA": 0.0, "OFIELD_K": [0.0, 0.0, 0.0], "OFIELD_Q6_NEAR": 0.0, "OFIELD_Q6_FAR": 0.0, "OFIELD_A": 0.0, "KPOINTS_OPT_MODE": 1, "LKPOINTS_OPT": false, "@module": "pymatgen.io.vasp.inputs", "@class": "Incar"}, "relaxed_structures": {"@module": "pymatgen.core.structure", "@class": "Structure", "charge": 0, "lattice": {"matrix": [[9.132688, 0.0, 0.0], [4.435089, 8.143568, 0.0], [0.0, 0.0, 45.116094]], "a": 9.132688, "b": 9.27295606635473, "c": 45.116094, "alpha": 90.0, "beta": 90.0, "gamma": 61.42673605530538, "volume": 3355.404179042951}, "sites": [{"species": [{"element": "Na", "occu": 1}], "abc": [0.20376252, 0.79821821, 9.99999999999994e-05], "xyz": [5.40106832402445, 6.5003442719732805, 0.004511609399999972], "label": "Na", "properties": {}}, {"species": [{"element": "Na", "occu": 1}], "abc": [0.79623194, 0.33677782, 0.13596504], "xyz": [8.7653774885807, 2.74257307806176, 6.13421152535376], "label": "Na", "properties": {}}, {"species": [{"element": "Na", "occu": 1}], "abc": [0.77827565, 0.10124233, 0.051068039999999995], "xyz": [7.55676743356457, 0.8244737988334401, 2.3039904930357595], "label": "Na", "properties": {}}, {"species": [{"element": "Na", "occu": 1}], "abc": [0.22803291, 0.97847698, 0.13110652], "xyz": [6.4221859115133, 7.9682938230646405, 5.91501408033288], "label": "Na", "properties": {}}, {"species": [{"element": "Na", "occu": 1}], "abc": [0.15554617, 0.61086323, 0.057804839999999996], "xyz": [4.12978743208243, 4.97460625220464, 2.60792859509496], "label": "Na", "properties": {}}, {"species": [{"element": "Na", "occu": 1}], "abc": [0.24839372, 0.80962757, 0.20542582], "xyz": [5.85927267572309, 6.59325717096976, 9.26801060514708], "label": "Na", "properties": {}}, {"species": [{"element": "Na", "occu": 1}], "abc": [0.63367301, 0.9673967, 0.17797946], "xyz": [10.07762835715718, 7.8780608094256, 8.02973804742924], "label": "Na", "properties": {}}, {"species": [{"element": "Na", "occu": 1}], "abc": [0.10419059, 0.68099837, 0.33189448], "xyz": [3.97182853081085, 5.54575653398416, 14.973782557761119], "label": "Na", "properties": {}}, {"species": [{"element": "Na", "occu": 1}], "abc": [0.08731697, 0.44232176, 0.24736577], "xyz": [2.7591750163519997, 3.60207733043968, 11.16017733170238], "label": "Na", "properties": {}}, {"species": [{"element": "Na", "occu": 1}], "abc": [0.72784744, 0.16853961, 0.32520647999999996], "xyz": [7.39469175149401, 1.3725137747284801, 14.672046121089117], "label": "Na", "properties": {}}, {"species": [{"element": "Na", "occu": 1}], "abc": [0.65608164, 0.79870054, 0.25231342], "xyz": [9.53409689989638, 6.50427215912672, 11.38339597418148], "label": "Na", "properties": {}}, {"species": [{"element": "Na", "occu": 1}], "abc": [0.6767871, 0.98422543, 0.3832133], "xyz": [10.54601280483807, 8.01510671653424, 17.2890872648502], "label": "Na", "properties": {}}, {"species": [{"element": "Zr", "occu": 1}], "abc": [0.29560898, 0.2089287, 0.05661518], "xyz": [3.62632196349254, 1.7014250756016, 2.5542557827069197], "label": "Zr", "properties": {}}, {"species": [{"element": "Zr", "occu": 1}], "abc": [0.96948787, 0.85014402, 0.13009427], "xyz": [12.62449462801234, 6.9232056366633605, 5.8693453141813805], "label": "Zr", "properties": {}}, {"species": [{"element": "Zr", "occu": 1}], "abc": [0.54869928, 0.61036012, 0.08732764], "xyz": [7.71810078431532, 4.97050914170816, 3.9398820150381595], "label": "Zr", "properties": {}}, {"species": [{"element": "Zr", "occu": 1}], "abc": [0.2386731, 0.28204382, 0.166609], "xyz": [3.43061639989278, 2.29684302714976, 7.516747305246], "label": "Zr", "properties": {}}, {"species": [{"element": "Zr", "occu": 1}], "abc": [0.64387828, 0.49680332, 0.2166607], "xyz": [8.083706380912119, 4.04575161904576, 9.7748845073058], "label": "Zr", "properties": {}}, {"species": [{"element": "Zr", "occu": 1}], "abc": [0.33404316, 0.16878442, 0.29595565], "xyz": [3.79928588332746, 1.3745074016105598, 13.3523629252311], "label": "Zr", "properties": {}}, {"species": [{"element": "Zr", "occu": 1}], "abc": [0.91298999, 0.92913829, 0.25321629], "xyz": [12.45886373525093, 7.56650084601872, 11.424129941971259], "label": "Zr", "properties": {}}, {"species": [{"element": "Zr", "occu": 1}], "abc": [0.58711625, 0.57018323, 0.32669638], "xyz": [7.890762902337469, 4.64332590596464, 14.739264589539719], "label": "Zr", "properties": {}}, {"species": [{"element": "Si", "occu": 1}], "abc": [0.14158653, 0.91840326, 0.06515158], "xyz": [5.366265799482779, 7.47907939923168, 2.9393848075285196], "label": "Si", "properties": {}}, {"species": [{"element": "Si", "occu": 1}], "abc": [0.98609068, 0.48198832, 0.10412369], "xyz": [11.14331961630832, 3.9251046591257603, 4.69765418566686], "label": "Si", "properties": {}}, {"species": [{"element": "Si", "occu": 1}], "abc": [0.53751332, 0.99223508, 0.11280520999999999], "xyz": [9.30959233612628, 8.080333845965441, 5.089330458049739], "label": "Si", "properties": {}}, {"species": [{"element": "Si", "occu": 1}], "abc": [0.38105613, 0.57176957, 0.15225655], "xyz": [6.015915676219169, 4.65624437362576, 6.869220821915699], "label": "Si", "properties": {}}, {"species": [{"element": "Si", "occu": 1}], "abc": [0.50201927, 0.20644822, 0.23096426], "xyz": [5.5004015924893395, 1.68122511804896, 10.420205264800439], "label": "Si", "properties": {}}, {"species": [{"element": "Si", "occu": 1}], "abc": [0.34513039, 0.78676436, 0.27057791], "xyz": [6.64133812981636, 6.40706906563648, 12.207418421883538], "label": "Si", "properties": {}}, {"species": [{"element": "Si", "occu": 1}], "abc": [0.89641281, 0.29784847, 0.27900514], "xyz": [9.507642985897109, 2.42554926914096, 12.58762212272316], "label": "Si", "properties": {}}, {"species": [{"element": "Si", "occu": 1}], "abc": [0.74091477, 0.86126328, 0.31829026000000005], "xyz": [10.586322728233679, 7.01375608658304, 14.36001328944444], "label": "Si", "properties": {}}, {"species": [{"element": "P", "occu": 1}], "abc": [0.5054356, 0.40191146, 0.0236701], "xyz": [6.39849873411274, 3.27299330448928, 1.0679024565894], "label": "P", "properties": {}}, {"species": [{"element": "P", "occu": 1}], "abc": [0.96267151, 0.12920311, 0.18599365], "xyz": [9.364805839245669, 1.0521743120964802, 8.3913069968031], "label": "P", "properties": {}}, {"species": [{"element": "P", "occu": 1}], "abc": [0.92031202, 0.64948325, 0.19735431], "xyz": [11.28543855906901, 5.289111011236, 8.903855601265139], "label": "P", "properties": {}}, {"species": [{"element": "P", "occu": 1}], "abc": [0.37652596, 0.37860007, 0.35949112000000005], "xyz": [5.1178191224367096, 3.08315541484976, 16.21883516208528], "label": "P", "properties": {}}, {"species": [{"element": "O", "occu": 1}], "abc": [0.31121737, 0.74612039, 0.07273662], "xyz": [6.151361474755269, 6.0760821321515195, 3.28159218516228], "label": "O", "properties": {}}, {"species": [{"element": "O", "occu": 1}], "abc": [0.05319508, 0.36079033, 0.13286176], "xyz": [2.0859512926644097, 2.93812058609744, 5.99420365316544], "label": "O", "properties": {}}, {"species": [{"element": "O", "occu": 1}], "abc": [0.48735143, 0.11154067, 0.08284472999999999], "xyz": [4.94552135511347, 0.90833903091056, 3.7376306260846195], "label": "O", "properties": {}}, {"species": [{"element": "O", "occu": 1}], "abc": [0.65056573, 0.25202924, 0.010656059999999998], "xyz": [7.059185945584599, 2.05241725392832, 0.4807598046296399], "label": "O", "properties": {}}, {"species": [{"element": "O", "occu": 1}], "abc": [0.41680002, 0.5588929, 0.005860059999999997], "xyz": [6.28524429402186, 4.5513823358672, 0.26438301780563983], "label": "O", "properties": {}}, {"species": [{"element": "O", "occu": 1}], "abc": [0.36128224, 0.34850153, 0.03167605], "xyz": [4.84511328004729, 2.83804590765904, 1.4290996493486998], "label": "O", "properties": {}}, {"species": [{"element": "O", "occu": 1}], "abc": [0.56136772, 0.43865465, 0.0553617], "xyz": [7.072268653045209, 3.5722139707912, 2.4977036611998], "label": "O", "properties": {}}, {"species": [{"element": "O", "occu": 1}], "abc": [0.20423112, 0.05227552, 0.05375078], "xyz": [2.09702568257184, 0.42570925185536, 2.42502524305332], "label": "O", "properties": {}}, {"species": [{"element": "O", "occu": 1}], "abc": [0.99775513, 0.65260668, 0.10696191], "xyz": [12.006555010483961, 5.31454687583424, 4.825703585979539], "label": "O", "properties": {}}, {"species": [{"element": "O", "occu": 1}], "abc": [0.52481145, 0.82897956, 0.1032516], "xyz": [8.469537359458439, 6.75085141747008, 4.6583088912504], "label": "O", "properties": {}}, {"species": [{"element": "O", "occu": 1}], "abc": [0.40319921, 0.08422618, 0.13982764], "xyz": [4.0558431912065, 0.68590162421024, 6.30847695003816], "label": "O", "properties": {}}, {"species": [{"element": "O", "occu": 1}], "abc": [0.11372308, 0.39295497, 0.07561557], "xyz": [2.78138767298137, 3.20005551913296, 3.4114791639835795], "label": "O", "properties": {}}, {"species": [{"element": "O", "occu": 1}], "abc": [0.03021803, 0.97336762, 0.09644886], "xyz": [4.5929438643828195, 7.92668540246816, 4.351395833952839], "label": "O", "properties": {}}, {"species": [{"element": "O", "occu": 1}], "abc": [0.51464773, 0.51780064, 0.12425269], "xyz": [6.9966090706552, 4.21674472228352, 5.60579604179286], "label": "O", "properties": {}}, {"species": [{"element": "O", "occu": 1}], "abc": [0.03718359, 0.88619265, 0.039520889999999996], "xyz": [4.26992940008577, 7.2167701063752006, 1.7830281882036596], "label": "O", "properties": {}}, {"species": [{"element": "O", "occu": 1}], "abc": [0.71834711, 0.96308806, 0.12382363999999998], "xyz": [10.83182129226902, 7.84297310659808, 5.586438981662159], "label": "O", "properties": {}}, {"species": [{"element": "O", "occu": 1}], "abc": [0.80301994, 0.5063817, 0.0944377], "xyz": [9.579578477270019, 4.123753807905601, 4.260660150343799], "label": "O", "properties": {}}, {"species": [{"element": "O", "occu": 1}], "abc": [0.21581002, 0.74964047, 0.14632655], "xyz": [5.29564778238559, 6.10474814299696, 6.6016823844956996], "label": "O", "properties": {}}, {"species": [{"element": "O", "occu": 1}], "abc": [0.66703149, 0.02840299, 0.23691920000000002], "xyz": [6.217760272861229, 0.23130168046832, 10.6888688976048], "label": "O", "properties": {}}, {"species": [{"element": "O", "occu": 1}], "abc": [0.39495538, 0.66735167, 0.3005337], "xyz": [6.56676831021007, 5.43462370455856, 13.5589066593678], "label": "O", "properties": {}}, {"species": [{"element": "O", "occu": 1}], "abc": [0.8296332, 0.41916286, 0.25029959], "xyz": [9.435805759636139, 3.41348125348448, 11.29253983060146], "label": "O", "properties": {}}, {"species": [{"element": "O", "occu": 1}], "abc": [0.05666197, 0.46823242, 0.19462132], "xyz": [2.5941285488607395, 3.81308255207456, 8.78055376752408], "label": "O", "properties": {}}, {"species": [{"element": "O", "occu": 1}], "abc": [0.82633824, 0.31045563, 0.18878729], "xyz": [8.92358767799019, 2.5282165338878397, 8.51734512164526], "label": "O", "properties": {}}, {"species": [{"element": "O", "occu": 1}], "abc": [0.91383923, 0.7548219, 0.17053532], "xyz": [11.69351087539934, 6.146943470539201, 7.693887527440079], "label": "O", "properties": {}}, {"species": [{"element": "O", "occu": 1}], "abc": [0.96949734, 0.02346381, 0.21277582], "xyz": [8.95818080867901, 0.19107913227408002, 9.59961389604708], "label": "O", "properties": {}}, {"species": [{"element": "O", "occu": 1}], "abc": [0.13811473, 0.11523886, 0.18157927], "xyz": [1.7724533376527798, 0.93845549265248, 8.192147413771378], "label": "O", "properties": {}}, {"species": [{"element": "O", "occu": 1}], "abc": [0.74468742, 0.66366012, 0.20171898], "xyz": [9.74438956233564, 5.404561316108159, 9.10077246326412], "label": "O", "properties": {}}, {"species": [{"element": "O", "occu": 1}], "abc": [0.92076159, 0.06405583, 0.15708344999999999], "xyz": [8.69312163087279, 0.52164300740144, 7.086991696044299], "label": "O", "properties": {}}, {"species": [{"element": "O", "occu": 1}], "abc": [0.96196204, 0.71493492, 0.22626836], "xyz": [11.9560991785714, 5.822121136594561, 10.208344598985839], "label": "O", "properties": {}}, {"species": [{"element": "O", "occu": 1}], "abc": [0.32651396, 0.42941628, 0.15476626], "xyz": [4.8864495441733995, 3.49698067648704, 6.982449134188439], "label": "O", "properties": {}}, {"species": [{"element": "O", "occu": 1}], "abc": [0.5569914, 0.34854939, 0.22844935], "xyz": [6.632676240428911, 2.8384356588235202, 10.306742348838899], "label": "O", "properties": {}}, {"species": [{"element": "O", "occu": 1}], "abc": [0.35839346, 0.94959695, 0.28018295000000004], "xyz": [7.48464263879903, 7.7331073349176, 12.6407603093973], "label": "O", "properties": {}}, {"species": [{"element": "O", "occu": 1}], "abc": [0.88374808, 0.12768391, 0.27613231000000005], "xyz": [8.63728498995703, 1.03980260359088, 12.45801125439714], "label": "O", "properties": {}}, {"species": [{"element": "O", "occu": 1}], "abc": [0.76908309, 0.38732526, 0.30751198], "xyz": [8.74161790709406, 3.15420959292768, 13.873739395806119], "label": "O", "properties": {}}, {"species": [{"element": "O", "occu": 1}], "abc": [0.47918974, 0.69437394, 0.24352532000000002], "xyz": [7.45590061140178, 5.65468139781792, 10.98691122850008], "label": "O", "properties": {}}, {"species": [{"element": "O", "occu": 1}], "abc": [0.36845755, 0.26072925, 0.25897444000000003], "xyz": [4.52136527404765, 2.123266376964, 11.68391517863736], "label": "O", "properties": {}}, {"species": [{"element": "O", "occu": 1}], "abc": [0.85312129, 0.80620678, 0.28705483], "xyz": [11.36688938943094, 6.56539973499104, 12.950792693434018], "label": "O", "properties": {}}, {"species": [{"element": "O", "occu": 1}], "abc": [0.40830641, 0.18928153, 0.20132446], "xyz": [4.56841548253625, 1.54142701069904, 9.08297326185924], "label": "O", "properties": {}}, {"species": [{"element": "O", "occu": 1}], "abc": [0.47451904, 0.5891578, 0.18191637], "xyz": [6.94660162042372, 4.7978466070304, 8.20735604905878], "label": "O", "properties": {}}, {"species": [{"element": "O", "occu": 1}], "abc": [0.07982859, 0.27239676, 0.28867997], "xyz": [1.93715347986156, 2.21828153803968, 13.02411266243718], "label": "O", "properties": {}}, {"species": [{"element": "O", "occu": 1}], "abc": [0.16404496, 0.81643143, 0.25959407999999995], "xyz": [5.1191174920997495, 6.64866486754224, 11.711870915123518], "label": "O", "properties": {}}, {"species": [{"element": "O", "occu": 1}], "abc": [0.57142979, 0.03345414, 0.31058403], "xyz": [5.3670620742939805, 0.27243606397152, 14.01233829237882], "label": "O", "properties": {}}, {"species": [{"element": "O", "occu": 1}], "abc": [0.23296825, 0.53094159, 0.37219082000000003], "xyz": [4.4823995466075095, 4.32375894219312, 16.79179602105708], "label": "O", "properties": {}}, {"species": [{"element": "O", "occu": 1}], "abc": [0.46186661, 0.22266478, 0.37766712], "xyz": [5.2056217632131006, 1.8132857771350401, 17.03886528662928], "label": "O", "properties": {}}, {"species": [{"element": "O", "occu": 1}], "abc": [0.52361745, 0.42787723, 0.35138245999999995], "xyz": [6.67970839832907, 3.48444731815664, 15.853004095311237], "label": "O", "properties": {}}, {"species": [{"element": "O", "occu": 1}], "abc": [0.32033782, 0.34107089, 0.32788954000000003], "xyz": [4.438225117119369, 2.7775339855355203, 14.79309530825676], "label": "O", "properties": {}}, {"species": [{"element": "O", "occu": 1}], "abc": [0.67840066, 0.72702023, 0.32952748], "xyz": [9.42002099162455, 5.92053868038064, 14.866992763263118], "label": "O", "properties": {}}, {"species": [{"element": "O", "occu": 1}], "abc": [0.84460368, 0.89416816, 0.34396386], "xyz": [11.67921726365808, 7.28171921439488, 15.518305840362839], "label": "O", "properties": {}}]}, "formula": "(Na3Zr2Si2PO12)4.0", "bandgap": 3.3257, "slab_thickness": 17.284575655450197}