{"miller": "100_0.27", "final_energy": -599.24326443, "gamma": 0.05977996109347706, "work_function": "Not calculated", "ionization_potentail": "Not calculated", "electron_affinity": "Not calculated", "is_stochiometric": true, "incar_parameters": {"SYSTEM": "unknown system", "LCOMPAT": false, "PREC": "normal", "ENMAX": 520.0, "ENAUG": 605.392, "EDIFF": 1e-05, "IALGO": 38, "IWAVPR": 11, "NBANDS": 312, "NBANDSLOW": -1, "NBANDSHIGH": -1, "NELECT": 520.0, "TURBO": 0, "IRESTART": 0, "NREBOOT": 0, "NMIN": 0, "EREF": 0.0, "ISMEAR": 0, "SIGMA": 0.05, "KSPACING": 0.5, "KGAMMA": true, "KBLOWUP": true, "LREAL": true, "ROPT": [-0.0005, -0.0005, -0.0005, -0.0005, -0.0005], "LMAXPAW": -100, "LMAXMIX": 4, "NLSPLINE": false, "ISTART": 0, "ICHARG": 2, "INIWAV": 1, "ISPIN": 1, "LNONCOLLINEAR": false, "MAGMOM": [0.6, 0.6, 0.6, 0.6, 0.6, 0.6, 0.6, 0.6, 0.6, 0.6, 0.6, 0.6, 0.6, 0.6, 0.6, 0.6, 0.6, 0.6, 0.6, 0.6, 0.6, 0.6, 0.6, 0.6, 0.6, 0.6, 0.6, 0.6, 0.6, 0.6, 0.6, 0.6, 0.6, 0.6, 0.6, 0.6, 0.6, 0.6, 0.6, 0.6, 0.6, 0.6, 0.6, 0.6, 0.6, 0.6, 0.6, 0.6, 0.6, 0.6, 0.6, 0.6, 0.6, 0.6, 0.6, 0.6, 0.6, 0.6, 0.6, 0.6, 0.6, 0.6, 0.6, 0.6, 0.6, 0.6, 0.6, 0.6, 0.6, 0.6, 0.6, 0.6, 0.6, 0.6, 0.6, 0.6, 0.6, 0.6, 0.6, 0.6], "NUPDOWN": -1.0, "LSORBIT": false, "SAXIS": [0.0, 0.0, 1.0], "LSPIRAL": false, "QSPIRAL": [0.0, 0.0, 0.0], "LZEROZ": false, "LASPH": false, "LMETAGGA": false, "NELM": 100, "NELMDL": -5, "NELMIN": 6, "ENINI": 520.0, "LDIAG": true, "LSUBROT": false, "WEIMIN": 0.001, "EBREAK": 1e-08, "DEPER": 0.3, "NRMM": 4, "TIME": 0.4, "AMIX": 0.4, "BMIX": 1.0, "AMIN": 0.1, "AMIX_MAG": 1.6, "BMIX_MAG": 1.0, "IMIX": 4, "MIXFIRST": false, "MAXMIX": -45, "WC": 100.0, "INIMIX": 1, "MIXPRE": 1, "MREMOVE": 5, "LDIPOL": false, "LMONO": false, "IDIPOL": 0, "EPSILON": 1.0, "DIPOL": [-100.0, -100.0, -100.0], "EFIELD": 0.0, "NGX": 54, "NGY": 54, "NGZ": 252, "NGXF": 108, "NGYF": 108, "NGZF": 504, "ADDGRID": false, "NSW": 150, "IBRION": 2, "MDALGO": 0, "ISIF": 2, "PSTRESS": 0.0, "EDIFFG": -0.01, "NFREE": 1, "POTIM": 0.5, "SMASS": -3.0, "SCALEE": 1.0, "TEBEG": 0.0001, "TEEND": 0.0001, "NBLOCK": 1, "KBLOCK": 150, "NPACO": 256, "APACO": 10.0, "ISYM": 0, "SYMPREC": 1e-05, "LORBIT": 11, "RWIGS": [-1.0, -1.0, -1.0, -1.0, -1.0], "NEDOS": 301, "EMIN": 10.0, "EMAX": -10.0, "EFERMI": 0.0, "NWRITE": 2, "LWAVE": false, "LDOWNSAMPLE": false, "LCHARG": false, "LPARD": false, "LVTOT": false, "LVHAR": false, "LELF": false, "LOPTICS": false, "STM": [0.0, 0.0, 0.0, 0.0, 0.0, 0.0, 0.0], "NPAR": 2, "NSIM": 4, "NBLK": -1, "LPLANE": true, "LSCALAPACK": true, "LSCAAWARE": false, "LSCALU": false, "LASYNC": false, "LORBITALREAL": false, "IDIOT": 3, "PHON_NSTRUCT": -1, "LMUSIC": false, "POMASS": [22.99, 91.224, 28.085, 30.974, 16.0], "DARWINR": [0.0, 0.0, 0.0, 0.0, 0.0], "DARWINV": [1.0, 1.0, 1.0, 1.0, 1.0], "LCORR": true, "GGA_COMPAT": true, "LBERRY": false, "ICORELEVEL": 0, "LDAU": false, "I_CONSTRAINED_M": 0, "GGA": "--", "VOSKOWN": 0, "LHFCALC": false, "PRECFOCK": "", "LSYMGRAD": false, "LHFONE": false, "LRHFCALC": false, "LTHOMAS": false, "LMODELHF": false, "LFOCKACE": false, "ENCUT4O": -1.0, "EXXOEP": 0, "FOURORBIT": 0, "AEXX": 0.0, "HFALPHA": 0.0, "MCALPHA": 0.0, "ALDAX": 1.0, "AGGAX": 1.0, "ALDAC": 1.0, "AGGAC": 1.0, "NKREDX": 1, "NKREDY": 1, "NKREDZ": 1, "SHIFTRED": false, "ODDONLY": false, "EVENONLY": false, "LMAXFOCK": 0, "NMAXFOCKAE": 0, "LFOCKAEDFT": false, "HFSCREEN": 0.0, "HFSCREENC": 0.0, "NBANDSGWLOW": 0, "LUSE_VDW": false, "Zab_VDW": -0.8491, "PARAM1": 0.1234, "PARAM2": 1.0, "PARAM3": 0.0, "MODEL_GW": 0, "MODEL_EPS0": 25.16553134, "MODEL_ALPHA": 1.0, "LEPSILON": false, "LRPA": false, "LNABLA": false, "LVEL": false, "CSHIFT": 0.1, "OMEGAMAX": -1.0, "DEG_THRESHOLD": 0.002, "RTIME": -0.1, "WPLASMAI": 0.0, "DFIELD": [0.0, 0.0, 0.0], "WPLASMA": [0.0, 0.0, 0.0, 0.0, 0.0, 0.0, 0.0, 0.0, 0.0], "NUCIND": false, "MAGPOS": [0.0, 0.0, 0.0], "LNICSALL": true, "ORBITALMAG": false, "LMAGBLOCH": false, "LCHIMAG": false, "LGAUGE": true, "MAGATOM": 0, "MAGDIPOL": [0.0, 0.0, 0.0], "AVECCONST": [0.0, 0.0, 0.0], "LFINITE_TEMPERATURE": false, "LADDER": false, "LRPAFORCE": false, "LFXC": false, "LHARTREE": true, "IBSE": 0, "KPOINT": [-1, 0, 0, 0], "LTCTC": false, "LTCTE": false, "LTETE": false, "LTRIPLET": false, "LFXCEPS": false, "LFXHEG": false, "NATURALO": 2, "LHOLEGF": false, "L2ORDER": false, "LDMP1": false, "LMP2LT": false, "LSMP2LT": false, "LGWLF": false, "ENCUTGW": -2.0, "ENCUTGWSOFT": -2.0, "ENCUTLF": -1.0, "LESF_SPLINES": false, "LMAXMP2": -1, "SCISSOR": 0.0, "NOMEGA": 0, "NOMEGAR": 0, "NBANDSGW": -1, "NBANDSO": -1, "NBANDSV": -1, "NELMGW": 1, "NELMHF": 1, "DIM": 3, "IESPILON": 4, "ANTIRES": 0, "OMEGAMIN": -30.0, "OMEGATL": -200.0, "OMEGAGRID": 0, "LSELFENERGY": false, "LSPECTRAL": false, "LSPECTRALGW": false, "LSINGLES": false, "LFERMIGW": false, "ODDONLYGW": false, "EVENONLYGW": false, "NKREDLFX": 1, "NKREDLFY": 1, "NKREDLFZ": 1, "MAXMEM": 2800, "TELESCOPE": 0, "NTAUPAR": -1, "NOMEGAPAR": -1, "DAMP_NEWTON": 0.80000001, "LAMBDA": 1.0, "OFIELD_KAPPA": 0.0, "OFIELD_K": [0.0, 0.0, 0.0], "OFIELD_Q6_NEAR": 0.0, "OFIELD_Q6_FAR": 0.0, "OFIELD_A": 0.0, "KPOINTS_OPT_MODE": 1, "LKPOINTS_OPT": false, "@module": "pymatgen.io.vasp.inputs", "@class": "Incar"}, "relaxed_structures": {"@module": "pymatgen.core.structure", "@class": "Structure", "charge": 0, "lattice": {"matrix": [[9.132688, 0.0, 0.0], [4.435089, 8.143568, 0.0], [0.0, 0.0, 45.116094]], "a": 9.132688, "b": 9.27295606635473, "c": 45.116094, "alpha": 90.0, "beta": 90.0, "gamma": 61.42673605530538, "volume": 3355.404179042951}, "sites": [{"species": [{"element": "Na", "occu": 1}], "abc": [0.19483886, 0.78016112, 9.99999999999994e-05], "xyz": [5.23948652019536, 6.353295131676161, 0.004511609399999972], "label": "Na", "properties": {}}, {"species": [{"element": "Na", "occu": 1}], "abc": [0.782911, 0.32584908, 0.13612105], "xyz": [8.59525156513612, 2.6535741407174402, 6.141250087178699], "label": "Na", "properties": {}}, {"species": [{"element": "Na", "occu": 1}], "abc": [0.76680488, 0.08382847, 0.05171751], "xyz": [7.37477645110127, 0.68266284578096, 2.33329204260594], "label": "Na", "properties": {}}, {"species": [{"element": "Na", "occu": 1}], "abc": [0.21422726, 0.96993438, 0.13091324], "xyz": [6.2582160261347, 7.89872657906784, 5.906294041684559], "label": "Na", "properties": {}}, {"species": [{"element": "Na", "occu": 1}], "abc": [0.14225375, 0.60031295, 0.059028309999999994], "xyz": [3.9616004766825497, 4.8886893296056, 2.6631267826211396], "label": "Na", "properties": {}}, {"species": [{"element": "Na", "occu": 1}], "abc": [0.23790601, 0.8024265, 0.20558378], "xyz": [5.73155430611338, 6.534614767752, 9.27513714335532], "label": "Na", "properties": {}}, {"species": [{"element": "Na", "occu": 1}], "abc": [0.62088332, 0.95532863, 0.17807140999999999], "xyz": [9.90730114426223, 7.77978366075184, 8.033886472272538], "label": "Na", "properties": {}}, {"species": [{"element": "Na", "occu": 1}], "abc": [0.09157989, 0.67292671, 0.33181563], "xyz": [3.82086041177151, 5.48002442190128, 14.970225153749217], "label": "Na", "properties": {}}, {"species": [{"element": "Na", "occu": 1}], "abc": [0.07539452, 0.43281965, 0.24764598], "xyz": [2.6081482967686096, 3.5246962515112, 11.172819312402119], "label": "Na", "properties": {}}, {"species": [{"element": "Na", "occu": 1}], "abc": [0.71618327, 0.15847104, 0.32506876], "xyz": [7.24351152205232, 1.29051969027072, 14.66583273262344], "label": "Na", "properties": {}}, {"species": [{"element": "Na", "occu": 1}], "abc": [0.64541187, 0.78740505, 0.25262468], "xyz": [9.386556716006009, 6.4122865682184, 11.397438809599919], "label": "Na", "properties": {}}, {"species": [{"element": "Na", "occu": 1}], "abc": [0.66408075, 0.97688091, 0.3834936], "xyz": [10.39739607480699, 7.9552961184868805, 17.301733305998397], "label": "Na", "properties": {}}, {"species": [{"element": "Zr", "occu": 1}], "abc": [0.28353361, 0.19887977, 0.05671502], "xyz": [3.47147347789321, 1.6195909308193601, 2.55876017353188], "label": "Zr", "properties": {}}, {"species": [{"element": "Zr", "occu": 1}], "abc": [0.95750336, 0.83973984, 0.13023608], "xyz": [12.46890037307744, 6.838478489349121, 5.87574322747152], "label": "Zr", "properties": {}}, {"species": [{"element": "Zr", "occu": 1}], "abc": [0.5369076, 0.5995903, 0.08752223], "xyz": [7.562645939665501, 4.8828043801904, 3.94866115576962], "label": "Zr", "properties": {}}, {"species": [{"element": "Zr", "occu": 1}], "abc": [0.2267797, 0.27168109, 0.16689437999999998], "xyz": [3.2760380586006095, 2.21245343072912, 7.529622536151718], "label": "Zr", "properties": {}}, {"species": [{"element": "Zr", "occu": 1}], "abc": [0.63178404, 0.48653187, 0.21673118], "xyz": [7.927698665485949, 3.96210536751216, 9.778064289610919], "label": "Zr", "properties": {}}, {"species": [{"element": "Zr", "occu": 1}], "abc": [0.32198111, 0.15876601, 0.29608097], "xyz": [3.64469440404857, 1.29292179852368, 13.358016874131179], "label": "Zr", "properties": {}}, {"species": [{"element": "Zr", "occu": 1}], "abc": [0.90126978, 0.91877314, 0.25337426], "xyz": [12.3058563512781, 7.48209154216352, 11.43125693134044], "label": "Zr", "properties": {}}, {"species": [{"element": "Zr", "occu": 1}], "abc": [0.57513397, 0.55991413, 0.32689729], "xyz": [7.73578810511893, 4.5596987918158405, 14.74832886398526], "label": "Zr", "properties": {}}, {"species": [{"element": "Si", "occu": 1}], "abc": [0.36872083, 0.56181736, 0.15240419], "xyz": [5.85912229283608, 4.57519787474048, 6.87588176203386], "label": "Si", "properties": {}}, {"species": [{"element": "Si", "occu": 1}], "abc": [0.13010515, 0.90727043, 0.06499821], "xyz": [5.212034846261469, 7.38841844109424, 2.93246535219174], "label": "Si", "properties": {}}, {"species": [{"element": "Si", "occu": 1}], "abc": [0.97373946, 0.47078007, 0.10470035999999999], "xyz": [10.98081019134471, 3.83382951308976, 4.7236712835938395], "label": "Si", "properties": {}}, {"species": [{"element": "Si", "occu": 1}], "abc": [0.52537924, 0.98194857, 0.1127921], "xyz": [9.15315398196985, 7.99656495229776, 5.0887389860573995], "label": "Si", "properties": {}}, {"species": [{"element": "Si", "occu": 1}], "abc": [0.72851965, 0.85149983, 0.31857106], "xyz": [10.42982019485407, 6.934246767593439, 14.37268188863964], "label": "Si", "properties": {}}, {"species": [{"element": "Si", "occu": 1}], "abc": [0.49013479, 0.19606099, 0.23118344999999998], "xyz": [5.345796055093629, 1.59663600421232, 10.430094261444298], "label": "Si", "properties": {}}, {"species": [{"element": "Si", "occu": 1}], "abc": [0.33360129, 0.77633139, 0.27076872], "xyz": [6.4897753061112295, 6.32210746499952, 12.216027023779679], "label": "Si", "properties": {}}, {"species": [{"element": "Si", "occu": 1}], "abc": [0.88461871, 0.28779654, 0.27903371], "xyz": [9.355349946184539, 2.34369069365472, 12.58891108952874], "label": "Si", "properties": {}}, {"species": [{"element": "P", "occu": 1}], "abc": [0.4946325, 0.38947705, 0.024082649999999997], "xyz": [6.24468967736745, 3.1717328411144, 1.0865151011690999], "label": "P", "properties": {}}, {"species": [{"element": "P", "occu": 1}], "abc": [0.95085556, 0.11882964, 0.18607515], "xyz": [9.21088719178324, 0.9676972537555201, 8.394983958464099], "label": "P", "properties": {}}, {"species": [{"element": "P", "occu": 1}], "abc": [0.90829208, 0.63919409, 0.19754882999999998], "xyz": [11.13003085693505, 5.205320537113121, 8.912631583870018], "label": "P", "properties": {}}, {"species": [{"element": "P", "occu": 1}], "abc": [0.36408453, 0.36900644, 0.3595624], "xyz": [4.9616468210898, 3.00502903657792, 16.222051037265597], "label": "P", "properties": {}}, {"species": [{"element": "O", "occu": 1}], "abc": [0.20407401, 0.73976696, 0.14618525999999998], "xyz": [5.144676569098319, 6.0243425429132795, 6.595307931574439], "label": "O", "properties": {}}, {"species": [{"element": "O", "occu": 1}], "abc": [0.29964966, 0.73542668, 0.07286986000000001], "xyz": [5.998289632860599, 5.98899717759424, 3.2876034535268404], "label": "O", "properties": {}}, {"species": [{"element": "O", "occu": 1}], "abc": [0.03943325, 0.35070106, 0.13356625], "xyz": [1.91552198257034, 2.8559579297820803, 6.025987490227499], "label": "O", "properties": {}}, {"species": [{"element": "O", "occu": 1}], "abc": [0.47688588, 0.09989839, 0.08263409999999999], "xyz": [4.79830820425215, 0.81352933205552, 3.728127823205399], "label": "O", "properties": {}}, {"species": [{"element": "O", "occu": 1}], "abc": [0.63627124, 0.23428791, 0.011764090000000001], "xyz": [6.849954450767109, 1.90793952666288, 0.53074979026446], "label": "O", "properties": {}}, {"species": [{"element": "O", "occu": 1}], "abc": [0.41310069, 0.54387164, 0.005453489999999998], "xyz": [6.184838842330679, 4.42905568361152, 0.2460401674680599], "label": "O", "properties": {}}, {"species": [{"element": "O", "occu": 1}], "abc": [0.34455281, 0.34460697, 0.03239689], "xyz": [4.675055895223609, 2.8063302934689602, 1.4616211345476597], "label": "O", "properties": {}}, {"species": [{"element": "O", "occu": 1}], "abc": [0.55113152, 0.42799326, 0.055547580000000006], "xyz": [6.9315004186259, 3.4853922163516797, 2.5060898407525203], "label": "O", "properties": {}}, {"species": [{"element": "O", "occu": 1}], "abc": [0.31382291, 0.41969905, 0.15506165], "xyz": [4.72744936424753, 3.4178477532104004, 6.995775977195099], "label": "O", "properties": {}}, {"species": [{"element": "O", "occu": 1}], "abc": [0.19224331, 0.04192491, 0.05388409], "xyz": [1.94163887748427, 0.34141835547888005, 2.43103966954446], "label": "O", "properties": {}}, {"species": [{"element": "O", "occu": 1}], "abc": [0.98606348, 0.64122592, 0.10731884], "xyz": [11.849304135341118, 5.22186688288256, 4.84180687341096], "label": "O", "properties": {}}, {"species": [{"element": "O", "occu": 1}], "abc": [0.51296526, 0.81847122, 0.10336248], "xyz": [8.31474437905746, 6.66527603611296, 4.66331136375312], "label": "O", "properties": {}}, {"species": [{"element": "O", "occu": 1}], "abc": [0.39027547, 0.07494053, 0.13970043], "xyz": [3.89663202182053, 0.6102833020110401, 6.302737731720419], "label": "O", "properties": {}}, {"species": [{"element": "O", "occu": 1}], "abc": [0.10281113, 0.37964458, 0.07648010999999999], "xyz": [2.62269947388506, 3.09166145306144, 3.4504838318903395], "label": "O", "properties": {}}, {"species": [{"element": "O", "occu": 1}], "abc": [0.01712607, 0.96185662, 0.09619372000000001], "xyz": [4.42232676891534, 7.832944791220161, 4.33988491372968], "label": "O", "properties": {}}, {"species": [{"element": "O", "occu": 1}], "abc": [0.50267804, 0.50680509, 0.12445219999999999], "xyz": [6.8385273835745295, 4.12720171316112, 5.614797153706799], "label": "O", "properties": {}}, {"species": [{"element": "O", "occu": 1}], "abc": [0.02722039, 0.87323388, 0.03933742], "xyz": [4.12146530472364, 7.111239481683841, 1.7747507384374799], "label": "O", "properties": {}}, {"species": [{"element": "O", "occu": 1}], "abc": [0.70609561, 0.95259943, 0.12400145999999998], "xyz": [10.67341415769895, 7.757558234966241, 5.5944615254972385], "label": "O", "properties": {}}, {"species": [{"element": "O", "occu": 1}], "abc": [0.79094817, 0.49575057, 0.09481959000000001], "xyz": [9.422180760531688, 4.03717847783376, 4.27788953548146], "label": "O", "properties": {}}, {"species": [{"element": "O", "occu": 1}], "abc": [0.55917145, 0.02353912, 0.31078422], "xyz": [5.2111364835392795, 0.19169242438016001, 14.021370083236679], "label": "O", "properties": {}}, {"species": [{"element": "O", "occu": 1}], "abc": [0.65488607, 0.01817312, 0.23734676999999998], "xyz": [6.06146955746384, 0.14799403849216, 10.70815918591638], "label": "O", "properties": {}}, {"species": [{"element": "O", "occu": 1}], "abc": [0.38265719, 0.65756999, 0.30080448], "xyz": [6.411070156605829, 5.3549659283243205, 13.571123195301118], "label": "O", "properties": {}}, {"species": [{"element": "O", "occu": 1}], "abc": [0.81816586, 0.40871779, 0.25027072], "xyz": [9.28475330616499, 3.32842111567472, 11.291237328967679], "label": "O", "properties": {}}, {"species": [{"element": "O", "occu": 1}], "abc": [0.04502879, 0.45802146, 0.19493262], "xyz": [2.4425998290974595, 3.72992890496928, 8.79459840758628], "label": "O", "properties": {}}, {"species": [{"element": "O", "occu": 1}], "abc": [0.81433235, 0.30000831, 0.18882258999999998], "xyz": [8.76760683644639, 2.44313807305008, 8.518937719763459], "label": "O", "properties": {}}, {"species": [{"element": "O", "occu": 1}], "abc": [0.90271091, 0.74477042, 0.17081353], "xyz": [11.54730019249346, 6.065088559658561, 7.706439275951819], "label": "O", "properties": {}}, {"species": [{"element": "O", "occu": 1}], "abc": [0.95655196, 0.01297704, 0.21276805], "xyz": [8.79344493382504, 0.10567940767872, 9.599263343996698], "label": "O", "properties": {}}, {"species": [{"element": "O", "occu": 1}], "abc": [0.12671202, 0.10442588, 0.18196729], "xyz": [1.62035941621308, 0.85039925473984, 8.209653360565259], "label": "O", "properties": {}}, {"species": [{"element": "O", "occu": 1}], "abc": [0.73255705, 0.6531945, 0.20161368], "xyz": [9.5871907216609, 5.319333827976, 9.096021738565918], "label": "O", "properties": {}}, {"species": [{"element": "O", "occu": 1}], "abc": [0.91017203, 0.05380036, 0.15700672], "xyz": [8.55092656114868, 0.43812689008447997, 7.083529938151679], "label": "O", "properties": {}}, {"species": [{"element": "O", "occu": 1}], "abc": [0.94856659, 0.70460925, 0.22660542], "xyz": [11.78796744766717, 5.738033340804, 10.22355142962948], "label": "O", "properties": {}}, {"species": [{"element": "O", "occu": 1}], "abc": [0.66613242, 0.71701938, 0.32971426], "xyz": [9.263624323569779, 5.83909607834784, 14.875419547300439], "label": "O", "properties": {}}, {"species": [{"element": "O", "occu": 1}], "abc": [0.54506475, 0.33820112, 0.2285395], "xyz": [6.47785836864768, 2.7541638183961603, 10.310809564712999], "label": "O", "properties": {}}, {"species": [{"element": "O", "occu": 1}], "abc": [0.34645906, 0.93944691, 0.28031089], "xyz": [7.330633156378269, 7.650449793974881, 12.646532462463659], "label": "O", "properties": {}}, {"species": [{"element": "O", "occu": 1}], "abc": [0.8724606, 0.1173835, 0.27625082], "xyz": [8.4885167217243, 0.9559205143280001, 12.46335796269708], "label": "O", "properties": {}}, {"species": [{"element": "O", "occu": 1}], "abc": [0.75665344, 0.37788562, 0.30745557], "xyz": [8.5862361481669, 3.0773372426921597, 13.87119439694358], "label": "O", "properties": {}}, {"species": [{"element": "O", "occu": 1}], "abc": [0.46805707, 0.68381658, 0.24376228], "xyz": [7.30740657847978, 5.56870681875744, 10.99760193813432], "label": "O", "properties": {}}, {"species": [{"element": "O", "occu": 1}], "abc": [0.35623254, 0.25126966, 0.25914623999999997], "xyz": [4.36776394836726, 2.04623156254688, 11.691666123586558], "label": "O", "properties": {}}, {"species": [{"element": "O", "occu": 1}], "abc": [0.84159613, 0.79642899, 0.28739750999999997], "xyz": [11.21826833012755, 6.48577363723632, 12.966253076525938], "label": "O", "properties": {}}, {"species": [{"element": "O", "occu": 1}], "abc": [0.39687943, 0.17814238, 0.20152297], "xyz": [4.41465331777966, 1.45071458521184, 9.09192925767918], "label": "O", "properties": {}}, {"species": [{"element": "O", "occu": 1}], "abc": [0.46166317, 0.57985295, 0.18209050999999998], "xyz": [6.78792513286351, 4.7220719283256, 8.215212565667938], "label": "O", "properties": {}}, {"species": [{"element": "O", "occu": 1}], "abc": [0.06784817, 0.26257272, 0.28876818], "xyz": [1.78416955015304, 2.1382788002649598, 13.028092353088919], "label": "O", "properties": {}}, {"species": [{"element": "O", "occu": 1}], "abc": [0.15260895, 0.80603635, 0.25966037], "xyz": [4.968572875842749, 6.5640118266968, 11.714861660994778], "label": "O", "properties": {}}, {"species": [{"element": "O", "occu": 1}], "abc": [0.22097244, 0.52274455, 0.37197291], "xyz": [4.336490954633669, 4.2570057895544, 16.781964773013538], "label": "O", "properties": {}}, {"species": [{"element": "O", "occu": 1}], "abc": [0.4474124, 0.21402394, 0.37802271], "xyz": [5.03529307856186, 1.74291850901792, 17.054908118494737], "label": "O", "properties": {}}, {"species": [{"element": "O", "occu": 1}], "abc": [0.51274979, 0.41621139, 0.3514563], "xyz": [6.52871841159923, 3.38944575683952, 15.8563354676922], "label": "O", "properties": {}}, {"species": [{"element": "O", "occu": 1}], "abc": [0.30832718, 0.33068116, 0.32799489], "xyz": [4.282456312083079, 2.69292451277888, 14.797848288759658], "label": "O", "properties": {}}, {"species": [{"element": "O", "occu": 1}], "abc": [0.83175693, 0.88497681, 0.34424492], "xyz": [11.521127448813928, 7.206868830658079, 15.53098616974248], "label": "O", "properties": {}}]}, "formula": "(Na3Zr2Si2PO12)4.0", "bandgap": 3.3129, "slab_thickness": 17.297221696598395}