{"miller": "100_0.13", "final_energy": -599.24433224, "gamma": 0.05977278231355022, "work_function": "Not calculated", "ionization_potentail": "Not calculated", "electron_affinity": "Not calculated", "is_stochiometric": true, "incar_parameters": {"SYSTEM": "unknown system", "LCOMPAT": false, "PREC": "normal", "ENMAX": 520.0, "ENAUG": 605.392, "EDIFF": 1e-05, "IALGO": 38, "IWAVPR": 11, "NBANDS": 312, "NBANDSLOW": -1, "NBANDSHIGH": -1, "NELECT": 520.0, "TURBO": 0, "IRESTART": 0, "NREBOOT": 0, "NMIN": 0, "EREF": 0.0, "ISMEAR": 0, "SIGMA": 0.05, "KSPACING": 0.5, "KGAMMA": true, "KBLOWUP": true, "LREAL": true, "ROPT": [-0.0005, -0.0005, -0.0005, -0.0005, -0.0005], "LMAXPAW": -100, "LMAXMIX": 4, "NLSPLINE": false, "ISTART": 0, "ICHARG": 2, "INIWAV": 1, "ISPIN": 1, "LNONCOLLINEAR": false, "MAGMOM": [0.6, 0.6, 0.6, 0.6, 0.6, 0.6, 0.6, 0.6, 0.6, 0.6, 0.6, 0.6, 0.6, 0.6, 0.6, 0.6, 0.6, 0.6, 0.6, 0.6, 0.6, 0.6, 0.6, 0.6, 0.6, 0.6, 0.6, 0.6, 0.6, 0.6, 0.6, 0.6, 0.6, 0.6, 0.6, 0.6, 0.6, 0.6, 0.6, 0.6, 0.6, 0.6, 0.6, 0.6, 0.6, 0.6, 0.6, 0.6, 0.6, 0.6, 0.6, 0.6, 0.6, 0.6, 0.6, 0.6, 0.6, 0.6, 0.6, 0.6, 0.6, 0.6, 0.6, 0.6, 0.6, 0.6, 0.6, 0.6, 0.6, 0.6, 0.6, 0.6, 0.6, 0.6, 0.6, 0.6, 0.6, 0.6, 0.6, 0.6], "NUPDOWN": -1.0, "LSORBIT": false, "SAXIS": [0.0, 0.0, 1.0], "LSPIRAL": false, "QSPIRAL": [0.0, 0.0, 0.0], "LZEROZ": false, "LASPH": false, "LMETAGGA": false, "NELM": 100, "NELMDL": -5, "NELMIN": 6, "ENINI": 520.0, "LDIAG": true, "LSUBROT": false, "WEIMIN": 0.001, "EBREAK": 1e-08, "DEPER": 0.3, "NRMM": 4, "TIME": 0.4, "AMIX": 0.4, "BMIX": 1.0, "AMIN": 0.1, "AMIX_MAG": 1.6, "BMIX_MAG": 1.0, "IMIX": 4, "MIXFIRST": false, "MAXMIX": -45, "WC": 100.0, "INIMIX": 1, "MIXPRE": 1, "MREMOVE": 5, "LDIPOL": false, "LMONO": false, "IDIPOL": 0, "EPSILON": 1.0, "DIPOL": [-100.0, -100.0, -100.0], "EFIELD": 0.0, "NGX": 54, "NGY": 54, "NGZ": 252, "NGXF": 108, "NGYF": 108, "NGZF": 504, "ADDGRID": false, "NSW": 150, "IBRION": 2, "MDALGO": 0, "ISIF": 2, "PSTRESS": 0.0, "EDIFFG": -0.01, "NFREE": 1, "POTIM": 0.5, "SMASS": -3.0, "SCALEE": 1.0, "TEBEG": 0.0001, "TEEND": 0.0001, "NBLOCK": 1, "KBLOCK": 150, "NPACO": 256, "APACO": 10.0, "ISYM": 0, "SYMPREC": 1e-05, "LORBIT": 11, "RWIGS": [-1.0, -1.0, -1.0, -1.0, -1.0], "NEDOS": 301, "EMIN": 10.0, "EMAX": -10.0, "EFERMI": 0.0, "NWRITE": 2, "LWAVE": false, "LDOWNSAMPLE": false, "LCHARG": false, "LPARD": false, "LVTOT": false, "LVHAR": false, "LELF": false, "LOPTICS": false, "STM": [0.0, 0.0, 0.0, 0.0, 0.0, 0.0, 0.0], "NPAR": 2, "NSIM": 4, "NBLK": -1, "LPLANE": true, "LSCALAPACK": true, "LSCAAWARE": false, "LSCALU": false, "LASYNC": false, "LORBITALREAL": false, "IDIOT": 3, "PHON_NSTRUCT": -1, "LMUSIC": false, "POMASS": [22.99, 91.224, 28.085, 30.974, 16.0], "DARWINR": [0.0, 0.0, 0.0, 0.0, 0.0], "DARWINV": [1.0, 1.0, 1.0, 1.0, 1.0], "LCORR": true, "GGA_COMPAT": true, "LBERRY": false, "ICORELEVEL": 0, "LDAU": false, "I_CONSTRAINED_M": 0, "GGA": "--", "VOSKOWN": 0, "LHFCALC": false, "PRECFOCK": "", "LSYMGRAD": false, "LHFONE": false, "LRHFCALC": false, "LTHOMAS": false, "LMODELHF": false, "LFOCKACE": false, "ENCUT4O": -1.0, "EXXOEP": 0, "FOURORBIT": 0, "AEXX": 0.0, "HFALPHA": 0.0, "MCALPHA": 0.0, "ALDAX": 1.0, "AGGAX": 1.0, "ALDAC": 1.0, "AGGAC": 1.0, "NKREDX": 1, "NKREDY": 1, "NKREDZ": 1, "SHIFTRED": false, "ODDONLY": false, "EVENONLY": false, "LMAXFOCK": 0, "NMAXFOCKAE": 0, "LFOCKAEDFT": false, "HFSCREEN": 0.0, "HFSCREENC": 0.0, "NBANDSGWLOW": 0, "LUSE_VDW": false, "Zab_VDW": -0.8491, "PARAM1": 0.1234, "PARAM2": 1.0, "PARAM3": 0.0, "MODEL_GW": 0, "MODEL_EPS0": 25.16553134, "MODEL_ALPHA": 1.0, "LEPSILON": false, "LRPA": false, "LNABLA": false, "LVEL": false, "CSHIFT": 0.1, "OMEGAMAX": -1.0, "DEG_THRESHOLD": 0.002, "RTIME": -0.1, "WPLASMAI": 0.0, "DFIELD": [0.0, 0.0, 0.0], "WPLASMA": [0.0, 0.0, 0.0, 0.0, 0.0, 0.0, 0.0, 0.0, 0.0], "NUCIND": false, "MAGPOS": [0.0, 0.0, 0.0], "LNICSALL": true, "ORBITALMAG": false, "LMAGBLOCH": false, "LCHIMAG": false, "LGAUGE": true, "MAGATOM": 0, "MAGDIPOL": [0.0, 0.0, 0.0], "AVECCONST": [0.0, 0.0, 0.0], "LFINITE_TEMPERATURE": false, "LADDER": false, "LRPAFORCE": false, "LFXC": false, "LHARTREE": true, "IBSE": 0, "KPOINT": [-1, 0, 0, 0], "LTCTC": false, "LTCTE": false, "LTETE": false, "LTRIPLET": false, "LFXCEPS": false, "LFXHEG": false, "NATURALO": 2, "LHOLEGF": false, "L2ORDER": false, "LDMP1": false, "LMP2LT": false, "LSMP2LT": false, "LGWLF": false, "ENCUTGW": -2.0, "ENCUTGWSOFT": -2.0, "ENCUTLF": -1.0, "LESF_SPLINES": false, "LMAXMP2": -1, "SCISSOR": 0.0, "NOMEGA": 0, "NOMEGAR": 0, "NBANDSGW": -1, "NBANDSO": -1, "NBANDSV": -1, "NELMGW": 1, "NELMHF": 1, "DIM": 3, "IESPILON": 4, "ANTIRES": 0, "OMEGAMIN": -30.0, "OMEGATL": -200.0, "OMEGAGRID": 0, "LSELFENERGY": false, "LSPECTRAL": false, "LSPECTRALGW": false, "LSINGLES": false, "LFERMIGW": false, "ODDONLYGW": false, "EVENONLYGW": false, "NKREDLFX": 1, "NKREDLFY": 1, "NKREDLFZ": 1, "MAXMEM": 2800, "TELESCOPE": 0, "NTAUPAR": -1, "NOMEGAPAR": -1, "DAMP_NEWTON": 0.80000001, "LAMBDA": 1.0, "OFIELD_KAPPA": 0.0, "OFIELD_K": [0.0, 0.0, 0.0], "OFIELD_Q6_NEAR": 0.0, "OFIELD_Q6_FAR": 0.0, "OFIELD_A": 0.0, "KPOINTS_OPT_MODE": 1, "LKPOINTS_OPT": false, "@module": "pymatgen.io.vasp.inputs", "@class": "Incar"}, "relaxed_structures": {"@module": "pymatgen.core.structure", "@class": "Structure", "charge": 0, "lattice": {"matrix": [[9.132688, 0.0, 0.0], [4.435089, 8.143568, 0.0], [0.0, 0.0, 45.116094]], "a": 9.132688, "b": 9.27295606635473, "c": 45.116094, "alpha": 90.0, "beta": 90.0, "gamma": 61.42673605530538, "volume": 3355.404179042951}, "sites": [{"species": [{"element": "Na", "occu": 1}], "abc": [0.24252541, 0.82706531, 0.00010000000000000286], "xyz": [5.88301716026467, 6.73526259242608, 0.004511609400000129], "label": "Na", "properties": {}}, {"species": [{"element": "Na", "occu": 1}], "abc": [0.81497564, 0.13059505, 0.05148321000000001], "xyz": [8.02211891742977, 1.0635096701384, 2.3227213417817403], "label": "Na", "properties": {}}, {"species": [{"element": "Na", "occu": 1}], "abc": [0.26472644, 0.01128878, 0.13096206999999999], "xyz": [2.46773072587214, 0.09193094756704, 5.908497060554579], "label": "Na", "properties": {}}, {"species": [{"element": "Na", "occu": 1}], "abc": [0.19112761, 0.6438028, 0.05834983], "xyz": [4.60083154676488, 5.2428518803904005, 2.63251641516402], "label": "Na", "properties": {}}, {"species": [{"element": "Na", "occu": 1}], "abc": [0.28653597, 0.84318453, 0.20541510999999998], "xyz": [6.356442048760529, 6.86653055660304, 9.267527411780339], "label": "Na", "properties": {}}, {"species": [{"element": "Na", "occu": 1}], "abc": [0.67122758, 0.00211812, 0.17784489], "xyz": [6.13950611584772, 0.017249054252159998, 8.02366677465966], "label": "Na", "properties": {}}, {"species": [{"element": "Na", "occu": 1}], "abc": [0.83219865, 0.36975566, 0.13614535], "xyz": [9.24010988482494, 3.01113036059488, 6.1423464082629], "label": "Na", "properties": {}}, {"species": [{"element": "Na", "occu": 1}], "abc": [0.12428543, 0.47340089, 0.24720657], "xyz": [3.23463513496505, 3.85517233897552, 11.15299484953758], "label": "Na", "properties": {}}, {"species": [{"element": "Na", "occu": 1}], "abc": [0.76385643, 0.20053781, 0.32474420000000004], "xyz": [7.8654654871989305, 1.6330932923060801, 14.6511898531548], "label": "Na", "properties": {}}, {"species": [{"element": "Na", "occu": 1}], "abc": [0.69175668, 0.83215945, 0.25242749000000003], "xyz": [10.00829915329689, 6.776747067917601, 11.38854236702406], "label": "Na", "properties": {}}, {"species": [{"element": "Na", "occu": 1}], "abc": [0.71294999, 0.01883866, 0.38335251000000004], "xyz": [6.59470095201386, 0.15341390873888, 17.29536787629594], "label": "Na", "properties": {}}, {"species": [{"element": "Na", "occu": 1}], "abc": [0.1404053, 0.71462698, 0.33178923000000005], "xyz": [4.45171205654762, 5.81961340626464, 14.969034088867621], "label": "Na", "properties": {}}, {"species": [{"element": "Zr", "occu": 1}], "abc": [0.33268479, 0.24203359, 0.05660976], "xyz": [4.11174690205503, 1.97101699844912, 2.55401125347744], "label": "Zr", "properties": {}}, {"species": [{"element": "Zr", "occu": 1}], "abc": [0.58554128, 0.64310356, 0.08737081999999999], "xyz": [8.19978734617748, 5.23715757190208, 3.941830127977079], "label": "Zr", "properties": {}}, {"species": [{"element": "Zr", "occu": 1}], "abc": [0.27535847, 0.31462959, 0.16668032], "xyz": [3.91017322835087, 2.5622074609771204, 7.519964985070079], "label": "Zr", "properties": {}}, {"species": [{"element": "Zr", "occu": 1}], "abc": [0.68070557, 0.5290616, 0.21673242], "xyz": [8.56310687315456, 4.3084491157888, 9.77812023356748], "label": "Zr", "properties": {}}, {"species": [{"element": "Zr", "occu": 1}], "abc": [0.00636316, 0.8827548, 0.13015472], "xyz": [3.9732088581512794, 7.1887737411264, 5.872072582063679], "label": "Zr", "properties": {}}, {"species": [{"element": "Zr", "occu": 1}], "abc": [0.94996222, 0.96062845, 0.25332783000000003], "xyz": [12.93618123872941, 7.8229431053096, 11.42916219109602], "label": "Zr", "properties": {}}, {"species": [{"element": "Zr", "occu": 1}], "abc": [0.62375029, 0.60177923, 0.32689693000000003], "xyz": [8.36546123188099, 4.90063008049264, 14.74831262219142], "label": "Zr", "properties": {}}, {"species": [{"element": "Zr", "occu": 1}], "abc": [0.37003457, 0.20112218, 0.2960492], "xyz": [4.27140504519818, 1.63785214913824, 13.3565835358248], "label": "Zr", "properties": {}}, {"species": [{"element": "Si", "occu": 1}], "abc": [0.17863498, 0.95095254, 0.06505607], "xyz": [5.848976687902299, 7.74414667426272, 2.9350757693905796], "label": "Si", "properties": {}}, {"species": [{"element": "Si", "occu": 1}], "abc": [0.02264192, 0.5142985, 0.10440427999999999], "xyz": [2.4877412111474597, 4.188224807048, 4.710313310482319], "label": "Si", "properties": {}}, {"species": [{"element": "Si", "occu": 1}], "abc": [0.57430116, 0.02535295, 0.11269689], "xyz": [5.357355901980629, 0.2064634723256, 5.084443482747659], "label": "Si", "properties": {}}, {"species": [{"element": "Si", "occu": 1}], "abc": [0.41768906, 0.60430814, 0.15227069999999998], "xyz": [6.494784250317739, 4.9212244310435205, 6.869859214645799], "label": "Si", "properties": {}}, {"species": [{"element": "Si", "occu": 1}], "abc": [0.53868199, 0.23915183, 0.23111513999999997], "xyz": [5.98027419645199, 1.9475491899294401, 10.427012381063157], "label": "Si", "properties": {}}, {"species": [{"element": "Si", "occu": 1}], "abc": [0.38163805, 0.8186524, 0.27071086], "xyz": [7.116177493642, 6.666751487763199, 12.21341660658084], "label": "Si", "properties": {}}, {"species": [{"element": "Si", "occu": 1}], "abc": [0.93312294, 0.32979398, 0.27901656], "xyz": [9.98458632962694, 2.68569970212064, 12.588137348516641], "label": "Si", "properties": {}}, {"species": [{"element": "Si", "occu": 1}], "abc": [0.776938, 0.89313104, 0.31849613000000004], "xyz": [11.056648000406561, 7.27327335715072, 14.369301339716221], "label": "Si", "properties": {}}, {"species": [{"element": "P", "occu": 1}], "abc": [0.54272606, 0.43402227, 0.02382094], "xyz": [6.88147517088131, 3.53448986925936, 1.07470776820836], "label": "P", "properties": {}}, {"species": [{"element": "P", "occu": 1}], "abc": [0.99993099, 0.1610761, 0.18607929], "xyz": [9.846444592474018, 1.3117341735248, 8.39517073909326], "label": "P", "properties": {}}, {"species": [{"element": "P", "occu": 1}], "abc": [0.95656823, 0.68219124, 0.19741005], "xyz": [11.7616180597226, 5.55547075194432, 8.9063703723447], "label": "P", "properties": {}}, {"species": [{"element": "P", "occu": 1}], "abc": [0.41261433, 0.41087954, 0.35950386], "xyz": [5.5905652683981, 3.34602547379872, 16.21940994112284], "label": "P", "properties": {}}, {"species": [{"element": "O", "occu": 1}], "abc": [0.34822242, 0.77879072, 0.07273514], "xyz": [6.63421287203904, 6.34213518608896, 3.28152541334316], "label": "O", "properties": {}}, {"species": [{"element": "O", "occu": 1}], "abc": [0.52580982, 0.1436508, 0.08258719], "xyz": [5.43916111631736, 1.1698300580543999, 3.7260114272358598], "label": "O", "properties": {}}, {"species": [{"element": "O", "occu": 1}], "abc": [0.68583024, 0.28088931, 0.01122907], "xyz": [7.50924269188371, 2.28744119645808, 0.50661177765258], "label": "O", "properties": {}}, {"species": [{"element": "O", "occu": 1}], "abc": [0.45865696, 0.58952897, 0.005520219999999999], "xyz": [6.803384364736811, 4.800869255164961, 0.24905076442067994], "label": "O", "properties": {}}, {"species": [{"element": "O", "occu": 1}], "abc": [0.39475479, 0.38590021, 0.031988499999999996], "xyz": [5.31667411004421, 3.14260460134928, 1.4431961729189997], "label": "O", "properties": {}}, {"species": [{"element": "O", "occu": 1}], "abc": [0.59887504, 0.47160826, 0.05539935000000001], "xyz": [7.56096349754266, 3.84057393467168, 2.4994022821389], "label": "O", "properties": {}}, {"species": [{"element": "O", "occu": 1}], "abc": [0.24104617, 0.08536984, 0.05386601], "xyz": [2.58002230252072, 0.69521509718912, 2.4302239705649398], "label": "O", "properties": {}}, {"species": [{"element": "O", "occu": 1}], "abc": [0.03479139, 0.68474412, 0.10713553], "xyz": [3.3546400243829995, 5.57626030382016, 4.83353664221982], "label": "O", "properties": {}}, {"species": [{"element": "O", "occu": 1}], "abc": [0.56127661, 0.86222102, 0.10319158], "xyz": [8.94999112219846, 7.02155550739936, 4.65560102328852], "label": "O", "properties": {}}, {"species": [{"element": "O", "occu": 1}], "abc": [0.15134022, 0.42380425, 0.07609424000000001], "xyz": [3.2617525784396095, 3.451278728564, 3.43307488469856], "label": "O", "properties": {}}, {"species": [{"element": "O", "occu": 1}], "abc": [0.06655777, 0.00532489, 0.09633048999999999], "xyz": [0.63146770845097, 0.043363603807519996, 4.346055441906059], "label": "O", "properties": {}}, {"species": [{"element": "O", "occu": 1}], "abc": [0.55128074, 0.55040296, 0.12427806999999999], "xyz": [7.4757611122925605, 4.48224393216128, 5.606941088258579], "label": "O", "properties": {}}, {"species": [{"element": "O", "occu": 1}], "abc": [0.07502172, 0.91785547, 0.039401750000000006], "xyz": [4.755920660570189, 7.474618434116961, 1.7776530567645001], "label": "O", "properties": {}}, {"species": [{"element": "O", "occu": 1}], "abc": [0.75501931, 0.99591035, 0.12389333999999999], "xyz": [11.31230683047643, 8.110263657128801, 5.589583573413959], "label": "O", "properties": {}}, {"species": [{"element": "O", "occu": 1}], "abc": [0.83964054, 0.53943999, 0.09458463], "xyz": [10.06063944978063, 4.39296624048432, 4.26728905803522], "label": "O", "properties": {}}, {"species": [{"element": "O", "occu": 1}], "abc": [0.252671, 0.78237426, 0.1463252], "xyz": [5.77746488405714, 6.37131798775968, 6.601621477768799], "label": "O", "properties": {}}, {"species": [{"element": "O", "occu": 1}], "abc": [0.70380788, 0.06110611, 0.23701552], "xyz": [6.69866881627523, 0.49762176200048, 10.693214479778879], "label": "O", "properties": {}}, {"species": [{"element": "O", "occu": 1}], "abc": [0.08843811, 0.39382984, 0.13322849], "xyz": [2.5543480571954396, 3.20718008246912, 6.01074907831806], "label": "O", "properties": {}}, {"species": [{"element": "O", "occu": 1}], "abc": [0.8669114, 0.45059083, 0.25024142000000005], "xyz": [9.91564177347707, 3.66941706428144, 11.289915427413481], "label": "O", "properties": {}}, {"species": [{"element": "O", "occu": 1}], "abc": [0.09351735, 0.50118005, 0.19460131], "xyz": [3.07684290691125, 4.0813938174184, 8.77965099448314], "label": "O", "properties": {}}, {"species": [{"element": "O", "occu": 1}], "abc": [0.86327128, 0.34214312, 0.18890645], "xyz": [9.40142244753832, 2.7862657634521604, 8.5227211554063], "label": "O", "properties": {}}, {"species": [{"element": "O", "occu": 1}], "abc": [0.95005264, 0.78826289, 0.17069501], "xyz": [12.17255041724353, 6.4192724465915205, 7.70109211649094], "label": "O", "properties": {}}, {"species": [{"element": "O", "occu": 1}], "abc": [0.00676863, 0.05486778, 0.21278592999999998], "xyz": [0.30515927350985994, 0.44681949743904, 9.60007001975742], "label": "O", "properties": {}}, {"species": [{"element": "O", "occu": 1}], "abc": [0.175401, 0.1473052, 0.18173923], "xyz": [2.2551942800508, 1.1995899129536, 8.199364184167619], "label": "O", "properties": {}}, {"species": [{"element": "O", "occu": 1}], "abc": [0.78124771, 0.69566154, 0.20166137], "xyz": [10.22021242992154, 5.66516705597472, 9.09817332508878], "label": "O", "properties": {}}, {"species": [{"element": "O", "occu": 1}], "abc": [0.95825265, 0.09641888, 0.15706967], "xyz": [9.179048791703519, 0.78519370576384, 7.08636999626898], "label": "O", "properties": {}}, {"species": [{"element": "O", "occu": 1}], "abc": [0.99780259, 0.74701224, 0.22643963999999997], "xyz": [12.425685508551279, 6.08334497327232, 10.216072083566157], "label": "O", "properties": {}}, {"species": [{"element": "O", "occu": 1}], "abc": [0.3629345, 0.4620583, 0.15471793], "xyz": [5.3638372366247, 3.7628031860144, 6.98026867336542], "label": "O", "properties": {}}, {"species": [{"element": "O", "occu": 1}], "abc": [0.59322063, 0.38155042, 0.22865554000000002], "xyz": [7.10990899964082, 3.10718179069856, 10.31604483626076], "label": "O", "properties": {}}, {"species": [{"element": "O", "occu": 1}], "abc": [0.39336192, 0.98248559, 0.28014965000000003], "xyz": [7.949862719308469, 8.00093821118512, 12.6392579434671], "label": "O", "properties": {}}, {"species": [{"element": "O", "occu": 1}], "abc": [0.92119665, 0.15924186, 0.27622046], "xyz": [9.119253412720738, 1.2967969153564802, 12.461988238083238], "label": "O", "properties": {}}, {"species": [{"element": "O", "occu": 1}], "abc": [0.43932657, 0.11805538, 0.13959863], "xyz": [4.53581861114898, 0.96139201479584, 6.298144913351219], "label": "O", "properties": {}}, {"species": [{"element": "O", "occu": 1}], "abc": [0.51622678, 0.72645232, 0.24371283000000002], "xyz": [7.93641881244112, 5.91591386667776, 10.99537094728602], "label": "O", "properties": {}}, {"species": [{"element": "O", "occu": 1}], "abc": [0.40516651, 0.29287059, 0.25910897000000005], "xyz": [4.999166456011389, 2.38501156486512, 11.68998464676318], "label": "O", "properties": {}}, {"species": [{"element": "O", "occu": 1}], "abc": [0.8891168, 0.83881986, 0.28722342], "xyz": [11.840267064025939, 6.83098656966048, 12.958398815721479], "label": "O", "properties": {}}, {"species": [{"element": "O", "occu": 1}], "abc": [0.44521987, 0.22215986, 0.2014018], "xyz": [5.0513529154381, 1.8091739267804798, 9.0864625405692], "label": "O", "properties": {}}, {"species": [{"element": "O", "occu": 1}], "abc": [0.51136686, 0.62131575, 0.18194393], "xyz": [7.42574463427143, 5.059727059596001, 8.20859944860942], "label": "O", "properties": {}}, {"species": [{"element": "O", "occu": 1}], "abc": [0.11598777, 0.30524146, 0.28877909], "xyz": [2.4130531568157, 2.4857545859292802, 13.028584569674459], "label": "O", "properties": {}}, {"species": [{"element": "O", "occu": 1}], "abc": [0.20095504, 0.84716145, 0.25971323], "xyz": [5.59249611046657, 6.8989168750536, 11.71724649772362], "label": "O", "properties": {}}, {"species": [{"element": "O", "occu": 1}], "abc": [0.6069452, 0.06474763, 0.31075892000000005], "xyz": [5.830202646286669, 0.52727672774384, 14.02022864605848], "label": "O", "properties": {}}, {"species": [{"element": "O", "occu": 1}], "abc": [0.43137383, 0.70009969, 0.30079082], "xyz": [7.04460703477745, 5.701309432293921, 13.57050690945708], "label": "O", "properties": {}}, {"species": [{"element": "O", "occu": 1}], "abc": [0.26943555, 0.56441725, 0.37195653], "xyz": [4.963911551143649, 4.596370255748, 16.78122577139382], "label": "O", "properties": {}}, {"species": [{"element": "O", "occu": 1}], "abc": [0.49558196, 0.25559688, 0.37788502], "xyz": [5.6595903300308, 2.08147057286784, 17.048696083511878], "label": "O", "properties": {}}, {"species": [{"element": "O", "occu": 1}], "abc": [0.56133961, 0.45814951, 0.35149098], "xyz": [7.15847337232807, 3.73097168885168, 15.85790009383212], "label": "O", "properties": {}}, {"species": [{"element": "O", "occu": 1}], "abc": [0.35710776, 0.37325143, 0.32786059], "xyz": [4.91675706588615, 3.03959840130224, 14.79178919733546], "label": "O", "properties": {}}, {"species": [{"element": "O", "occu": 1}], "abc": [0.71542537, 0.75830282, 0.32976243], "xyz": [9.89689718714554, 6.175290579261761, 14.87759278954842], "label": "O", "properties": {}}, {"species": [{"element": "O", "occu": 1}], "abc": [0.80473034, 0.41984122, 0.30737254], "xyz": [9.2113842959225, 3.41900552427296, 13.86744840765876], "label": "O", "properties": {}}, {"species": [{"element": "O", "occu": 1}], "abc": [0.88030535, 0.92722425, 0.34405223], "xyz": [12.151876177989049, 7.550913731124, 15.522292749589619], "label": "O", "properties": {}}]}, "formula": "(Na3Zr2Si2PO12)4.0", "bandgap": 3.3133999999999997, "slab_thickness": 17.29085626689594}