{"miller": "110_0.25", "final_energy": -903.12152863, "gamma": 0.05346095619969498, "work_function": "Not calculated", "ionization_potentail": "Not calculated", "electron_affinity": "Not calculated", "is_stochiometric": true, "incar_parameters": {"SYSTEM": "unknown system", "LCOMPAT": false, "PREC": "normal", "ENMAX": 520.0, "ENAUG": 605.392, "EDIFF": 1e-05, "IALGO": 38, "IWAVPR": 11, "NBANDS": 468, "NBANDSLOW": -1, "NBANDSHIGH": -1, "NELECT": 780.0, "TURBO": 0, "IRESTART": 0, "NREBOOT": 0, "NMIN": 0, "EREF": 0.0, "ISMEAR": 0, "SIGMA": 0.05, "KSPACING": 0.5, "KGAMMA": true, "KBLOWUP": true, "LREAL": true, "ROPT": [-0.0005, -0.0005, -0.0005, -0.0005, -0.0005], "LMAXPAW": -100, "LMAXMIX": 4, "NLSPLINE": false, "ISTART": 0, "ICHARG": 2, "INIWAV": 1, "ISPIN": 1, "LNONCOLLINEAR": false, "MAGMOM": [0.6, 0.6, 0.6, 0.6, 0.6, 0.6, 0.6, 0.6, 0.6, 0.6, 0.6, 0.6, 0.6, 0.6, 0.6, 0.6, 0.6, 0.6, 0.6, 0.6, 0.6, 0.6, 0.6, 0.6, 0.6, 0.6, 0.6, 0.6, 0.6, 0.6, 0.6, 0.6, 0.6, 0.6, 0.6, 0.6, 0.6, 0.6, 0.6, 0.6, 0.6, 0.6, 0.6, 0.6, 0.6, 0.6, 0.6, 0.6, 0.6, 0.6, 0.6, 0.6, 0.6, 0.6, 0.6, 0.6, 0.6, 0.6, 0.6, 0.6, 0.6, 0.6, 0.6, 0.6, 0.6, 0.6, 0.6, 0.6, 0.6, 0.6, 0.6, 0.6, 0.6, 0.6, 0.6, 0.6, 0.6, 0.6, 0.6, 0.6, 0.6, 0.6, 0.6, 0.6, 0.6, 0.6, 0.6, 0.6, 0.6, 0.6, 0.6, 0.6, 0.6, 0.6, 0.6, 0.6, 0.6, 0.6, 0.6, 0.6, 0.6, 0.6, 0.6, 0.6, 0.6, 0.6, 0.6, 0.6, 0.6, 0.6, 0.6, 0.6, 0.6, 0.6, 0.6, 0.6, 0.6, 0.6, 0.6, 0.6], "NUPDOWN": -1.0, "LSORBIT": false, "SAXIS": [0.0, 0.0, 1.0], "LSPIRAL": false, "QSPIRAL": [0.0, 0.0, 0.0], "LZEROZ": false, "LASPH": false, "LMETAGGA": false, "NELM": 100, "NELMDL": -5, "NELMIN": 6, "ENINI": 520.0, "LDIAG": true, "LSUBROT": false, "WEIMIN": 0.001, "EBREAK": 1e-08, "DEPER": 0.3, "NRMM": 4, "TIME": 0.4, "AMIX": 0.4, "BMIX": 1.0, "AMIN": 0.1, "AMIX_MAG": 1.6, "BMIX_MAG": 1.0, "IMIX": 4, "MIXFIRST": false, "MAXMIX": -45, "WC": 100.0, "INIMIX": 1, "MIXPRE": 1, "MREMOVE": 5, "LDIPOL": false, "LMONO": false, "IDIPOL": 0, "EPSILON": 1.0, "DIPOL": [-100.0, -100.0, -100.0], "EFIELD": 0.0, "NGX": 54, "NGY": 54, "NGZ": 294, "NGXF": 108, "NGYF": 108, "NGZF": 588, "ADDGRID": false, "NSW": 150, "IBRION": 2, "MDALGO": 0, "ISIF": 2, "PSTRESS": 0.0, "EDIFFG": -0.01, "NFREE": 1, "POTIM": 0.5, "SMASS": -3.0, "SCALEE": 1.0, "TEBEG": 0.0001, "TEEND": 0.0001, "NBLOCK": 1, "KBLOCK": 150, "NPACO": 256, "APACO": 10.0, "ISYM": 0, "SYMPREC": 1e-05, "LORBIT": 11, "RWIGS": [-1.0, -1.0, -1.0, -1.0, -1.0], "NEDOS": 301, "EMIN": 10.0, "EMAX": -10.0, "EFERMI": 0.0, "NWRITE": 2, "LWAVE": false, "LDOWNSAMPLE": false, "LCHARG": false, "LPARD": false, "LVTOT": false, "LVHAR": false, "LELF": false, "LOPTICS": false, "STM": [0.0, 0.0, 0.0, 0.0, 0.0, 0.0, 0.0], "NPAR": 2, "NSIM": 4, "NBLK": -1, "LPLANE": true, "LSCALAPACK": true, "LSCAAWARE": false, "LSCALU": false, "LASYNC": false, "LORBITALREAL": false, "IDIOT": 3, "PHON_NSTRUCT": -1, "LMUSIC": false, "POMASS": [22.99, 91.224, 28.085, 30.974, 16.0], "DARWINR": [0.0, 0.0, 0.0, 0.0, 0.0], "DARWINV": [1.0, 1.0, 1.0, 1.0, 1.0], "LCORR": true, "GGA_COMPAT": true, "LBERRY": false, "ICORELEVEL": 0, "LDAU": false, "I_CONSTRAINED_M": 0, "GGA": "--", "VOSKOWN": 0, "LHFCALC": false, "PRECFOCK": "", "LSYMGRAD": false, "LHFONE": false, "LRHFCALC": false, "LTHOMAS": false, "LMODELHF": false, "LFOCKACE": false, "ENCUT4O": -1.0, "EXXOEP": 0, "FOURORBIT": 0, "AEXX": 0.0, "HFALPHA": 0.0, "MCALPHA": 0.0, "ALDAX": 1.0, "AGGAX": 1.0, "ALDAC": 1.0, "AGGAC": 1.0, "NKREDX": 1, "NKREDY": 1, "NKREDZ": 1, "SHIFTRED": false, "ODDONLY": false, "EVENONLY": false, "LMAXFOCK": 0, "NMAXFOCKAE": 0, "LFOCKAEDFT": false, "HFSCREEN": 0.0, "HFSCREENC": 0.0, "NBANDSGWLOW": 0, "LUSE_VDW": false, "Zab_VDW": -0.8491, "PARAM1": 0.1234, "PARAM2": 1.0, "PARAM3": 0.0, "MODEL_GW": 0, "MODEL_EPS0": 22.36936168, "MODEL_ALPHA": 1.0, "LEPSILON": false, "LRPA": false, "LNABLA": false, "LVEL": false, "CSHIFT": 0.1, "OMEGAMAX": -1.0, "DEG_THRESHOLD": 0.002, "RTIME": -0.1, "WPLASMAI": 0.0, "DFIELD": [0.0, 0.0, 0.0], "WPLASMA": [0.0, 0.0, 0.0, 0.0, 0.0, 0.0, 0.0, 0.0, 0.0], "NUCIND": false, "MAGPOS": [0.0, 0.0, 0.0], "LNICSALL": true, "ORBITALMAG": false, "LMAGBLOCH": false, "LCHIMAG": false, "LGAUGE": true, "MAGATOM": 0, "MAGDIPOL": [0.0, 0.0, 0.0], "AVECCONST": [0.0, 0.0, 0.0], "LFINITE_TEMPERATURE": false, "LADDER": false, "LRPAFORCE": false, "LFXC": false, "LHARTREE": true, "IBSE": 0, "KPOINT": [-1, 0, 0, 0], "LTCTC": false, "LTCTE": false, "LTETE": false, "LTRIPLET": false, "LFXCEPS": false, "LFXHEG": false, "NATURALO": 2, "LHOLEGF": false, "L2ORDER": false, "LDMP1": false, "LMP2LT": false, "LSMP2LT": false, "LGWLF": false, "ENCUTGW": -2.0, "ENCUTGWSOFT": -2.0, "ENCUTLF": -1.0, "LESF_SPLINES": false, "LMAXMP2": -1, "SCISSOR": 0.0, "NOMEGA": 0, "NOMEGAR": 0, "NBANDSGW": -1, "NBANDSO": -1, "NBANDSV": -1, "NELMGW": 1, "NELMHF": 1, "DIM": 3, "IESPILON": 4, "ANTIRES": 0, "OMEGAMIN": -30.0, "OMEGATL": -200.0, "OMEGAGRID": 0, "LSELFENERGY": false, "LSPECTRAL": false, "LSPECTRALGW": false, "LSINGLES": false, "LFERMIGW": false, "ODDONLYGW": false, "EVENONLYGW": false, "NKREDLFX": 1, "NKREDLFY": 1, "NKREDLFZ": 1, "MAXMEM": 2800, "TELESCOPE": 0, "NTAUPAR": -1, "NOMEGAPAR": -1, "DAMP_NEWTON": 0.80000001, "LAMBDA": 1.0, "OFIELD_KAPPA": 0.0, "OFIELD_K": [0.0, 0.0, 0.0], "OFIELD_Q6_NEAR": 0.0, "OFIELD_Q6_FAR": 0.0, "OFIELD_A": 0.0, "KPOINTS_OPT_MODE": 1, "LKPOINTS_OPT": false, "@module": "pymatgen.io.vasp.inputs", "@class": "Incar"}, "relaxed_structures": {"@module": "pymatgen.core.structure", "@class": "Structure", "charge": 0, "lattice": {"matrix": [[9.272956, 0.0, 0.0], [0.0, 9.159371, 0.0], [0.0, 0.0, 52.674417]], "a": 9.272956, "b": 9.159371, "c": 52.674417, "alpha": 90.0, "beta": 90.0, "gamma": 90.0, "volume": 4473.8723351768485}, "sites": [{"species": [{"element": "Na", "occu": 1}], "abc": [0.71320317, 0.69781865, 0.009125329999999997], "xyz": [6.61350161447052, 6.39157990606915, 0.48067143768260984], "label": "Na", "properties": {}}, {"species": [{"element": "Na", "occu": 1}], "abc": [0.21282592, 0.04768162, 0.009117110000000001], "xyz": [1.9735253918195201, 0.43673364746102, 0.48023845397487], "label": "Na", "properties": {}}, {"species": [{"element": "Na", "occu": 1}], "abc": [0.60771675, 0.46898136, 0.060078259999999994], "xyz": [5.635330683213001, 4.29557426832456, 3.1645873198744194], "label": "Na", "properties": {}}, {"species": [{"element": "Na", "occu": 1}], "abc": [0.10782414, 0.27614819, 0.06010322], "xyz": [0.99984850595784, 2.5293437231884903, 3.16590207332274], "label": "Na", "properties": {}}, {"species": [{"element": "Na", "occu": 1}], "abc": [0.232401, 0.23801498, 0.14221758], "xyz": [2.1550442473560003, 2.18006750537758, 7.491228113650861], "label": "Na", "properties": {}}, {"species": [{"element": "Na", "occu": 1}], "abc": [0.94160454, 0.99106543, 0.10697842], "xyz": [8.73145746882024, 9.07753595864453, 5.63502590508114], "label": "Na", "properties": {}}, {"species": [{"element": "Na", "occu": 1}], "abc": [0.44065831, 0.75437442, 0.10694263999999999], "xyz": [4.08620511966436, 6.90959518568982, 5.6331412144408795], "label": "Na", "properties": {}}, {"species": [{"element": "Na", "occu": 1}], "abc": [0.73217658, 0.50728445, 0.14217601000000002], "xyz": [6.78944121057048, 4.64640648008095, 7.489038438136171], "label": "Na", "properties": {}}, {"species": [{"element": "Na", "occu": 1}], "abc": [0.07194984, 0.97871088, 0.18709871], "xyz": [0.66718770052704, 8.96437605165648, 9.85531547070207], "label": "Na", "properties": {}}, {"species": [{"element": "Na", "occu": 1}], "abc": [0.57185257, 0.76630535, 0.18712503], "xyz": [5.30276372009692, 7.01887499993485, 9.856701861357509], "label": "Na", "properties": {}}, {"species": [{"element": "Na", "occu": 1}], "abc": [0.70121097, 0.75370065, 0.26732571], "xyz": [6.50229847152732, 6.90342387629115, 14.08122592336107], "label": "Na", "properties": {}}, {"species": [{"element": "Na", "occu": 1}], "abc": [0.41087788, 0.50679658, 0.23211829000000003], "xyz": [3.81005250261328, 4.6419378977511805, 12.22669560078693], "label": "Na", "properties": {}}, {"species": [{"element": "Na", "occu": 1}], "abc": [0.91106142, 0.23802468, 0.23213356], "xyz": [8.44823246095752, 2.18015635127628, 12.22749993913452], "label": "Na", "properties": {}}, {"species": [{"element": "Na", "occu": 1}], "abc": [0.20107951, 0.99188038, 0.26731884], "xyz": [1.86460144873156, 9.08500038804098, 14.08086405011628], "label": "Na", "properties": {}}, {"species": [{"element": "Na", "occu": 1}], "abc": [0.53592938, 0.46900812, 0.31437963999999996], "xyz": [4.96964955984728, 4.29581937309252, 16.559764253669876], "label": "Na", "properties": {}}, {"species": [{"element": "Na", "occu": 1}], "abc": [0.03619742, 0.27615533, 0.31434704999999996], "xyz": [0.33565708297352004, 2.5294091210974297, 16.558047594419847], "label": "Na", "properties": {}}, {"species": [{"element": "Na", "occu": 1}], "abc": [0.93114669, 0.04621577, 0.36528675], "xyz": [8.634482285915642, 0.42330738348067004, 19.241266594074748], "label": "Na", "properties": {}}, {"species": [{"element": "Na", "occu": 1}], "abc": [0.43105205, 0.69925442, 0.36533698], "xyz": [3.9971266933598004, 6.4047306561698205, 19.24391243004066], "label": "Na", "properties": {}}, {"species": [{"element": "Zr", "occu": 1}], "abc": [0.30781943, 0.60368073, 0.040151969999999995], "xyz": [2.85439603033508, 5.52933577162083, 2.1149816111514896], "label": "Zr", "properties": {}}, {"species": [{"element": "Zr", "occu": 1}], "abc": [0.38511901, 0.12682623, 0.08601877999999999], "xyz": [3.57119163449356, 1.1616484931013302, 4.5309890875512595], "label": "Zr", "properties": {}}, {"species": [{"element": "Zr", "occu": 1}], "abc": [0.88486539, 0.61841931, 0.08600484], "xyz": [8.20531782739284, 5.664331893854011, 4.53025480617828], "label": "Zr", "properties": {}}, {"species": [{"element": "Zr", "occu": 1}], "abc": [0.80790985, 0.14178283, 0.040107519999999994], "xyz": [7.491712491016601, 1.29864154139993, 2.1126402333158394], "label": "Zr", "properties": {}}, {"species": [{"element": "Zr", "occu": 1}], "abc": [0.78437085, 0.11820037, 0.16233589], "xyz": [7.2734363797326, 1.08264104116727, 8.55094836392613], "label": "Zr", "properties": {}}, {"species": [{"element": "Zr", "occu": 1}], "abc": [0.85932581, 0.62687439, 0.21200338000000002], "xyz": [7.96849042579436, 5.7417751084086905, 11.16715444352946], "label": "Zr", "properties": {}}, {"species": [{"element": "Zr", "occu": 1}], "abc": [0.3594393, 0.11825524, 0.21200107], "xyz": [3.3330648135708003, 1.08314361585404, 11.16703276562619], "label": "Zr", "properties": {}}, {"species": [{"element": "Zr", "occu": 1}], "abc": [0.28427791, 0.62700103, 0.16235267], "xyz": [2.6360965512019603, 5.74293505115213, 8.55183224064339], "label": "Zr", "properties": {}}, {"species": [{"element": "Zr", "occu": 1}], "abc": [0.25920107, 0.61840787, 0.28827102], "xyz": [2.40356011726292, 5.66422711064977, 15.184507916495338], "label": "Zr", "properties": {}}, {"species": [{"element": "Zr", "occu": 1}], "abc": [0.33664736, 0.14137446, 0.33424358], "xyz": [3.12171615679616, 1.2949011290646602, 17.60608571249286], "label": "Zr", "properties": {}}, {"species": [{"element": "Zr", "occu": 1}], "abc": [0.83661531, 0.60323128, 0.33425634], "xyz": [7.75789695855636, 5.52521909232488, 17.606757838053777], "label": "Zr", "properties": {}}, {"species": [{"element": "Zr", "occu": 1}], "abc": [0.75924553, 0.12656415, 0.28834388], "xyz": [7.04045039288668, 1.1592480051496499, 15.188345774517959], "label": "Zr", "properties": {}}, {"species": [{"element": "Si", "occu": 1}], "abc": [0.94880633, 0.48159428, 0.02474591], "xyz": [8.798239350611482, 4.41110068199788, 1.30347638238447], "label": "Si", "properties": {}}, {"species": [{"element": "Si", "occu": 1}], "abc": [0.44886192, 0.26391331, 0.02474248], "xyz": [4.16227683423552, 2.4172799181280102, 1.30329570913416], "label": "Si", "properties": {}}, {"species": [{"element": "Si", "occu": 1}], "abc": [0.42670636, 0.98294753, 0.15133262], "xyz": [3.9568293012001603, 9.00318110080363, 7.97135753158254], "label": "Si", "properties": {}}, {"species": [{"element": "Si", "occu": 1}], "abc": [0.74035648, 0.26512792, 0.09901368], "xyz": [6.865293063354881, 2.42840498173832, 5.21548786902456], "label": "Si", "properties": {}}, {"species": [{"element": "Si", "occu": 1}], "abc": [0.23989997, 0.47973349, 0.09901449999999999], "xyz": [2.22458186621132, 4.39405701603479, 5.215531062046499], "label": "Si", "properties": {}}, {"species": [{"element": "Si", "occu": 1}], "abc": [0.92662237, 0.76226022, 0.15136962], "xyz": [8.59252846562572, 6.981824153521621, 7.97330648501154], "label": "Si", "properties": {}}, {"species": [{"element": "Si", "occu": 1}], "abc": [0.9039627, 0.47967655, 0.27529701], "xyz": [8.3824063427412, 4.39353548145005, 14.50110950359317], "label": "Si", "properties": {}}, {"species": [{"element": "Si", "occu": 1}], "abc": [0.21701056, 0.76246772, 0.22297574], "xyz": [2.01232937441536, 6.98372472300412, 11.74511710964358], "label": "Si", "properties": {}}, {"species": [{"element": "Si", "occu": 1}], "abc": [0.71700892, 0.98282956, 0.22298210999999998], "xyz": [6.648792166767521, 9.00210056980676, 11.745452645679869], "label": "Si", "properties": {}}, {"species": [{"element": "Si", "occu": 1}], "abc": [0.40411444, 0.26518919, 0.27532635], "xyz": [3.7473354210846406, 2.42896617639949, 14.50265497098795], "label": "Si", "properties": {}}, {"species": [{"element": "Si", "occu": 1}], "abc": [0.69568434, 0.2637316, 0.34960894], "xyz": [6.451050274709041, 2.4156155688236, 18.415447092487977], "label": "Si", "properties": {}}, {"species": [{"element": "Si", "occu": 1}], "abc": [0.19576128, 0.48136439, 0.34956093], "xyz": [1.8152857359436803, 4.40899503419869, 18.41291819372781], "label": "Si", "properties": {}}, {"species": [{"element": "P", "occu": 1}], "abc": [0.59811982, 0.83463347, 0.05813857], "xyz": [5.54633877358792, 7.64471760074737, 3.06241527996369], "label": "P", "properties": {}}, {"species": [{"element": "P", "occu": 1}], "abc": [0.09797732, 0.91074937, 0.058130749999999995], "xyz": [0.9085393773579201, 8.34189136784627, 3.0620033660227497], "label": "P", "properties": {}}, {"species": [{"element": "P", "occu": 1}], "abc": [0.07192605, 0.33092886, 0.18718701000000001], "xyz": [0.6669670969038001, 3.03110020334706, 9.85996662172317], "label": "P", "properties": {}}, {"species": [{"element": "P", "occu": 1}], "abc": [0.57195918, 0.41420094, 0.18715607], "xyz": [5.303752309936081, 3.79382007800874, 9.85833687526119], "label": "P", "properties": {}}, {"species": [{"element": "P", "occu": 1}], "abc": [0.54646406, 0.83419999, 0.31634793], "xyz": [5.067337183961361, 7.6407471966062905, 16.66344278190681], "label": "P", "properties": {}}, {"species": [{"element": "P", "occu": 1}], "abc": [0.04660209, 0.91035708, 0.31630226], "xyz": [0.43213913007804, 8.33829823819668, 16.66103714128242], "label": "P", "properties": {}}, {"species": [{"element": "O", "occu": 1}], "abc": [0.85672647, 0.53613964, 0.05057492999999999], "xyz": [7.944386860345321, 4.910701870566441, 2.6640049525658096], "label": "O", "properties": {}}, {"species": [{"element": "O", "occu": 1}], "abc": [0.84241256, 0.18820382, 0.07648378], "xyz": [7.81165460272736, 1.72382861099722, 4.02873852145626], "label": "O", "properties": {}}, {"species": [{"element": "O", "occu": 1}], "abc": [0.34220881, 0.55676785, 0.07652073999999999], "xyz": [3.17328723794236, 5.0996432990223495, 4.030685367908579], "label": "O", "properties": {}}, {"species": [{"element": "O", "occu": 1}], "abc": [0.35747019, 0.20969901, 0.05064202999999999], "xyz": [3.31480534318164, 1.92071103092271, 2.6675394059465094], "label": "O", "properties": {}}, {"species": [{"element": "O", "occu": 1}], "abc": [0.20657965, 0.8189319, 0.04230579999999999], "xyz": [1.9156040049454002, 7.500901095834901, 2.2284333507185994], "label": "O", "properties": {}}, {"species": [{"element": "O", "occu": 1}], "abc": [0.49083843, 0.93087156, 0.07330098], "xyz": [4.551523164499081, 8.526197971388761, 3.86108638702866], "label": "O", "properties": {}}, {"species": [{"element": "O", "occu": 1}], "abc": [0.99110079, 0.81439688, 0.07336153999999999], "xyz": [9.19043401723524, 7.45936316516248, 3.8642763497221795], "label": "O", "properties": {}}, {"species": [{"element": "O", "occu": 1}], "abc": [0.70664598, 0.9266403, 0.04232672999999999], "xyz": [6.5526970801168805, 8.4874422912513, 2.2295358262664093], "label": "O", "properties": {}}, {"species": [{"element": "O", "occu": 1}], "abc": [0.51510103, 0.73294771, 0.03925698999999999], "xyz": [4.77650918674468, 6.713339999490411, 2.0678390614248294], "label": "O", "properties": {}}, {"species": [{"element": "O", "occu": 1}], "abc": [0.1758623, 0.00911617, 0.07801019], "xyz": [1.6307633699588, 0.08349838312907, 4.109141278309229], "label": "O", "properties": {}}, {"species": [{"element": "O", "occu": 1}], "abc": [0.67604452, 0.73674231, 0.07808024999999999], "xyz": [6.26893108800112, 6.748096148687011, 4.112831647964249], "label": "O", "properties": {}}, {"species": [{"element": "O", "occu": 1}], "abc": [0.01466279, 0.0120763, 0.039230669999999995], "xyz": [0.13596740650724, 0.1106113120073, 2.0664526707693898], "label": "O", "properties": {}}, {"species": [{"element": "O", "occu": 1}], "abc": [0.12399846, 0.50755525, 0.032923209999999994], "xyz": [1.14983226364776, 4.64888683774775, 1.7342108925185697], "label": "O", "properties": {}}, {"species": [{"element": "O", "occu": 1}], "abc": [0.57279528, 0.23041811, 0.09191519999999999], "xyz": [5.31150542844768, 2.1104849546088102, 4.841579573438399], "label": "O", "properties": {}}, {"species": [{"element": "O", "occu": 1}], "abc": [0.07241875, 0.51398093, 0.0917631], "xyz": [0.671535882325, 4.70774202479503, 4.8335677946127], "label": "O", "properties": {}}, {"species": [{"element": "O", "occu": 1}], "abc": [0.62422077, 0.23834868, 0.03285834], "xyz": [5.7883717344961205, 2.18312398748028, 1.73079390308778], "label": "O", "properties": {}}, {"species": [{"element": "O", "occu": 1}], "abc": [0.43411541, 0.44813375, 0.02573629], "xyz": [4.02553309585196, 4.10462327387125, 1.3556440714929299], "label": "O", "properties": {}}, {"species": [{"element": "O", "occu": 1}], "abc": [0.9345591, 0.29731621, 0.02576574], "xyz": [8.6661254136996, 2.72322947170391, 1.35719533307358], "label": "O", "properties": {}}, {"species": [{"element": "O", "occu": 1}], "abc": [0.89744934, 0.56310596, 9.99999999999994e-05], "xyz": [8.32200824204904, 5.15769639995116, 0.005267441699999968], "label": "O", "properties": {}}, {"species": [{"element": "O", "occu": 1}], "abc": [0.39723144, 0.18228539, 0.00013251999999999708], "xyz": [3.6835096649366403, 1.66961951488969, 0.0069804137408398465], "label": "O", "properties": {}}, {"species": [{"element": "O", "occu": 1}], "abc": [0.32646331, 0.06206141, 0.17318649], "xyz": [3.0272799092443603, 0.56844347897311, 9.122497393026329], "label": "O", "properties": {}}, {"species": [{"element": "O", "occu": 1}], "abc": [0.31742049, 0.6837903, 0.20110785], "xyz": [2.94342623726844, 6.263089043901299, 10.59323875287345], "label": "O", "properties": {}}, {"species": [{"element": "O", "occu": 1}], "abc": [0.81729299, 0.06190692, 0.20113811], "xyz": [7.57872193537844, 0.56702844774732, 10.59483268073187], "label": "O", "properties": {}}, {"species": [{"element": "O", "occu": 1}], "abc": [0.82606767, 0.68360505, 0.17320816], "xyz": [7.6600891569325205, 6.261392270423551, 9.12363884764272], "label": "O", "properties": {}}, {"species": [{"element": "O", "occu": 1}], "abc": [0.6836104, 0.31980988, 0.17282883000000002], "xyz": [6.3390891603424, 2.92925734038548, 9.10365786104211], "label": "O", "properties": {}}, {"species": [{"element": "O", "occu": 1}], "abc": [0.9601343, 0.42536921, 0.20146365000000002], "xyz": [8.903283117990801, 3.89611440636691, 10.611980310442052], "label": "O", "properties": {}}, {"species": [{"element": "O", "occu": 1}], "abc": [0.46049709, 0.31979748, 0.20152148], "xyz": [4.2701692536980405, 2.9291437641850804, 10.61502647197716], "label": "O", "properties": {}}, {"species": [{"element": "O", "occu": 1}], "abc": [0.18354522, 0.42543129, 0.17287751], "xyz": [1.7020067490703201, 3.8966830201185902, 9.106222051661671], "label": "O", "properties": {}}, {"species": [{"element": "O", "occu": 1}], "abc": [0.99741314, 0.23151098, 0.16720811000000002], "xyz": [9.24896816104184, 2.12049495639358, 8.807589711921871], "label": "O", "properties": {}}, {"species": [{"element": "O", "occu": 1}], "abc": [0.64665973, 0.5136269, 0.20710335000000002], "xyz": [5.99644722326188, 4.7044993326799, 10.90904821999695], "label": "O", "properties": {}}, {"species": [{"element": "O", "occu": 1}], "abc": [0.14666017, 0.23182667, 0.20717898], "xyz": [1.35997330336252, 2.12338647822457, 10.91303198615466], "label": "O", "properties": {}}, {"species": [{"element": "O", "occu": 1}], "abc": [0.4969815, 0.51313776, 0.16716572000000002], "xyz": [4.608487582314001, 4.70001911794896, 8.80535684338524], "label": "O", "properties": {}}, {"species": [{"element": "O", "occu": 1}], "abc": [0.59751364, 0.01403613, 0.15791071], "xyz": [5.54071769311984, 0.12856212207423, 8.317854587306071], "label": "O", "properties": {}}, {"species": [{"element": "O", "occu": 1}], "abc": [0.04628701, 0.73095219, 0.21641081], "xyz": [0.4292174071015601, 6.69506229147249, 11.39931324924777], "label": "O", "properties": {}}, {"species": [{"element": "O", "occu": 1}], "abc": [0.54630657, 0.01404763, 0.21635700000000002], "xyz": [5.065876786120921, 0.12866745484073, 11.396478838869001], "label": "O", "properties": {}}, {"species": [{"element": "O", "occu": 1}], "abc": [0.09730392, 0.73114464, 0.15801579000000002], "xyz": [0.9022949687875201, 6.69682501242144, 8.32338961504443], "label": "O", "properties": {}}, {"species": [{"element": "O", "occu": 1}], "abc": [0.91022096, 0.94161578, 0.15176391], "xyz": [8.44043891235776, 8.62460826847438, 7.99407548089047], "label": "O", "properties": {}}, {"species": [{"element": "O", "occu": 1}], "abc": [0.25810171, 0.30168195, 0.09944092], "xyz": [2.39336580035476, 2.7632169040534498, 5.23799248694364], "label": "O", "properties": {}}, {"species": [{"element": "O", "occu": 1}], "abc": [0.75802739, 0.4433019, 0.09937206], "xyz": [7.02915463426484, 4.0603665671049, 5.234365326589019], "label": "O", "properties": {}}, {"species": [{"element": "O", "occu": 1}], "abc": [0.41013027, 0.80359641, 0.15178093], "xyz": [3.8031199479781206, 7.360437653458111, 7.99497199946781], "label": "O", "properties": {}}, {"species": [{"element": "O", "occu": 1}], "abc": [0.79506684, 0.19220859, 0.12540243], "xyz": [7.372619824379041, 1.76050978519689, 6.60549989063331], "label": "O", "properties": {}}, {"species": [{"element": "O", "occu": 1}], "abc": [0.3779955, 0.04118824, 0.12325984999999999], "xyz": [3.505135639698, 0.37725837099704, 6.49264073825745], "label": "O", "properties": {}}, {"species": [{"element": "O", "occu": 1}], "abc": [0.87847241, 0.70356375, 0.12327918], "xyz": [8.14603600514396, 6.44420140840125, 6.49365893473806], "label": "O", "properties": {}}, {"species": [{"element": "O", "occu": 1}], "abc": [0.29413748, 0.55301184, 0.12540888], "xyz": [2.72752390999088, 5.065240609952641, 6.60583964062296], "label": "O", "properties": {}}, {"species": [{"element": "O", "occu": 1}], "abc": [0.80228295, 0.55661711, 0.29788207], "xyz": [7.439534494900201, 5.09826261543781, 15.690764372003189], "label": "O", "properties": {}}, {"species": [{"element": "O", "occu": 1}], "abc": [0.78708013, 0.21003299, 0.32367482999999997], "xyz": [7.298559413964281, 1.92377007764929, 17.04938296782411], "label": "O", "properties": {}}, {"species": [{"element": "O", "occu": 1}], "abc": [0.28680899, 0.53542539, 0.32363099], "xyz": [2.65956714467444, 4.9041597898296905, 17.04707372138283], "label": "O", "properties": {}}, {"species": [{"element": "O", "occu": 1}], "abc": [0.30218516, 0.18813788, 0.29786988999999997], "xyz": [2.8021496925329603, 1.72322464207348, 15.690122797604127], "label": "O", "properties": {}}, {"species": [{"element": "O", "occu": 1}], "abc": [0.15343607, 0.81423787, 0.30101929], "xyz": [1.4228059259229202, 7.457906733579771, 15.856015606503929], "label": "O", "properties": {}}, {"species": [{"element": "O", "occu": 1}], "abc": [0.43779937, 0.92586079, 0.33221333999999997], "xyz": [4.059694294837721, 8.48030246996309, 17.499144004122776], "label": "O", "properties": {}}, {"species": [{"element": "O", "occu": 1}], "abc": [0.93813303, 0.81839469, 0.33213360999999997], "xyz": [8.69926630933668, 7.49598059013999, 17.494944272855367], "label": "O", "properties": {}}, {"species": [{"element": "O", "occu": 1}], "abc": [0.65330614, 0.93080869, 0.30115485], "xyz": [6.05807909074984, 8.52562212173399, 15.863156150472449], "label": "O", "properties": {}}, {"species": [{"element": "O", "occu": 1}], "abc": [0.46863343, 0.73610858, 0.29641884999999996], "xyz": [4.34561717651908, 6.7422915805031804, 15.613690111560446], "label": "O", "properties": {}}, {"species": [{"element": "O", "occu": 1}], "abc": [0.12993403, 0.01158954, 0.33521308], "xyz": [1.20487254309268, 0.10615289657934, 17.657153559774358], "label": "O", "properties": {}}, {"species": [{"element": "O", "occu": 1}], "abc": [0.62978616, 0.73279342, 0.33523566], "xyz": [5.83997935108896, 6.71192680013882, 17.658342948110217], "label": "O", "properties": {}}, {"species": [{"element": "O", "occu": 1}], "abc": [0.96849508, 0.00874415, 0.29644339], "xyz": [8.98081226305648, 0.08009091392965, 15.614982741753629], "label": "O", "properties": {}}, {"species": [{"element": "O", "occu": 1}], "abc": [0.07167373, 0.51451479, 0.28233118999999995], "xyz": [0.6646273446458801, 4.71263184659709, 14.871630834166227], "label": "O", "properties": {}}, {"species": [{"element": "O", "occu": 1}], "abc": [0.52046238, 0.23762485, 0.34147877], "xyz": [4.826224749395281, 2.17649415996935, 17.98719512762709], "label": "O", "properties": {}}, {"species": [{"element": "O", "occu": 1}], "abc": [0.02037513, 0.50679709, 0.3414925], "xyz": [0.18893768398428004, 4.641942569030389, 17.9879183473725], "label": "O", "properties": {}}, {"species": [{"element": "O", "occu": 1}], "abc": [0.57169961, 0.23043834, 0.28244704], "xyz": [5.301345328747161, 2.1106702486841398, 14.877733165375679], "label": "O", "properties": {}}, {"species": [{"element": "O", "occu": 1}], "abc": [0.38636163, 0.44334146, 0.27494187], "xyz": [3.5827143950782805, 4.06072891182166, 14.482402711139787], "label": "O", "properties": {}}, {"species": [{"element": "O", "occu": 1}], "abc": [0.73339348, 0.80347643, 0.22255032], "xyz": [6.8007254707268805, 7.35933871212553, 11.72270835916344], "label": "O", "properties": {}}, {"species": [{"element": "O", "occu": 1}], "abc": [0.2332455, 0.94183342, 0.22255786000000002], "xyz": [2.162875258698, 8.62660171397882, 11.723105524267622], "label": "O", "properties": {}}, {"species": [{"element": "O", "occu": 1}], "abc": [0.88637522, 0.3015204, 0.27492249999999996], "xyz": [8.21931841455032, 2.7617372076684004, 14.481382407682498], "label": "O", "properties": {}}, {"species": [{"element": "O", "occu": 1}], "abc": [0.26594264, 0.70387589, 0.25101924999999997], "xyz": [2.46607439924384, 6.44706041446519, 13.222292649527247], "label": "O", "properties": {}}, {"species": [{"element": "O", "occu": 1}], "abc": [0.84885856, 0.55252192, 0.2489236], "xyz": [7.871428077103361, 5.06075325091232, 13.111905507541199], "label": "O", "properties": {}}, {"species": [{"element": "O", "occu": 1}], "abc": [0.34923124, 0.19253689, 0.24892747], "xyz": [3.2384059223454402, 1.76351680669619, 13.11210935753499], "label": "O", "properties": {}}, {"species": [{"element": "O", "occu": 1}], "abc": [0.76574611, 0.04110157, 0.25106673999999995], "xyz": [7.100729985201161, 0.37646452831246996, 13.224794157590576], "label": "O", "properties": {}}, {"species": [{"element": "O", "occu": 1}], "abc": [0.2105406, 0.29710855, 0.34863636], "xyz": [1.9523337200136002, 2.72132743672205, 18.364217008002118], "label": "O", "properties": {}}, {"species": [{"element": "O", "occu": 1}], "abc": [0.71005969, 0.44793979, 0.34868269999999996], "xyz": [6.584352262743641, 4.10284672227209, 18.366657940485897], "label": "O", "properties": {}}, {"species": [{"element": "O", "occu": 1}], "abc": [0.74756736, 0.18186429, 0.37418331], "xyz": [6.932159236316161, 1.6657625037615902, 19.709887705380268], "label": "O", "properties": {}}, {"species": [{"element": "O", "occu": 1}], "abc": [0.24762167, 0.56334992, 0.37412399999999996], "xyz": [2.29618485055652, 5.15993092010032, 19.706763585707996], "label": "O", "properties": {}}]}, "formula": "(Na3Zr2Si2PO12)6.0", "bandgap": 3.2994999999999997, "slab_thickness": 19.70462026368027}