{"miller": "110_0.21", "final_energy": -930.32668367, "gamma": 0.054489223755829215, "work_function": "Not calculated", "ionization_potentail": "Not calculated", "electron_affinity": "Not calculated", "is_stochiometric": false, "incar_parameters": {"SYSTEM": "unknown system", "LCOMPAT": false, "PREC": "normal", "ENMAX": 520.0, "ENAUG": 605.392, "EDIFF": 1e-05, "IALGO": 38, "IWAVPR": 11, "NBANDS": 672, "NBANDSLOW": -1, "NBANDSHIGH": -1, "NELECT": 820.0, "TURBO": 0, "IRESTART": 0, "NREBOOT": 0, "NMIN": 0, "EREF": 0.0, "ISMEAR": 0, "SIGMA": 0.05, "KSPACING": 0.5, "KGAMMA": true, "KBLOWUP": true, "LREAL": true, "ROPT": [-0.0005, -0.0005, -0.0005, -0.0005, -0.0005], "LMAXPAW": -100, "LMAXMIX": 4, "NLSPLINE": false, "ISTART": 0, "ICHARG": 2, "INIWAV": 1, "ISPIN": 1, "LNONCOLLINEAR": false, "MAGMOM": [0.6, 0.6, 0.6, 0.6, 0.6, 0.6, 0.6, 0.6, 0.6, 0.6, 0.6, 0.6, 0.6, 0.6, 0.6, 0.6, 0.6, 0.6, 0.6, 0.6, 0.6, 0.6, 0.6, 0.6, 0.6, 0.6, 0.6, 0.6, 0.6, 0.6, 0.6, 0.6, 0.6, 0.6, 0.6, 0.6, 0.6, 0.6, 0.6, 0.6, 0.6, 0.6, 0.6, 0.6, 0.6, 0.6, 0.6, 0.6, 0.6, 0.6, 0.6, 0.6, 0.6, 0.6, 0.6, 0.6, 0.6, 0.6, 0.6, 0.6, 0.6, 0.6, 0.6, 0.6, 0.6, 0.6, 0.6, 0.6, 0.6, 0.6, 0.6, 0.6, 0.6, 0.6, 0.6, 0.6, 0.6, 0.6, 0.6, 0.6, 0.6, 0.6, 0.6, 0.6, 0.6, 0.6, 0.6, 0.6, 0.6, 0.6, 0.6, 0.6, 0.6, 0.6, 0.6, 0.6, 0.6, 0.6, 0.6, 0.6, 0.6, 0.6, 0.6, 0.6, 0.6, 0.6, 0.6, 0.6, 0.6, 0.6, 0.6, 0.6, 0.6, 0.6, 0.6, 0.6, 0.6, 0.6, 0.6, 0.6, 0.6, 0.6, 0.6, 0.6, 0.6, 0.6], "NUPDOWN": -1.0, "LSORBIT": false, "SAXIS": [0.0, 0.0, 1.0], "LSPIRAL": false, "QSPIRAL": [0.0, 0.0, 0.0], "LZEROZ": false, "LASPH": false, "LMETAGGA": false, "NELM": 100, "NELMDL": -5, "NELMIN": 6, "ENINI": 520.0, "LDIAG": true, "LSUBROT": false, "WEIMIN": 0.001, "EBREAK": 0.0, "DEPER": 0.3, "NRMM": 4, "TIME": 0.4, "AMIX": 0.4, "BMIX": 1.0, "AMIN": 0.1, "AMIX_MAG": 1.6, "BMIX_MAG": 1.0, "IMIX": 4, "MIXFIRST": false, "MAXMIX": -45, "WC": 100.0, "INIMIX": 1, "MIXPRE": 1, "MREMOVE": 5, "LDIPOL": false, "LMONO": false, "IDIPOL": 0, "EPSILON": 1.0, "DIPOL": [-100.0, -100.0, -100.0], "EFIELD": 0.0, "NGX": 54, "NGY": 54, "NGZ": 256, "NGXF": 108, "NGYF": 108, "NGZF": 512, "ADDGRID": false, "NSW": 150, "IBRION": 2, "MDALGO": 0, "ISIF": 2, "PSTRESS": 0.0, "EDIFFG": -0.01, "NFREE": 1, "POTIM": 0.5, "SMASS": -3.0, "SCALEE": 1.0, "TEBEG": 0.0001, "TEEND": 0.0001, "NBLOCK": 1, "KBLOCK": 150, "NPACO": 256, "APACO": 10.0, "ISYM": 0, "SYMPREC": 1e-05, "LORBIT": 11, "RWIGS": [-1.0, -1.0, -1.0, -1.0, -1.0], "NEDOS": 301, "EMIN": 10.0, "EMAX": -10.0, "EFERMI": 0.0, "NWRITE": 2, "LWAVE": false, "LDOWNSAMPLE": false, "LCHARG": false, "LPARD": false, "LVTOT": false, "LVHAR": false, "LELF": false, "LOPTICS": false, "STM": [0.0, 0.0, 0.0, 0.0, 0.0, 0.0, 0.0], "NPAR": 224, "NSIM": 4, "NBLK": -1, "LPLANE": true, "LSCALAPACK": true, "LSCAAWARE": true, "LSCALU": false, "LASYNC": false, "LORBITALREAL": false, "IDIOT": 3, "PHON_NSTRUCT": -1, "LMUSIC": false, "POMASS": [22.99, 91.224, 28.085, 30.974, 16.0], "DARWINR": [0.0, 0.0, 0.0, 0.0, 0.0], "DARWINV": [1.0, 1.0, 1.0, 1.0, 1.0], "LCORR": true, "GGA_COMPAT": true, "LBERRY": false, "ICORELEVEL": 0, "LDAU": false, "I_CONSTRAINED_M": 0, "GGA": "--", "VOSKOWN": 0, "LHFCALC": false, "PRECFOCK": "", "LSYMGRAD": false, "LHFONE": false, "LRHFCALC": false, "LTHOMAS": false, "LMODELHF": false, "LFOCKACE": false, "ENCUT4O": -1.0, "EXXOEP": 0, "FOURORBIT": 0, "AEXX": 0.0, "HFALPHA": 0.0, "MCALPHA": 0.0, "ALDAX": 1.0, "AGGAX": 1.0, "ALDAC": 1.0, "AGGAC": 1.0, "NKREDX": 1, "NKREDY": 1, "NKREDZ": 1, "SHIFTRED": false, "ODDONLY": false, "EVENONLY": false, "LMAXFOCK": 0, "NMAXFOCKAE": 0, "LFOCKAEDFT": false, "HFSCREEN": 0.0, "HFSCREENC": 0.0, "NBANDSGWLOW": 0, "LUSE_VDW": false, "Zab_VDW": -0.8491, "PARAM1": 0.1234, "PARAM2": 1.0, "PARAM3": 0.0, "MODEL_GW": 0, "MODEL_EPS0": 17.85536402, "MODEL_ALPHA": 1.0, "LEPSILON": false, "LRPA": false, "LNABLA": false, "LVEL": false, "CSHIFT": 0.1, "OMEGAMAX": -1.0, "DEG_THRESHOLD": 0.002, "RTIME": -0.1, "WPLASMAI": 0.0, "DFIELD": [0.0, 0.0, 0.0], "WPLASMA": [0.0, 0.0, 0.0, 0.0, 0.0, 0.0, 0.0, 0.0, 0.0], "NUCIND": false, "MAGPOS": [0.0, 0.0, 0.0], "LNICSALL": true, "ORBITALMAG": false, "LMAGBLOCH": false, "LCHIMAG": false, "LGAUGE": true, "MAGATOM": 0, "MAGDIPOL": [0.0, 0.0, 0.0], "AVECCONST": [0.0, 0.0, 0.0], "LFINITE_TEMPERATURE": false, "LADDER": false, "LRPAFORCE": false, "LFXC": false, "LHARTREE": true, "IBSE": 0, "KPOINT": [-1, 0, 0, 0], "LTCTC": false, "LTCTE": false, "LTETE": false, "LTRIPLET": false, "LFXCEPS": false, "LFXHEG": false, "NATURALO": 2, "LHOLEGF": false, "L2ORDER": false, "LDMP1": false, "LMP2LT": false, "LSMP2LT": false, "LGWLF": false, "ENCUTGW": -2.0, "ENCUTGWSOFT": -2.0, "ENCUTLF": -1.0, "LESF_SPLINES": false, "LMAXMP2": -1, "SCISSOR": 0.0, "NOMEGA": 0, "NOMEGAR": 0, "NBANDSGW": -1, "NBANDSO": -1, "NBANDSV": -1, "NELMGW": 1, "NELMHF": 1, "DIM": 3, "IESPILON": 4, "ANTIRES": 0, "OMEGAMIN": -30.0, "OMEGATL": -200.0, "OMEGAGRID": 0, "LSELFENERGY": false, "LSPECTRAL": false, "LSPECTRALGW": false, "LSINGLES": false, "LFERMIGW": false, "ODDONLYGW": false, "EVENONLYGW": false, "NKREDLFX": 1, "NKREDLFY": 1, "NKREDLFZ": 1, "MAXMEM": 2800, "TELESCOPE": 0, "NTAUPAR": -1, "NOMEGAPAR": -1, "DAMP_NEWTON": 0.80000001, "LAMBDA": 1.0, "OFIELD_KAPPA": 0.0, "OFIELD_K": [0.0, 0.0, 0.0], "OFIELD_Q6_NEAR": 0.0, "OFIELD_Q6_FAR": 0.0, "OFIELD_A": 0.0, "KPOINTS_OPT_MODE": 1, "LKPOINTS_OPT": false, "@module": "pymatgen.io.vasp.inputs", "@class": "Incar"}, "relaxed_structures": {"@module": "pymatgen.core.structure", "@class": "Structure", "charge": 0, "lattice": {"matrix": [[9.075143, 0.0, 0.0], [0.0, 9.068488, 0.0], [0.0, 0.0, 45.561671]], "a": 9.075143, "b": 9.068488, "c": 45.561671, "alpha": 90.0, "beta": 90.0, "gamma": 90.0, "volume": 3749.626444607032}, "sites": [{"species": [{"element": "Na", "occu": 1}], "abc": [0.85662785, 0.83001398, 0.011388200000000001], "xyz": [7.77402023653255, 7.526971817462241, 0.5188654216822001], "label": "Na", "properties": {}}, {"species": [{"element": "Na", "occu": 1}], "abc": [0.68277375, 0.4460068, 0.00010000000000000286], "xyz": [6.19626941789625, 4.0446073137184, 0.00455616710000013], "label": "Na", "properties": {}}, {"species": [{"element": "Na", "occu": 1}], "abc": [0.11367567, 0.18625843, 0.003919409999999998], "xyz": [1.03162296087081, 1.6890823373538402, 0.1785748689341099], "label": "Na", "properties": {}}, {"species": [{"element": "Na", "occu": 1}], "abc": [0.41125591, 0.98431426, 0.03061021], "xyz": [3.73220619284513, 8.92624205503888, 1.3946523172609098], "label": "Na", "properties": {}}, {"species": [{"element": "Na", "occu": 1}], "abc": [0.62790533, 0.47536081, 0.07623644], "xyz": [5.698330660212191, 4.310803801155281, 3.4734595974912397], "label": "Na", "properties": {}}, {"species": [{"element": "Na", "occu": 1}], "abc": [0.10290026, 0.29015522, 0.07847239], "xyz": [0.93383457423718, 2.63126913070736, 3.5753332157636897], "label": "Na", "properties": {}}, {"species": [{"element": "Na", "occu": 1}], "abc": [0.25609221, 0.25638745, 0.1708112], "xyz": [2.32407342693603, 2.3250465136756002, 7.782443697515199], "label": "Na", "properties": {}}, {"species": [{"element": "Na", "occu": 1}], "abc": [0.96365941, 0.01576498, 0.12814491], "xyz": [8.745346949045631, 0.14296453195024, 5.838496229744609], "label": "Na", "properties": {}}, {"species": [{"element": "Na", "occu": 1}], "abc": [0.46976485, 0.78266978, 0.13007894], "xyz": [4.26318319012355, 7.09763150789264, 5.92661386830874], "label": "Na", "properties": {}}, {"species": [{"element": "Na", "occu": 1}], "abc": [0.75823944, 0.52287479, 0.16903165], "xyz": [6.88113134623992, 4.741683758617521, 7.701364425887149], "label": "Na", "properties": {}}, {"species": [{"element": "Na", "occu": 1}], "abc": [0.10441539, 0.99460722, 0.22259433999999997], "xyz": [0.94758459565077, 9.019583639283361, 10.141770085542138], "label": "Na", "properties": {}}, {"species": [{"element": "Na", "occu": 1}], "abc": [0.60420422, 0.79467054, 0.22270966], "xyz": [5.48323969770346, 7.2064602559435205, 10.14702425744186], "label": "Na", "properties": {}}, {"species": [{"element": "Na", "occu": 1}], "abc": [0.73917638, 0.78196057, 0.31500381], "xyz": [6.70813135072234, 7.09120004551816, 14.352099954966508], "label": "Na", "properties": {}}, {"species": [{"element": "Na", "occu": 1}], "abc": [0.45012436, 0.52246745, 0.27609332], "xyz": [4.084942934783481, 4.7379898007156, 12.579273011137719], "label": "Na", "properties": {}}, {"species": [{"element": "Na", "occu": 1}], "abc": [0.95316582, 0.25661189, 0.27429139], "xyz": [8.65011611921226, 2.3270818451223203, 12.49717406931269], "label": "Na", "properties": {}}, {"species": [{"element": "Na", "occu": 1}], "abc": [0.24513154, 0.01622125, 0.31701904999999997], "xyz": [2.22460377931022, 0.14710221097, 14.443917656832548], "label": "Na", "properties": {}}, {"species": [{"element": "Na", "occu": 1}], "abc": [0.58046669, 0.47530932, 0.3690979], "xyz": [5.26781821848667, 4.31033686470816, 16.8167170865909], "label": "Na", "properties": {}}, {"species": [{"element": "Na", "occu": 1}], "abc": [0.10577514, 0.29002051, 0.36673920000000004], "xyz": [0.9599245213450202, 2.63004751468888, 16.709250773203202], "label": "Na", "properties": {}}, {"species": [{"element": "Na", "occu": 1}], "abc": [0.095142, 0.18631946, 0.44132616], "xyz": [0.8634272553060001, 1.68963578717648, 20.10755730561336], "label": "Na", "properties": {}}, {"species": [{"element": "Na", "occu": 1}], "abc": [0.79724181, 0.98425248, 0.41453478], "xyz": [7.235083431328831, 8.92568180385024, 18.886897264417378], "label": "Na", "properties": {}}, {"species": [{"element": "Na", "occu": 1}], "abc": [0.35168063, 0.83002335, 0.43372829], "xyz": [3.19155200758009, 7.527056789194801, 19.76138565237259], "label": "Na", "properties": {}}, {"species": [{"element": "Na", "occu": 1}], "abc": [0.52607531, 0.4465447, 0.44515149], "xyz": [4.77420866701933, 4.0494852534136, 20.28184573253979], "label": "Na", "properties": {}}, {"species": [{"element": "Zr", "occu": 1}], "abc": [0.32781292, 0.62600517, 0.052697110000000005], "xyz": [2.9749491262475605, 5.67692037208296, 2.40096838847081], "label": "Zr", "properties": {}}, {"species": [{"element": "Zr", "occu": 1}], "abc": [0.40875061, 0.15374172, 0.1064791], "xyz": [3.7094702370872303, 1.3942049429193601, 4.8513657225761], "label": "Zr", "properties": {}}, {"species": [{"element": "Zr", "occu": 1}], "abc": [0.90662592, 0.64310416, 0.10521447], "xyz": [8.22775987150656, 5.83198235771008, 4.79374706657937], "label": "Zr", "properties": {}}, {"species": [{"element": "Zr", "occu": 1}], "abc": [0.82845718, 0.14972154, 0.04144207], "xyz": [7.518367377876741, 1.3577479888315198, 1.8881699588989698], "label": "Zr", "properties": {}}, {"species": [{"element": "Zr", "occu": 1}], "abc": [0.81922617, 0.14307809, 0.19273867], "xyz": [7.434594642092311, 1.29750194222792, 8.781495871517569], "label": "Zr", "properties": {}}, {"species": [{"element": "Zr", "occu": 1}], "abc": [0.8906031, 0.64932028, 0.25141614999999995], "xyz": [8.0823504887433, 5.88835316733664, 11.454939910386647], "label": "Zr", "properties": {}}, {"species": [{"element": "Zr", "occu": 1}], "abc": [0.38993446, 0.14283429, 0.25241927], "xyz": [3.5387109851277803, 1.29529104485352, 11.500643733800167], "label": "Zr", "properties": {}}, {"species": [{"element": "Zr", "occu": 1}], "abc": [0.31834582, 0.6495959, 0.19368488], "xyz": [2.88903383995226, 5.8908526239992005, 8.824606780234479], "label": "Zr", "properties": {}}, {"species": [{"element": "Zr", "occu": 1}], "abc": [0.30213884, 0.64313511, 0.33991322999999996], "xyz": [2.7419531788541205, 5.83226302741368, 15.487014753807326], "label": "Zr", "properties": {}}, {"species": [{"element": "Zr", "occu": 1}], "abc": [0.38048733, 0.14994732, 0.40374573999999996], "xyz": [3.4529769294381905, 1.3597954720521601, 18.395330573531538], "label": "Zr", "properties": {}}, {"species": [{"element": "Zr", "occu": 1}], "abc": [0.88093833, 0.62604949, 0.39241251], "xyz": [7.9946413189311905, 5.67732228747112, 17.87896967690421], "label": "Zr", "properties": {}}, {"species": [{"element": "Zr", "occu": 1}], "abc": [0.800245, 0.15361896, 0.33869088999999997], "xyz": [7.2623378100350005, 1.3930916953324801, 15.431322900877188], "label": "Zr", "properties": {}}, {"species": [{"element": "Si", "occu": 1}], "abc": [0.95870698, 0.51632754, 0.03355628000000001], "xyz": [8.70040293859814, 4.68231010055952, 1.5288801893438801], "label": "Si", "properties": {}}, {"species": [{"element": "Si", "occu": 1}], "abc": [0.44704967, 0.29000471, 0.03318789], "xyz": [4.05703968335281, 2.6299042325784803, 1.5120957253641898], "label": "Si", "properties": {}}, {"species": [{"element": "Si", "occu": 1}], "abc": [0.45576606, 0.00720508, 0.18164325], "xyz": [4.13614216904658, 0.06533918151904, 8.27596999587075], "label": "Si", "properties": {}}, {"species": [{"element": "Si", "occu": 1}], "abc": [0.77585544, 0.28057183, 0.11779104000000001], "xyz": [7.04099906532792, 2.5443622734930402, 5.36675661122784], "label": "Si", "properties": {}}, {"species": [{"element": "Si", "occu": 1}], "abc": [0.26876127, 0.50269549, 0.12015347000000001], "xyz": [2.4390469581116103, 4.5586880187191205, 5.47439286964837], "label": "Si", "properties": {}}, {"species": [{"element": "Si", "occu": 1}], "abc": [0.95365525, 0.78418858, 0.18083267], "xyz": [8.65455776645075, 7.111404727467041, 8.23903861659157], "label": "Si", "properties": {}}, {"species": [{"element": "Si", "occu": 1}], "abc": [0.94011881, 0.50205953, 0.32495697999999995], "xyz": [8.53171263773983, 4.55292082309064, 14.805583011913576], "label": "Si", "properties": {}}, {"species": [{"element": "Si", "occu": 1}], "abc": [0.25508303, 0.78416339, 0.26430387], "xyz": [2.31491497412329, 7.111176292254321, 12.042125968966769], "label": "Si", "properties": {}}, {"species": [{"element": "Si", "occu": 1}], "abc": [0.75349764, 0.00741618, 0.26350958999999996], "xyz": [6.83809883316252, 0.06725353933584, 12.005937244924887], "label": "Si", "properties": {}}, {"species": [{"element": "Si", "occu": 1}], "abc": [0.43324963, 0.28081022, 0.32737593], "xyz": [3.9318023469470904, 2.54652411034736, 14.915794415979029], "label": "Si", "properties": {}}, {"species": [{"element": "Si", "occu": 1}], "abc": [0.76179885, 0.29010454, 0.41200994], "xyz": [6.91343350098555, 2.6308095397355205, 18.77186133500974], "label": "Si", "properties": {}}, {"species": [{"element": "Si", "occu": 1}], "abc": [0.24975138, 0.51633295, 0.41164037], "xyz": [2.26652948794734, 4.6823591610796, 18.755023108258268], "label": "Si", "properties": {}}, {"species": [{"element": "P", "occu": 1}], "abc": [0.61849507, 0.85250246, 0.07292811], "xyz": [5.612931205045011, 7.73090832848048, 3.32272655447181], "label": "P", "properties": {}}, {"species": [{"element": "P", "occu": 1}], "abc": [0.12475073, 0.93947328, 0.07371063], "xyz": [1.1321307141043901, 8.51960216600064, 3.3583794732627297], "label": "P", "properties": {}}, {"species": [{"element": "P", "occu": 1}], "abc": [0.10476518, 0.35361049, 0.22254231], "xyz": [0.95075898992074, 3.20671248523912, 10.13939951180001], "label": "P", "properties": {}}, {"species": [{"element": "P", "occu": 1}], "abc": [0.60446601, 0.43785441, 0.22256877], "xyz": [5.4856154793894305, 3.9706774628320805, 10.140605073614669], "label": "P", "properties": {}}, {"species": [{"element": "P", "occu": 1}], "abc": [0.59046451, 0.85252864, 0.37210667], "xyz": [5.358549864674931, 7.73114574149632, 16.95380167544557], "label": "P", "properties": {}}, {"species": [{"element": "P", "occu": 1}], "abc": [0.08448983, 0.93954185, 0.37148093000000004], "xyz": [0.7667572892956901, 8.5202239922228, 16.92529191543403], "label": "P", "properties": {}}, {"species": [{"element": "O", "occu": 1}], "abc": [0.87217802, 0.56850922, 0.06374614], "xyz": [7.915140252956861, 5.15551903945936, 2.90438065819994], "label": "O", "properties": {}}, {"species": [{"element": "O", "occu": 1}], "abc": [0.87047209, 0.20372777, 0.09172968000000001], "xyz": [7.8996586942588705, 1.8475028375117601, 4.17935750109528], "label": "O", "properties": {}}, {"species": [{"element": "O", "occu": 1}], "abc": [0.37802995, 0.56552605, 0.09329404999999999], "xyz": [3.43067585453285, 5.1284661981124, 4.25063281235755], "label": "O", "properties": {}}, {"species": [{"element": "O", "occu": 1}], "abc": [0.37384184, 0.24613764, 0.06534766], "xyz": [3.39266815738312, 2.23209623468832, 2.97734858553986], "label": "O", "properties": {}}, {"species": [{"element": "O", "occu": 1}], "abc": [0.239919, 0.84333701, 0.0567058], "xyz": [2.177299233417, 7.647791555140881, 2.5836110033918], "label": "O", "properties": {}}, {"species": [{"element": "O", "occu": 1}], "abc": [0.5086664, 0.95711065, 0.08878485], "xyz": [4.6162203192952, 8.6795464441972, 4.045186125484349], "label": "O", "properties": {}}, {"species": [{"element": "O", "occu": 1}], "abc": [0.01104348, 0.84050436, 0.08961769], "xyz": [0.10022116021764, 7.62210370260768, 4.08313170755999], "label": "O", "properties": {}}, {"species": [{"element": "O", "occu": 1}], "abc": [0.73061118, 0.9397236, 0.05473534000000001], "xyz": [6.630400935898741, 8.5218721899168, 2.49383355315314], "label": "O", "properties": {}}, {"species": [{"element": "O", "occu": 1}], "abc": [0.05244197, 0.04262928, 0.051285319999999995], "xyz": [0.47591837695171, 0.38658311412864, 2.3366448769697197], "label": "O", "properties": {}}, {"species": [{"element": "O", "occu": 1}], "abc": [0.68732948, 0.75337999, 0.09691617], "xyz": [6.237613319115641, 6.83201739875512, 4.415662652120069], "label": "O", "properties": {}}, {"species": [{"element": "O", "occu": 1}], "abc": [0.20201474, 0.03062751, 0.09819106999999999], "xyz": [1.8333126536078201, 0.27774520690488, 4.4737492264779695], "label": "O", "properties": {}}, {"species": [{"element": "O", "occu": 1}], "abc": [0.52825859, 0.75787713, 0.05025196], "xyz": [4.79402224522837, 6.87279965887944, 2.2895632686251597], "label": "O", "properties": {}}, {"species": [{"element": "O", "occu": 1}], "abc": [0.13656223, 0.55760841, 0.038745379999999996], "xyz": [1.2393217656488902, 5.05666517478408, 1.7653042563299797], "label": "O", "properties": {}}, {"species": [{"element": "O", "occu": 1}], "abc": [0.62808413, 0.25805488, 0.03568127], "xyz": [5.69995329578059, 2.34016758262144, 1.62569828460217], "label": "O", "properties": {}}, {"species": [{"element": "O", "occu": 1}], "abc": [0.44706264, 0.47522409, 0.029847739999999998], "xyz": [4.0571573879575205, 4.30956395747592, 1.3599129099735399], "label": "O", "properties": {}}, {"species": [{"element": "O", "occu": 1}], "abc": [0.95797817, 0.33465551, 0.03340221], "xyz": [8.69378888362831, 3.03481947656888, 1.52186050269291], "label": "O", "properties": {}}, {"species": [{"element": "O", "occu": 1}], "abc": [0.88294524, 0.58808806, 0.005141899999999998], "xyz": [8.01285431416932, 5.33306951505328, 0.2342735561148999], "label": "O", "properties": {}}, {"species": [{"element": "O", "occu": 1}], "abc": [0.36590995, 0.20015172, 0.007598710000000002], "xyz": [3.32068512137285, 1.8150734709993601, 0.34620992504441006], "label": "O", "properties": {}}, {"species": [{"element": "O", "occu": 1}], "abc": [0.86798441, 0.07496123, 0.003931879999999999], "xyz": [7.877082642520631, 0.6797850147202401, 0.17914302297147994], "label": "O", "properties": {}}, {"species": [{"element": "O", "occu": 1}], "abc": [0.35162471, 0.08250982, 0.20693955], "xyz": [3.1910445255835302, 0.74823931255216, 9.42851169398805], "label": "O", "properties": {}}, {"species": [{"element": "O", "occu": 1}], "abc": [0.35690295, 0.70915595, 0.23847365], "xyz": [3.23894530837185, 6.4309722227036, 10.86525798346915], "label": "O", "properties": {}}, {"species": [{"element": "O", "occu": 1}], "abc": [0.85732922, 0.08297729, 0.23820481000000002], "xyz": [7.780385269578461, 0.75247855863752, 10.85300918383751], "label": "O", "properties": {}}, {"species": [{"element": "O", "occu": 1}], "abc": [0.85178208, 0.70914721, 0.20664872], "xyz": [7.7300441808374405, 6.43089296411848, 9.41526099321112], "label": "O", "properties": {}}, {"species": [{"element": "O", "occu": 1}], "abc": [0.72057418, 0.34383952, 0.20653007], "xyz": [6.53931372560774, 3.1181045610457603, 9.40985510094697], "label": "O", "properties": {}}, {"species": [{"element": "O", "occu": 1}], "abc": [0.98887672, 0.44748005, 0.23862334], "xyz": [8.97419764337096, 4.057967463664401, 10.872078110001139], "label": "O", "properties": {}}, {"species": [{"element": "O", "occu": 1}], "abc": [0.48890145, 0.34342644, 0.23866245], "xyz": [4.4368505716573505, 3.11435855002272, 10.873860026953949], "label": "O", "properties": {}}, {"species": [{"element": "O", "occu": 1}], "abc": [0.22059487, 0.44751314, 0.20645167], "xyz": [2.0019299903164103, 4.05826753993232, 9.406283065940569], "label": "O", "properties": {}}, {"species": [{"element": "O", "occu": 1}], "abc": [0.53221797, 0.53630809, 0.19874578], "xyz": [4.8299541849197105, 4.86350347846792, 9.05518984099838], "label": "O", "properties": {}}, {"species": [{"element": "O", "occu": 1}], "abc": [0.1765201, 0.25480181, 0.24630482], "xyz": [1.6019451498743003, 2.31066715636328, 11.22205917455422], "label": "O", "properties": {}}, {"species": [{"element": "O", "occu": 1}], "abc": [0.6761488, 0.53707875, 0.24633189000000003], "xyz": [6.1361470492784, 4.870492199430001, 11.22329252898819], "label": "O", "properties": {}}, {"species": [{"element": "O", "occu": 1}], "abc": [0.03292283, 0.25474649, 0.19879201], "xyz": [0.29877939021469, 2.31016548760712, 9.05729615704871], "label": "O", "properties": {}}, {"species": [{"element": "O", "occu": 1}], "abc": [0.62871254, 0.03861284, 0.1895185], "xyz": [5.70565620639322, 0.35016007618592004, 8.6347795454135], "label": "O", "properties": {}}, {"species": [{"element": "O", "occu": 1}], "abc": [0.59918125, 0.25673285, 0.11108773], "xyz": [5.437655526668751, 2.3281787694308003, 5.061342606396829], "label": "O", "properties": {}}, {"species": [{"element": "O", "occu": 1}], "abc": [0.10289331, 0.54323118, 0.10930081999999999], "xyz": [0.93377150199333, 4.92628543705584, 4.97992800087022], "label": "O", "properties": {}}, {"species": [{"element": "O", "occu": 1}], "abc": [0.12658237, 0.75019791, 0.18881635], "xyz": [1.14875310902891, 6.80316074446008, 8.602788418120848], "label": "O", "properties": {}}, {"species": [{"element": "O", "occu": 1}], "abc": [0.94417933, 0.96503479, 0.18039063], "xyz": [8.56856243739419, 8.75140641269752, 8.21889853554273], "label": "O", "properties": {}}, {"species": [{"element": "O", "occu": 1}], "abc": [0.27685282, 0.32319325, 0.1226161], "xyz": [2.51247893145326, 2.930874109306, 5.5865944075030995], "label": "O", "properties": {}}, {"species": [{"element": "O", "occu": 1}], "abc": [0.79087856, 0.46240591, 0.11984024000000001], "xyz": [7.17733602763408, 4.19332244596408, 5.460121587441041], "label": "O", "properties": {}}, {"species": [{"element": "O", "occu": 1}], "abc": [0.44368097, 0.82641176, 0.18107643], "xyz": [4.02646824912871, 7.494305128618881, 8.25014472951453], "label": "O", "properties": {}}, {"species": [{"element": "O", "occu": 1}], "abc": [0.82327167, 0.21394639, 0.14994968], "xyz": [7.471308133098811, 1.94017027035832, 6.831957986715279], "label": "O", "properties": {}}, {"species": [{"element": "O", "occu": 1}], "abc": [0.40884811, 0.06633187, 0.14896901], "xyz": [3.71035506352973, 0.60152976711256, 6.78727702281571], "label": "O", "properties": {}}, {"species": [{"element": "O", "occu": 1}], "abc": [0.90249394, 0.72403451, 0.14852798], "xyz": [8.19026156213342, 6.56589826552088, 6.76718295905458], "label": "O", "properties": {}}, {"species": [{"element": "O", "occu": 1}], "abc": [0.3239409, 0.58142243, 0.15004246], "xyz": [2.9398099910487, 5.2726223293858405, 6.836185198550659], "label": "O", "properties": {}}, {"species": [{"element": "O", "occu": 1}], "abc": [0.83107309, 0.56531293, 0.35181258000000004], "xyz": [7.54210713520187, 5.126533521949841, 16.02916902362118], "label": "O", "properties": {}}, {"species": [{"element": "O", "occu": 1}], "abc": [0.8347555, 0.24616768, 0.37983965], "xyz": [7.5755255325365, 2.2323686520678403, 17.306129166055147], "label": "O", "properties": {}}, {"species": [{"element": "O", "occu": 1}], "abc": [0.33606463, 0.56870906, 0.38143501999999996], "xyz": [3.04983457449209, 5.15733128610128, 17.37881688911842], "label": "O", "properties": {}}, {"species": [{"element": "O", "occu": 1}], "abc": [0.338373, 0.20424797, 0.35344294], "xyz": [3.070783362339, 1.85222026496936, 16.103450949552737], "label": "O", "properties": {}}, {"species": [{"element": "O", "occu": 1}], "abc": [0.19807838, 0.8407018, 0.35550951], "xyz": [1.7975896237083402, 7.6238941848784005, 16.197607331991208], "label": "O", "properties": {}}, {"species": [{"element": "O", "occu": 1}], "abc": [0.47881125, 0.94018398, 0.39033446000000005], "xyz": [4.345280563758751, 8.526047140422241, 17.784290246482662], "label": "O", "properties": {}}, {"species": [{"element": "O", "occu": 1}], "abc": [0.96939514, 0.84341139, 0.38850774], "xyz": [8.79739951900502, 7.64846606927832, 17.701061830833538], "label": "O", "properties": {}}, {"species": [{"element": "O", "occu": 1}], "abc": [0.7006496, 0.95669822, 0.35625112000000003], "xyz": [6.3584953128928, 8.67580632769136, 16.23139632282152], "label": "O", "properties": {}}, {"species": [{"element": "O", "occu": 1}], "abc": [0.00696576, 0.03064265, 0.34702257999999997], "xyz": [0.06321526810368, 0.2778825038132, 15.810928619531177], "label": "O", "properties": {}}, {"species": [{"element": "O", "occu": 1}], "abc": [0.68047137, 0.75754726, 0.39477034], "xyz": [6.175374990155911, 6.869808236742879, 17.986396351638138], "label": "O", "properties": {}}, {"species": [{"element": "O", "occu": 1}], "abc": [0.15689238, 0.04282399, 0.39387087], "xyz": [1.42382078411034, 0.38834883942712, 17.945414995423768], "label": "O", "properties": {}}, {"species": [{"element": "O", "occu": 1}], "abc": [0.52118454, 0.75360636, 0.34815153], "xyz": [4.72982422988922, 6.834070232383681, 15.862365468006628], "label": "O", "properties": {}}, {"species": [{"element": "O", "occu": 1}], "abc": [0.10594812, 0.54338576, 0.33570665], "xyz": [0.9614943395811602, 4.9276872439308805, 15.295355939812149], "label": "O", "properties": {}}, {"species": [{"element": "O", "occu": 1}], "abc": [0.08221271, 0.75011942, 0.25632604000000003], "xyz": [0.74609209966753, 6.80244895883696, 11.67864270321284], "label": "O", "properties": {}}, {"species": [{"element": "O", "occu": 1}], "abc": [0.58030879, 0.03809362, 0.25567755000000003], "xyz": [5.266385253406971, 0.34545153584656, 11.649096415186051], "label": "O", "properties": {}}, {"species": [{"element": "O", "occu": 1}], "abc": [0.60982235, 0.25657628, 0.33412653999999997], "xyz": [5.53422503084605, 2.32675891626464, 15.223363487848337], "label": "O", "properties": {}}, {"species": [{"element": "O", "occu": 1}], "abc": [0.41843191, 0.46265741, 0.32535577000000004], "xyz": [3.7973294190131304, 4.19560317069608, 14.82375255069167], "label": "O", "properties": {}}, {"species": [{"element": "O", "occu": 1}], "abc": [0.76618657, 0.82665632, 0.26409991], "xyz": [6.953252687429511, 7.49652291804416, 12.032833210549608], "label": "O", "properties": {}}, {"species": [{"element": "O", "occu": 1}], "abc": [0.2646554, 0.96499169, 0.26479524], "xyz": [2.4017856007222, 8.75101556086472, 12.064513607246038], "label": "O", "properties": {}}, {"species": [{"element": "O", "occu": 1}], "abc": [0.93262654, 0.3226223, 0.32258918999999997], "xyz": [8.463719216095221, 2.9256964560823997, 14.697702542936488], "label": "O", "properties": {}}, {"species": [{"element": "O", "occu": 1}], "abc": [0.30625497, 0.72376186, 0.29658578999999996], "xyz": [2.77930764721071, 6.56342574226768, 13.512944187255087], "label": "O", "properties": {}}, {"species": [{"element": "O", "occu": 1}], "abc": [0.88454576, 0.58002233, 0.29499922], "xyz": [8.02737926204368, 5.259925539337041, 13.44065740689662], "label": "O", "properties": {}}, {"species": [{"element": "O", "occu": 1}], "abc": [0.38596878, 0.21425209, 0.29520139999999995], "xyz": [3.5027218720355404, 1.9429425071399202, 13.449869065539398], "label": "O", "properties": {}}, {"species": [{"element": "O", "occu": 1}], "abc": [0.8000807, 0.06698127, 0.29616123000000005], "xyz": [7.2608467640401, 0.60741884321976, 13.493600524215331], "label": "O", "properties": {}}, {"species": [{"element": "O", "occu": 1}], "abc": [0.58062719, 0.25859368, 0.40953708], "xyz": [5.26927477893817, 2.34505368395584, 18.65919370126068], "label": "O", "properties": {}}, {"species": [{"element": "O", "occu": 1}], "abc": [0.07198059, 0.55776989, 0.40643947], "xyz": [0.65323414747437, 5.05812955422632, 18.51806141355437], "label": "O", "properties": {}}, {"species": [{"element": "O", "occu": 1}], "abc": [0.25051375, 0.33467737, 0.41178132], "xyz": [2.27344810471625, 3.03501771371656, 18.76144502578572], "label": "O", "properties": {}}, {"species": [{"element": "O", "occu": 1}], "abc": [0.76179632, 0.47536548, 0.41533394], "xyz": [6.91341054087376, 4.31084615099424, 18.92330832941374], "label": "O", "properties": {}}, {"species": [{"element": "O", "occu": 1}], "abc": [0.84288519, 0.20010138, 0.43757542000000005], "xyz": [7.64930363183217, 1.81461696331344, 19.93666732372682], "label": "O", "properties": {}}, {"species": [{"element": "O", "occu": 1}], "abc": [0.34105535, 0.07485656, 0.4412357], "xyz": [3.09512607216505, 0.6788358160812801, 20.1034357968547], "label": "O", "properties": {}}, {"species": [{"element": "O", "occu": 1}], "abc": [0.32559228, 0.58812721, 0.44004487999999997], "xyz": [2.95479650069604, 5.33342454635848, 20.049180047794476], "label": "O", "properties": {}}]}, "formula": "(Na3Zr2Si2PO12)6.0(Na2O)2.0", "bandgap": 3.6218000000000004, "slab_thickness": 20.27728956543979}