{"miller": "110_0.14", "final_energy": -903.12331532, "gamma": 0.053450438146534336, "work_function": "Not calculated", "ionization_potentail": "Not calculated", "electron_affinity": "Not calculated", "is_stochiometric": true, "incar_parameters": {"SYSTEM": "unknown system", "LCOMPAT": false, "PREC": "normal", "ENMAX": 520.0, "ENAUG": 605.392, "EDIFF": 1e-05, "IALGO": 38, "IWAVPR": 11, "NBANDS": 468, "NBANDSLOW": -1, "NBANDSHIGH": -1, "NELECT": 780.0, "TURBO": 0, "IRESTART": 0, "NREBOOT": 0, "NMIN": 0, "EREF": 0.0, "ISMEAR": 0, "SIGMA": 0.05, "KSPACING": 0.5, "KGAMMA": true, "KBLOWUP": true, "LREAL": true, "ROPT": [-0.0005, -0.0005, -0.0005, -0.0005, -0.0005], "LMAXPAW": -100, "LMAXMIX": 4, "NLSPLINE": false, "ISTART": 0, "ICHARG": 2, "INIWAV": 1, "ISPIN": 1, "LNONCOLLINEAR": false, "MAGMOM": [0.6, 0.6, 0.6, 0.6, 0.6, 0.6, 0.6, 0.6, 0.6, 0.6, 0.6, 0.6, 0.6, 0.6, 0.6, 0.6, 0.6, 0.6, 0.6, 0.6, 0.6, 0.6, 0.6, 0.6, 0.6, 0.6, 0.6, 0.6, 0.6, 0.6, 0.6, 0.6, 0.6, 0.6, 0.6, 0.6, 0.6, 0.6, 0.6, 0.6, 0.6, 0.6, 0.6, 0.6, 0.6, 0.6, 0.6, 0.6, 0.6, 0.6, 0.6, 0.6, 0.6, 0.6, 0.6, 0.6, 0.6, 0.6, 0.6, 0.6, 0.6, 0.6, 0.6, 0.6, 0.6, 0.6, 0.6, 0.6, 0.6, 0.6, 0.6, 0.6, 0.6, 0.6, 0.6, 0.6, 0.6, 0.6, 0.6, 0.6, 0.6, 0.6, 0.6, 0.6, 0.6, 0.6, 0.6, 0.6, 0.6, 0.6, 0.6, 0.6, 0.6, 0.6, 0.6, 0.6, 0.6, 0.6, 0.6, 0.6, 0.6, 0.6, 0.6, 0.6, 0.6, 0.6, 0.6, 0.6, 0.6, 0.6, 0.6, 0.6, 0.6, 0.6, 0.6, 0.6, 0.6, 0.6, 0.6, 0.6], "NUPDOWN": -1.0, "LSORBIT": false, "SAXIS": [0.0, 0.0, 1.0], "LSPIRAL": false, "QSPIRAL": [0.0, 0.0, 0.0], "LZEROZ": false, "LASPH": false, "LMETAGGA": false, "NELM": 100, "NELMDL": -5, "NELMIN": 6, "ENINI": 520.0, "LDIAG": true, "LSUBROT": false, "WEIMIN": 0.001, "EBREAK": 1e-08, "DEPER": 0.3, "NRMM": 4, "TIME": 0.4, "AMIX": 0.4, "BMIX": 1.0, "AMIN": 0.1, "AMIX_MAG": 1.6, "BMIX_MAG": 1.0, "IMIX": 4, "MIXFIRST": false, "MAXMIX": -45, "WC": 100.0, "INIMIX": 1, "MIXPRE": 1, "MREMOVE": 5, "LDIPOL": false, "LMONO": false, "IDIPOL": 0, "EPSILON": 1.0, "DIPOL": [-100.0, -100.0, -100.0], "EFIELD": 0.0, "NGX": 54, "NGY": 54, "NGZ": 294, "NGXF": 108, "NGYF": 108, "NGZF": 588, "ADDGRID": false, "NSW": 150, "IBRION": 2, "MDALGO": 0, "ISIF": 2, "PSTRESS": 0.0, "EDIFFG": -0.01, "NFREE": 1, "POTIM": 0.5, "SMASS": -3.0, "SCALEE": 1.0, "TEBEG": 0.0001, "TEEND": 0.0001, "NBLOCK": 1, "KBLOCK": 150, "NPACO": 256, "APACO": 10.0, "ISYM": 0, "SYMPREC": 1e-05, "LORBIT": 11, "RWIGS": [-1.0, -1.0, -1.0, -1.0, -1.0], "NEDOS": 301, "EMIN": 10.0, "EMAX": -10.0, "EFERMI": 0.0, "NWRITE": 2, "LWAVE": false, "LDOWNSAMPLE": false, "LCHARG": false, "LPARD": false, "LVTOT": false, "LVHAR": false, "LELF": false, "LOPTICS": false, "STM": [0.0, 0.0, 0.0, 0.0, 0.0, 0.0, 0.0], "NPAR": 2, "NSIM": 4, "NBLK": -1, "LPLANE": true, "LSCALAPACK": true, "LSCAAWARE": false, "LSCALU": false, "LASYNC": false, "LORBITALREAL": false, "IDIOT": 3, "PHON_NSTRUCT": -1, "LMUSIC": false, "POMASS": [22.99, 91.224, 28.085, 30.974, 16.0], "DARWINR": [0.0, 0.0, 0.0, 0.0, 0.0], "DARWINV": [1.0, 1.0, 1.0, 1.0, 1.0], "LCORR": true, "GGA_COMPAT": true, "LBERRY": false, "ICORELEVEL": 0, "LDAU": false, "I_CONSTRAINED_M": 0, "GGA": "--", "VOSKOWN": 0, "LHFCALC": false, "PRECFOCK": "", "LSYMGRAD": false, "LHFONE": false, "LRHFCALC": false, "LTHOMAS": false, "LMODELHF": false, "LFOCKACE": false, "ENCUT4O": -1.0, "EXXOEP": 0, "FOURORBIT": 0, "AEXX": 0.0, "HFALPHA": 0.0, "MCALPHA": 0.0, "ALDAX": 1.0, "AGGAX": 1.0, "ALDAC": 1.0, "AGGAC": 1.0, "NKREDX": 1, "NKREDY": 1, "NKREDZ": 1, "SHIFTRED": false, "ODDONLY": false, "EVENONLY": false, "LMAXFOCK": 0, "NMAXFOCKAE": 0, "LFOCKAEDFT": false, "HFSCREEN": 0.0, "HFSCREENC": 0.0, "NBANDSGWLOW": 0, "LUSE_VDW": false, "Zab_VDW": -0.8491, "PARAM1": 0.1234, "PARAM2": 1.0, "PARAM3": 0.0, "MODEL_GW": 0, "MODEL_EPS0": 22.36936168, "MODEL_ALPHA": 1.0, "LEPSILON": false, "LRPA": false, "LNABLA": false, "LVEL": false, "CSHIFT": 0.1, "OMEGAMAX": -1.0, "DEG_THRESHOLD": 0.002, "RTIME": -0.1, "WPLASMAI": 0.0, "DFIELD": [0.0, 0.0, 0.0], "WPLASMA": [0.0, 0.0, 0.0, 0.0, 0.0, 0.0, 0.0, 0.0, 0.0], "NUCIND": false, "MAGPOS": [0.0, 0.0, 0.0], "LNICSALL": true, "ORBITALMAG": false, "LMAGBLOCH": false, "LCHIMAG": false, "LGAUGE": true, "MAGATOM": 0, "MAGDIPOL": [0.0, 0.0, 0.0], "AVECCONST": [0.0, 0.0, 0.0], "LFINITE_TEMPERATURE": false, "LADDER": false, "LRPAFORCE": false, "LFXC": false, "LHARTREE": true, "IBSE": 0, "KPOINT": [-1, 0, 0, 0], "LTCTC": false, "LTCTE": false, "LTETE": false, "LTRIPLET": false, "LFXCEPS": false, "LFXHEG": false, "NATURALO": 2, "LHOLEGF": false, "L2ORDER": false, "LDMP1": false, "LMP2LT": false, "LSMP2LT": false, "LGWLF": false, "ENCUTGW": -2.0, "ENCUTGWSOFT": -2.0, "ENCUTLF": -1.0, "LESF_SPLINES": false, "LMAXMP2": -1, "SCISSOR": 0.0, "NOMEGA": 0, "NOMEGAR": 0, "NBANDSGW": -1, "NBANDSO": -1, "NBANDSV": -1, "NELMGW": 1, "NELMHF": 1, "DIM": 3, "IESPILON": 4, "ANTIRES": 0, "OMEGAMIN": -30.0, "OMEGATL": -200.0, "OMEGAGRID": 0, "LSELFENERGY": false, "LSPECTRAL": false, "LSPECTRALGW": false, "LSINGLES": false, "LFERMIGW": false, "ODDONLYGW": false, "EVENONLYGW": false, "NKREDLFX": 1, "NKREDLFY": 1, "NKREDLFZ": 1, "MAXMEM": 2800, "TELESCOPE": 0, "NTAUPAR": -1, "NOMEGAPAR": -1, "DAMP_NEWTON": 0.80000001, "LAMBDA": 1.0, "OFIELD_KAPPA": 0.0, "OFIELD_K": [0.0, 0.0, 0.0], "OFIELD_Q6_NEAR": 0.0, "OFIELD_Q6_FAR": 0.0, "OFIELD_A": 0.0, "KPOINTS_OPT_MODE": 1, "LKPOINTS_OPT": false, "@module": "pymatgen.io.vasp.inputs", "@class": "Incar"}, "relaxed_structures": {"@module": "pymatgen.core.structure", "@class": "Structure", "charge": 0, "lattice": {"matrix": [[9.272956, 0.0, 0.0], [0.0, 9.159371, 0.0], [0.0, 0.0, 52.674417]], "a": 9.272956, "b": 9.159371, "c": 52.674417, "alpha": 90.0, "beta": 90.0, "gamma": 90.0, "volume": 4473.8723351768485}, "sites": [{"species": [{"element": "Na", "occu": 1}], "abc": [0.76720473, 0.75599165, 0.008933510000000006], "xyz": [7.114255704281881, 6.9244079952521504, 0.47056743101367027], "label": "Na", "properties": {}}, {"species": [{"element": "Na", "occu": 1}], "abc": [0.26748002, 0.10644658, 0.008989810000000008], "xyz": [2.48033045633912, 0.97498371790118, 0.4735330006907704], "label": "Na", "properties": {}}, {"species": [{"element": "Na", "occu": 1}], "abc": [0.66292107, 0.52764105, 0.060054970000000006], "xyz": [6.14723791358292, 4.832860131779549, 3.16336053270249], "label": "Na", "properties": {}}, {"species": [{"element": "Na", "occu": 1}], "abc": [0.16288594, 0.3349445, 0.06003249], "xyz": [1.5104341546386402, 3.0678809399094997, 3.1621764118083298], "label": "Na", "properties": {}}, {"species": [{"element": "Na", "occu": 1}], "abc": [0.28720281, 0.29608658, 0.14212269], "xyz": [2.66321902020636, 2.71196683434118, 7.486229838221729], "label": "Na", "properties": {}}, {"species": [{"element": "Na", "occu": 1}], "abc": [0.99629578, 0.04902135, 0.10692051999999999], "xyz": [9.23860693092568, 0.44900473157084997, 5.631976056336839], "label": "Na", "properties": {}}, {"species": [{"element": "Na", "occu": 1}], "abc": [0.49602367, 0.81355671, 0.10691], "xyz": [4.599605666868521, 7.4516677364294095, 5.63142192147], "label": "Na", "properties": {}}, {"species": [{"element": "Na", "occu": 1}], "abc": [0.78720705, 0.56694908, 0.14212491], "xyz": [7.299736337539801, 5.19289696182868, 7.486346775427469], "label": "Na", "properties": {}}, {"species": [{"element": "Na", "occu": 1}], "abc": [0.12731304, 0.03736897, 0.18711798], "xyz": [1.18056821814624, 0.34227626011787, 9.85633050671766], "label": "Na", "properties": {}}, {"species": [{"element": "Na", "occu": 1}], "abc": [0.62716962, 0.82540316, 0.18718402], "xyz": [5.81571629079672, 7.56017376701236, 9.85980912521634], "label": "Na", "properties": {}}, {"species": [{"element": "Na", "occu": 1}], "abc": [0.75755767, 0.81323585, 0.26730770000000004], "xyz": [7.02479894137252, 7.44872886065035, 14.080277257110902], "label": "Na", "properties": {}}, {"species": [{"element": "Na", "occu": 1}], "abc": [0.46798381, 0.56644014, 0.23205467999999999], "xyz": [4.339593278842361, 5.18823539155194, 12.223344981121558], "label": "Na", "properties": {}}, {"species": [{"element": "Na", "occu": 1}], "abc": [0.9678385, 0.2959471, 0.23212243000000002], "xyz": [8.974723825606, 2.7106892852741002, 12.22691367287331], "label": "Na", "properties": {}}, {"species": [{"element": "Na", "occu": 1}], "abc": [0.25819007, 0.04867255, 0.26729562], "xyz": [2.3941851587469203, 0.44580994296605003, 14.07964095015354], "label": "Na", "properties": {}}, {"species": [{"element": "Na", "occu": 1}], "abc": [0.59116929, 0.52718514, 0.31425011], "xyz": [5.48188681472124, 4.8286842829469405, 16.55294133643587], "label": "Na", "properties": {}}, {"species": [{"element": "Na", "occu": 1}], "abc": [0.09116493, 0.33478605, 0.3141738], "xyz": [0.8453683846330801, 3.06642963757455, 16.548921751674598], "label": "Na", "properties": {}}, {"species": [{"element": "Na", "occu": 1}], "abc": [0.98657733, 0.1059676, 0.36521614], "xyz": [9.14848817168748, 0.9705965623796, 19.23754725349038], "label": "Na", "properties": {}}, {"species": [{"element": "Na", "occu": 1}], "abc": [0.48620965, 0.75678332, 0.36528275000000004], "xyz": [4.5086006912254, 6.93165919449172, 19.241055896406753], "label": "Na", "properties": {}}, {"species": [{"element": "Zr", "occu": 1}], "abc": [0.36277616, 0.6623957, 0.040057390000000005], "xyz": [3.3640073695289603, 6.0671279651047, 2.1099996647916304], "label": "Zr", "properties": {}}, {"species": [{"element": "Zr", "occu": 1}], "abc": [0.86294524, 0.20045806, 0.04003399], "xyz": [8.00205324092944, 1.83606974148026, 2.10876708343383], "label": "Zr", "properties": {}}, {"species": [{"element": "Zr", "occu": 1}], "abc": [0.84015073, 0.1771264, 0.16230424], "xyz": [7.79068075265788, 1.6223664114943999, 8.54928121862808], "label": "Zr", "properties": {}}, {"species": [{"element": "Zr", "occu": 1}], "abc": [0.44082628, 0.18565562, 0.0859753], "xyz": [4.08776269808368, 1.7004887018150199, 4.5286988039001], "label": "Zr", "properties": {}}, {"species": [{"element": "Zr", "occu": 1}], "abc": [0.94053558, 0.67688989, 0.0859529], "xyz": [8.72154504977448, 6.19988562865919, 4.527518896959299], "label": "Zr", "properties": {}}, {"species": [{"element": "Zr", "occu": 1}], "abc": [0.33996701, 0.68573656, 0.16227169], "xyz": [3.1524991251815604, 6.28091556130376, 8.54756666635473], "label": "Zr", "properties": {}}, {"species": [{"element": "Zr", "occu": 1}], "abc": [0.31411695, 0.67671295, 0.28818028], "xyz": [2.9127926562042004, 6.19826496955445, 15.17972823989676], "label": "Zr", "properties": {}}, {"species": [{"element": "Zr", "occu": 1}], "abc": [0.91479957, 0.68550769, 0.21191358000000002], "xyz": [8.48289616142892, 6.27881925606299, 11.16242428088286], "label": "Zr", "properties": {}}, {"species": [{"element": "Zr", "occu": 1}], "abc": [0.41493403, 0.1768277, 0.21187940000000002], "xyz": [3.8476650030926804, 1.6196305073767001, 11.1606238693098], "label": "Zr", "properties": {}}, {"species": [{"element": "Zr", "occu": 1}], "abc": [0.81410761, 0.18536536, 0.28826929], "xyz": [7.54918404679516, 1.69783010278856, 15.18441678975393], "label": "Zr", "properties": {}}, {"species": [{"element": "Zr", "occu": 1}], "abc": [0.39149609, 0.20000451, 0.33415313], "xyz": [3.6303260167420404, 1.83191550876321, 17.60132131147521], "label": "Zr", "properties": {}}, {"species": [{"element": "Zr", "occu": 1}], "abc": [0.89131896, 0.662103, 0.33418269], "xyz": [8.26516149804576, 6.064447017213, 17.60287836724173], "label": "Zr", "properties": {}}, {"species": [{"element": "Si", "occu": 1}], "abc": [0.00380734, 0.53988618, 0.02467228000000001], "xyz": [0.035305296297040004, 4.94501782039278, 1.2995979650607605], "label": "Si", "properties": {}}, {"species": [{"element": "Si", "occu": 1}], "abc": [0.50389611, 0.32291155, 0.024710150000000007], "xyz": [4.6726064566011605, 2.95766668663505, 1.3015927452325504], "label": "Si", "properties": {}}, {"species": [{"element": "Si", "occu": 1}], "abc": [0.4824793, 0.04185619, 0.15132774], "xyz": [4.474009319810801, 0.38337637285649, 7.971100480427579], "label": "Si", "properties": {}}, {"species": [{"element": "Si", "occu": 1}], "abc": [0.79608095, 0.32387702, 0.09898757], "xyz": [7.382023621788201, 2.9665097845544204, 5.21411253999669], "label": "Si", "properties": {}}, {"species": [{"element": "Si", "occu": 1}], "abc": [0.29564396, 0.53852877, 0.09895386], "xyz": [2.74149343274576, 4.93258479860367, 5.21233688539962], "label": "Si", "properties": {}}, {"species": [{"element": "Si", "occu": 1}], "abc": [0.98242218, 0.8212521, 0.15132361], "xyz": [9.10995764856408, 7.522152668429101, 7.97088293508537], "label": "Si", "properties": {}}, {"species": [{"element": "Si", "occu": 1}], "abc": [0.95860193, 0.53884819, 0.27522465], "xyz": [8.88907351840508, 4.935510484888489, 14.49729798277905], "label": "Si", "properties": {}}, {"species": [{"element": "Si", "occu": 1}], "abc": [0.27277254, 0.82074415, 0.22285506000000002], "xyz": [2.5294077614282404, 7.5175001659296505, 11.73876036100002], "label": "Si", "properties": {}}, {"species": [{"element": "Si", "occu": 1}], "abc": [0.77262997, 0.04155125, 0.22289320999999998], "xyz": [7.164563716091321, 0.38058331426374997, 11.740769890008568], "label": "Si", "properties": {}}, {"species": [{"element": "Si", "occu": 1}], "abc": [0.45894157, 0.32344128, 0.27517842000000003], "xyz": [4.255744985180921, 2.96251868023488, 14.49486284448114], "label": "Si", "properties": {}}, {"species": [{"element": "Si", "occu": 1}], "abc": [0.75049766, 0.32220063, 0.34961279], "xyz": [6.95933177928296, 2.95115510660373, 18.41564988899343], "label": "Si", "properties": {}}, {"species": [{"element": "Si", "occu": 1}], "abc": [0.25038377, 0.53977389, 0.34939985], "xyz": [2.3217976823241204, 4.94398931462319, 18.40443339863745], "label": "Si", "properties": {}}, {"species": [{"element": "P", "occu": 1}], "abc": [0.65335771, 0.89331161, 0.05798501000000001], "xyz": [6.05855729709076, 8.18217245459731, 3.0543265964891706], "label": "P", "properties": {}}, {"species": [{"element": "P", "occu": 1}], "abc": [0.15347137, 0.96950215, 0.05804736], "xyz": [1.42313326126972, 8.88002987714765, 3.05761084638912], "label": "P", "properties": {}}, {"species": [{"element": "P", "occu": 1}], "abc": [0.12752968, 0.38970487, 0.18712349], "xyz": [1.1825771113340802, 3.5694514848367698, 9.85662074275533], "label": "P", "properties": {}}, {"species": [{"element": "P", "occu": 1}], "abc": [0.62744377, 0.47297147, 0.18705163], "xyz": [5.81825847168412, 4.33212116614537, 9.85283555914971], "label": "P", "properties": {}}, {"species": [{"element": "P", "occu": 1}], "abc": [0.60126039, 0.89293958, 0.31625818], "xyz": [5.57546114101284, 8.17876489380418, 16.65871525298106], "label": "P", "properties": {}}, {"species": [{"element": "P", "occu": 1}], "abc": [0.10113531, 0.96904427, 0.31623812], "xyz": [0.9378232796763601, 8.87583598435417, 16.65765860417604], "label": "P", "properties": {}}, {"species": [{"element": "O", "occu": 1}], "abc": [0.91241252, 0.59366254, 0.05061125], "xyz": [8.46076115180912, 5.437575452662339, 2.6659180873912502], "label": "O", "properties": {}}, {"species": [{"element": "O", "occu": 1}], "abc": [0.89790644, 0.2473694, 0.07638589000000001], "xyz": [8.326246910236641, 2.2657481086474, 4.02358222277613], "label": "O", "properties": {}}, {"species": [{"element": "O", "occu": 1}], "abc": [0.39766708, 0.61548821, 0.07640626], "xyz": [3.6875493354884803, 5.63748486151591, 4.02465520065042], "label": "O", "properties": {}}, {"species": [{"element": "O", "occu": 1}], "abc": [0.41258161, 0.2690058, 0.05064158], "xyz": [3.82585111593916, 2.4639239233518, 2.66751570245886], "label": "O", "properties": {}}, {"species": [{"element": "O", "occu": 1}], "abc": [0.26175016, 0.87765465, 0.04213807000000001], "xyz": [2.42719771667296, 8.03876454922515, 2.2195982707551902], "label": "O", "properties": {}}, {"species": [{"element": "O", "occu": 1}], "abc": [0.54653361, 0.98981545, 0.07321195999999999], "xyz": [5.067982118051161, 9.066086928081951, 3.8563973104273197], "label": "O", "properties": {}}, {"species": [{"element": "O", "occu": 1}], "abc": [0.04660875, 0.87285491, 0.07322347000000001], "xyz": [0.432200887965, 7.9948019498616105, 3.8570035929669904], "label": "O", "properties": {}}, {"species": [{"element": "O", "occu": 1}], "abc": [0.76166823, 0.98532728, 0.04212661], "xyz": [7.06291598338788, 9.02497811394088, 2.21899462193637], "label": "O", "properties": {}}, {"species": [{"element": "O", "occu": 1}], "abc": [0.57000191, 0.79179227, 0.03913853000000001], "xyz": [5.28560263134596, 7.252319155862169, 2.0615992499870104], "label": "O", "properties": {}}, {"species": [{"element": "O", "occu": 1}], "abc": [0.07019286, 0.07128672, 0.03922204000000001], "xyz": [0.65089530229416, 0.65294151585312, 2.0659980905506803], "label": "O", "properties": {}}, {"species": [{"element": "O", "occu": 1}], "abc": [0.17906656, 0.5657472, 0.032821880000000005], "xyz": [1.6604763319513602, 5.1818884970112, 1.7288733938439602], "label": "O", "properties": {}}, {"species": [{"element": "O", "occu": 1}], "abc": [0.67922431, 0.29705857, 0.032815500000000004], "xyz": [6.298417140760361, 2.7208696513594703, 1.7285373310635002], "label": "O", "properties": {}}, {"species": [{"element": "O", "occu": 1}], "abc": [0.48950911, 0.50728127, 0.02561942000000001], "xyz": [4.53919643862916, 4.64637735328117, 1.3494880123781405], "label": "O", "properties": {}}, {"species": [{"element": "O", "occu": 1}], "abc": [0.98935463, 0.35558946, 0.025523800000000006], "xyz": [9.17424195238628, 3.2569757878296604, 1.3444512846246002], "label": "O", "properties": {}}, {"species": [{"element": "O", "occu": 1}], "abc": [0.95202382, 0.62185978, 0.00010000000000000286], "xyz": [8.82807499381192, 5.69584443499838, 0.005267441700000151], "label": "O", "properties": {}}, {"species": [{"element": "O", "occu": 1}], "abc": [0.45189293, 0.24121717, 0.0001263700000000076], "xyz": [4.190383256601081, 2.20939755160007, 0.006656466076290399], "label": "O", "properties": {}}, {"species": [{"element": "O", "occu": 1}], "abc": [0.38159592, 0.12082642, 0.17308913], "xyz": [3.5385221759395202, 1.10669400738182, 9.11736901178721], "label": "O", "properties": {}}, {"species": [{"element": "O", "occu": 1}], "abc": [0.37362419, 0.74184667, 0.20107824], "xyz": [3.4646006744056406, 6.79484887564457, 10.59167906338608], "label": "O", "properties": {}}, {"species": [{"element": "O", "occu": 1}], "abc": [0.87347588, 0.12032926, 0.20109362], "xyz": [8.09970340230128, 1.10214033449546, 10.592489195919539], "label": "O", "properties": {}}, {"species": [{"element": "O", "occu": 1}], "abc": [0.88173113, 0.74223238, 0.17311628], "xyz": [8.17625397232028, 6.79838173663298, 9.11879912220876], "label": "O", "properties": {}}, {"species": [{"element": "O", "occu": 1}], "abc": [0.73954113, 0.37893737, 0.17276158], "xyz": [6.8577323586802805, 3.47082795759427, 9.10011550649886], "label": "O", "properties": {}}, {"species": [{"element": "O", "occu": 1}], "abc": [0.01585592, 0.48382075, 0.20149394], "xyz": [0.14703124849952, 4.4314937467482505, 10.613575818532981], "label": "O", "properties": {}}, {"species": [{"element": "O", "occu": 1}], "abc": [0.51619931, 0.37844722, 0.20144402], "xyz": [4.78669348886036, 3.46633849189862, 10.61094631163634], "label": "O", "properties": {}}, {"species": [{"element": "O", "occu": 1}], "abc": [0.23881928, 0.48416885, 0.17272666], "xyz": [2.21456067539168, 4.43468212379335, 9.09827611585722], "label": "O", "properties": {}}, {"species": [{"element": "O", "occu": 1}], "abc": [0.05276594, 0.29025998, 0.16718035], "xyz": [0.48929623991864, 2.65859884327258, 8.80612747010595], "label": "O", "properties": {}}, {"species": [{"element": "O", "occu": 1}], "abc": [0.23167797, 0.06737469, 0.07796272000000001], "xyz": [2.14833962197932, 0.61710978171999, 4.10664082373424], "label": "O", "properties": {}}, {"species": [{"element": "O", "occu": 1}], "abc": [0.73158433, 0.79529131, 0.07787160000000001], "xyz": [6.78394930237948, 7.28436816136601, 4.101841130857201], "label": "O", "properties": {}}, {"species": [{"element": "O", "occu": 1}], "abc": [0.55240226, 0.57172615, 0.16704418], "xyz": [5.122401851280561, 5.236651918251651, 8.798954794743059], "label": "O", "properties": {}}, {"species": [{"element": "O", "occu": 1}], "abc": [0.65300421, 0.07325292, 0.15803922], "xyz": [6.05527930714476, 0.67095067111332, 8.32462377663474], "label": "O", "properties": {}}, {"species": [{"element": "O", "occu": 1}], "abc": [0.62846402, 0.28950238, 0.09183229000000001], "xyz": [5.82771920504312, 2.65165970380298, 4.837212337524931], "label": "O", "properties": {}}, {"species": [{"element": "O", "occu": 1}], "abc": [0.12812205, 0.5726622, 0.09171308], "xyz": [1.1880701322798, 5.2452255474762, 4.83093302027436], "label": "O", "properties": {}}, {"species": [{"element": "O", "occu": 1}], "abc": [0.15311422, 0.79032872, 0.15800187], "xyz": [1.41982142503432, 7.23891395843512, 8.322656387159789], "label": "O", "properties": {}}, {"species": [{"element": "O", "occu": 1}], "abc": [0.96587913, 0.00053786, 0.15170426], "xyz": [8.95655467380828, 0.0049264592860600006, 7.99093345191642], "label": "O", "properties": {}}, {"species": [{"element": "O", "occu": 1}], "abc": [0.31391662, 0.36051924, 0.09945829], "xyz": [2.91093500492872, 3.30212947179804, 5.23890744156693], "label": "O", "properties": {}}, {"species": [{"element": "O", "occu": 1}], "abc": [0.81391657, 0.50198723, 0.09946852], "xyz": [7.54741254128092, 4.5978872768323304, 5.2394463008528405], "label": "O", "properties": {}}, {"species": [{"element": "O", "occu": 1}], "abc": [0.46599197, 0.86248511, 0.15179062], "xyz": [4.32112303416332, 7.89982110446581, 7.9954824145685395], "label": "O", "properties": {}}, {"species": [{"element": "O", "occu": 1}], "abc": [0.85065148, 0.25036985, 0.12532294], "xyz": [7.888053745374881, 2.29323034336435, 6.60131280122598], "label": "O", "properties": {}}, {"species": [{"element": "O", "occu": 1}], "abc": [0.4342488, 0.09995363, 0.12321420999999999], "xyz": [4.0267700154528, 0.9155123799667301, 6.490236677865569], "label": "O", "properties": {}}, {"species": [{"element": "O", "occu": 1}], "abc": [0.93426001, 0.76262491, 0.12322473], "xyz": [8.66335196528956, 6.98516448453161, 6.49079081273241], "label": "O", "properties": {}}, {"species": [{"element": "O", "occu": 1}], "abc": [0.34987639, 0.61211877, 0.12531976], "xyz": [3.2443883699088403, 5.6066229104936705, 6.6011452965799196], "label": "O", "properties": {}}, {"species": [{"element": "O", "occu": 1}], "abc": [0.85678929, 0.61570168, 0.29781090000000005], "xyz": [7.944969387441241, 5.63944011244328, 15.687015533745301], "label": "O", "properties": {}}, {"species": [{"element": "O", "occu": 1}], "abc": [0.84169211, 0.26813224, 0.32366251], "xyz": [7.804973901577161, 2.45592266322104, 17.04873401900667], "label": "O", "properties": {}}, {"species": [{"element": "O", "occu": 1}], "abc": [0.34205916, 0.5934678, 0.32351465], "xyz": [3.17189954007696, 5.4357917567538, 17.04094557970905], "label": "O", "properties": {}}, {"species": [{"element": "O", "occu": 1}], "abc": [0.3572252, 0.24653442, 0.29776987000000005], "xyz": [3.3125335616912004, 2.25810021704982, 15.684854302415792], "label": "O", "properties": {}}, {"species": [{"element": "O", "occu": 1}], "abc": [0.20779848, 0.87235227, 0.30102584000000004], "xyz": [1.9269061619068801, 7.990198083622171, 15.856360623935283], "label": "O", "properties": {}}, {"species": [{"element": "O", "occu": 1}], "abc": [0.49279529, 0.98468806, 0.33213815], "xyz": [4.5696690411772405, 9.01912326081026, 17.49518341470855], "label": "O", "properties": {}}, {"species": [{"element": "O", "occu": 1}], "abc": [0.99267228, 0.87748698, 0.33213894000000005], "xyz": [9.20500637485968, 8.03722879748958, 17.49522502749798], "label": "O", "properties": {}}, {"species": [{"element": "O", "occu": 1}], "abc": [0.70790509, 0.98942289, 0.30099506000000004], "xyz": [6.56437275174604, 9.06249132540219, 15.854739305380022], "label": "O", "properties": {}}, {"species": [{"element": "O", "occu": 1}], "abc": [0.52327393, 0.79464636, 0.29638492000000005], "xyz": [4.8522961288370805, 7.27846082503956, 15.611902868591642], "label": "O", "properties": {}}, {"species": [{"element": "O", "occu": 1}], "abc": [0.7019317, 0.57272485, 0.20698227], "xyz": [6.508981769105201, 5.245799382069349, 10.90267040158659], "label": "O", "properties": {}}, {"species": [{"element": "O", "occu": 1}], "abc": [0.20258027, 0.29061398, 0.20707916], "xyz": [1.8785179301781203, 2.6618412606065798, 10.90777402584972], "label": "O", "properties": {}}, {"species": [{"element": "O", "occu": 1}], "abc": [0.0229783, 0.06707853, 0.29633167000000005], "xyz": [0.2130767648548, 0.61439714240463, 15.609097955886392], "label": "O", "properties": {}}, {"species": [{"element": "O", "occu": 1}], "abc": [0.12634209, 0.57336201, 0.28223341], "xyz": [1.17156464151804, 5.25163536689571, 14.86648032967197], "label": "O", "properties": {}}, {"species": [{"element": "O", "occu": 1}], "abc": [0.10216137, 0.78887048, 0.21626779], "xyz": [0.94733788890972, 7.225557397268081, 11.391779754128429], "label": "O", "properties": {}}, {"species": [{"element": "O", "occu": 1}], "abc": [0.60195297, 0.07264751, 0.21624081999999997], "xyz": [5.581883404879321, 0.66540549631621, 11.390359125101938], "label": "O", "properties": {}}, {"species": [{"element": "O", "occu": 1}], "abc": [0.62651588, 0.28915106, 0.28234414], "xyz": [5.8096541885412805, 2.6484418335832602, 14.87231296786638], "label": "O", "properties": {}}, {"species": [{"element": "O", "occu": 1}], "abc": [0.4408274, 0.50156196, 0.27473313000000005], "xyz": [4.0877730837944, 4.59399207112716, 14.471407453335212], "label": "O", "properties": {}}, {"species": [{"element": "O", "occu": 1}], "abc": [0.7890498, 0.86218715, 0.2224843], "xyz": [7.316824077208801, 7.89709197828265, 11.7192307941531], "label": "O", "properties": {}}, {"species": [{"element": "O", "occu": 1}], "abc": [0.288817, 0.0001311, 0.22237411999999998], "xyz": [2.678187333052, 0.0012007935381, 11.713427126888039], "label": "O", "properties": {}}, {"species": [{"element": "O", "occu": 1}], "abc": [0.94086217, 0.36067029, 0.27487500000000004], "xyz": [8.72457350447452, 3.30351299478759, 14.478880372875002], "label": "O", "properties": {}}, {"species": [{"element": "O", "occu": 1}], "abc": [0.32152451, 0.7628875, 0.25097438000000005], "xyz": [2.98148263415156, 6.987569643762501, 13.219929148436462], "label": "O", "properties": {}}, {"species": [{"element": "O", "occu": 1}], "abc": [0.90358224, 0.61176964, 0.2488642], "xyz": [8.37887835390144, 5.60342509929644, 13.1087766471714], "label": "O", "properties": {}}, {"species": [{"element": "O", "occu": 1}], "abc": [0.40423117, 0.2501805, 0.24883393], "xyz": [3.74841785323852, 2.2914960164654996, 13.10718219256881], "label": "O", "properties": {}}, {"species": [{"element": "O", "occu": 1}], "abc": [0.82093816, 0.10009015, 0.25098682], "xyz": [7.61252343640096, 0.91676281729565, 13.22058441818394], "label": "O", "properties": {}}, {"species": [{"element": "O", "occu": 1}], "abc": [0.18465093, 0.07065544, 0.33506685], "xyz": [1.71225994924908, 0.64715938812824, 17.64945097977645], "label": "O", "properties": {}}, {"species": [{"element": "O", "occu": 1}], "abc": [0.68477287, 0.79173025, 0.33514428], "xyz": [6.34986869350372, 7.25175109167275, 17.65352955988476], "label": "O", "properties": {}}, {"species": [{"element": "O", "occu": 1}], "abc": [0.57515232, 0.29644794, 0.34150134000000004], "xyz": [5.333362156657921, 2.71527666464574, 17.988383989218782], "label": "O", "properties": {}}, {"species": [{"element": "O", "occu": 1}], "abc": [0.07512451, 0.56533383, 0.34123292000000005], "xyz": [0.6966262757515601, 5.178102287820931, 17.97424512220764], "label": "O", "properties": {}}, {"species": [{"element": "O", "occu": 1}], "abc": [0.26493265, 0.3554807, 0.34853120000000004], "xyz": [2.4567088064134, 3.2559796146397, 18.3586777663104], "label": "O", "properties": {}}, {"species": [{"element": "O", "occu": 1}], "abc": [0.7651119, 0.50650719, 0.34863605000000003], "xyz": [7.0948489837764, 4.63928726737749, 18.36420067893285], "label": "O", "properties": {}}, {"species": [{"element": "O", "occu": 1}], "abc": [0.80226341, 0.24051366, 0.37421239], "xyz": [7.439353301339961, 2.20295384250786, 19.71141947742663], "label": "O", "properties": {}}, {"species": [{"element": "O", "occu": 1}], "abc": [0.30179755, 0.62182914, 0.37398849], "xyz": [2.7985554020578003, 5.69556379187094, 19.69962567546033], "label": "O", "properties": {}}]}, "formula": "(Na3Zr2Si2PO12)6.0", "bandgap": 3.3008, "slab_thickness": 19.70615203572663}