{"miller": "110_0.18", "final_energy": -903.12135712, "gamma": 0.05346196586074266, "work_function": "Not calculated", "ionization_potentail": "Not calculated", "electron_affinity": "Not calculated", "is_stochiometric": true, "incar_parameters": {"SYSTEM": "unknown system", "LCOMPAT": false, "PREC": "normal", "ENMAX": 520.0, "ENAUG": 605.392, "EDIFF": 1e-05, "IALGO": 38, "IWAVPR": 11, "NBANDS": 468, "NBANDSLOW": -1, "NBANDSHIGH": -1, "NELECT": 780.0, "TURBO": 0, "IRESTART": 0, "NREBOOT": 0, "NMIN": 0, "EREF": 0.0, "ISMEAR": 0, "SIGMA": 0.05, "KSPACING": 0.5, "KGAMMA": true, "KBLOWUP": true, "LREAL": true, "ROPT": [-0.0005, -0.0005, -0.0005, -0.0005, -0.0005], "LMAXPAW": -100, "LMAXMIX": 4, "NLSPLINE": false, "ISTART": 0, "ICHARG": 2, "INIWAV": 1, "ISPIN": 1, "LNONCOLLINEAR": false, "MAGMOM": [0.6, 0.6, 0.6, 0.6, 0.6, 0.6, 0.6, 0.6, 0.6, 0.6, 0.6, 0.6, 0.6, 0.6, 0.6, 0.6, 0.6, 0.6, 0.6, 0.6, 0.6, 0.6, 0.6, 0.6, 0.6, 0.6, 0.6, 0.6, 0.6, 0.6, 0.6, 0.6, 0.6, 0.6, 0.6, 0.6, 0.6, 0.6, 0.6, 0.6, 0.6, 0.6, 0.6, 0.6, 0.6, 0.6, 0.6, 0.6, 0.6, 0.6, 0.6, 0.6, 0.6, 0.6, 0.6, 0.6, 0.6, 0.6, 0.6, 0.6, 0.6, 0.6, 0.6, 0.6, 0.6, 0.6, 0.6, 0.6, 0.6, 0.6, 0.6, 0.6, 0.6, 0.6, 0.6, 0.6, 0.6, 0.6, 0.6, 0.6, 0.6, 0.6, 0.6, 0.6, 0.6, 0.6, 0.6, 0.6, 0.6, 0.6, 0.6, 0.6, 0.6, 0.6, 0.6, 0.6, 0.6, 0.6, 0.6, 0.6, 0.6, 0.6, 0.6, 0.6, 0.6, 0.6, 0.6, 0.6, 0.6, 0.6, 0.6, 0.6, 0.6, 0.6, 0.6, 0.6, 0.6, 0.6, 0.6, 0.6], "NUPDOWN": -1.0, "LSORBIT": false, "SAXIS": [0.0, 0.0, 1.0], "LSPIRAL": false, "QSPIRAL": [0.0, 0.0, 0.0], "LZEROZ": false, "LASPH": false, "LMETAGGA": false, "NELM": 100, "NELMDL": -5, "NELMIN": 6, "ENINI": 520.0, "LDIAG": true, "LSUBROT": false, "WEIMIN": 0.001, "EBREAK": 1e-08, "DEPER": 0.3, "NRMM": 4, "TIME": 0.4, "AMIX": 0.4, "BMIX": 1.0, "AMIN": 0.1, "AMIX_MAG": 1.6, "BMIX_MAG": 1.0, "IMIX": 4, "MIXFIRST": false, "MAXMIX": -45, "WC": 100.0, "INIMIX": 1, "MIXPRE": 1, "MREMOVE": 5, "LDIPOL": false, "LMONO": false, "IDIPOL": 0, "EPSILON": 1.0, "DIPOL": [-100.0, -100.0, -100.0], "EFIELD": 0.0, "NGX": 54, "NGY": 54, "NGZ": 294, "NGXF": 108, "NGYF": 108, "NGZF": 588, "ADDGRID": false, "NSW": 150, "IBRION": 2, "MDALGO": 0, "ISIF": 2, "PSTRESS": 0.0, "EDIFFG": -0.01, "NFREE": 1, "POTIM": 0.5, "SMASS": -3.0, "SCALEE": 1.0, "TEBEG": 0.0001, "TEEND": 0.0001, "NBLOCK": 1, "KBLOCK": 150, "NPACO": 256, "APACO": 10.0, "ISYM": 0, "SYMPREC": 1e-05, "LORBIT": 11, "RWIGS": [-1.0, -1.0, -1.0, -1.0, -1.0], "NEDOS": 301, "EMIN": 10.0, "EMAX": -10.0, "EFERMI": 0.0, "NWRITE": 2, "LWAVE": false, "LDOWNSAMPLE": false, "LCHARG": false, "LPARD": false, "LVTOT": false, "LVHAR": false, "LELF": false, "LOPTICS": false, "STM": [0.0, 0.0, 0.0, 0.0, 0.0, 0.0, 0.0], "NPAR": 2, "NSIM": 4, "NBLK": -1, "LPLANE": true, "LSCALAPACK": true, "LSCAAWARE": false, "LSCALU": false, "LASYNC": false, "LORBITALREAL": false, "IDIOT": 3, "PHON_NSTRUCT": -1, "LMUSIC": false, "POMASS": [22.99, 91.224, 28.085, 30.974, 16.0], "DARWINR": [0.0, 0.0, 0.0, 0.0, 0.0], "DARWINV": [1.0, 1.0, 1.0, 1.0, 1.0], "LCORR": true, "GGA_COMPAT": true, "LBERRY": false, "ICORELEVEL": 0, "LDAU": false, "I_CONSTRAINED_M": 0, "GGA": "--", "VOSKOWN": 0, "LHFCALC": false, "PRECFOCK": "", "LSYMGRAD": false, "LHFONE": false, "LRHFCALC": false, "LTHOMAS": false, "LMODELHF": false, "LFOCKACE": false, "ENCUT4O": -1.0, "EXXOEP": 0, "FOURORBIT": 0, "AEXX": 0.0, "HFALPHA": 0.0, "MCALPHA": 0.0, "ALDAX": 1.0, "AGGAX": 1.0, "ALDAC": 1.0, "AGGAC": 1.0, "NKREDX": 1, "NKREDY": 1, "NKREDZ": 1, "SHIFTRED": false, "ODDONLY": false, "EVENONLY": false, "LMAXFOCK": 0, "NMAXFOCKAE": 0, "LFOCKAEDFT": false, "HFSCREEN": 0.0, "HFSCREENC": 0.0, "NBANDSGWLOW": 0, "LUSE_VDW": false, "Zab_VDW": -0.8491, "PARAM1": 0.1234, "PARAM2": 1.0, "PARAM3": 0.0, "MODEL_GW": 0, "MODEL_EPS0": 22.36936168, "MODEL_ALPHA": 1.0, "LEPSILON": false, "LRPA": false, "LNABLA": false, "LVEL": false, "CSHIFT": 0.1, "OMEGAMAX": -1.0, "DEG_THRESHOLD": 0.002, "RTIME": -0.1, "WPLASMAI": 0.0, "DFIELD": [0.0, 0.0, 0.0], "WPLASMA": [0.0, 0.0, 0.0, 0.0, 0.0, 0.0, 0.0, 0.0, 0.0], "NUCIND": false, "MAGPOS": [0.0, 0.0, 0.0], "LNICSALL": true, "ORBITALMAG": false, "LMAGBLOCH": false, "LCHIMAG": false, "LGAUGE": true, "MAGATOM": 0, "MAGDIPOL": [0.0, 0.0, 0.0], "AVECCONST": [0.0, 0.0, 0.0], "LFINITE_TEMPERATURE": false, "LADDER": false, "LRPAFORCE": false, "LFXC": false, "LHARTREE": true, "IBSE": 0, "KPOINT": [-1, 0, 0, 0], "LTCTC": false, "LTCTE": false, "LTETE": false, "LTRIPLET": false, "LFXCEPS": false, "LFXHEG": false, "NATURALO": 2, "LHOLEGF": false, "L2ORDER": false, "LDMP1": false, "LMP2LT": false, "LSMP2LT": false, "LGWLF": false, "ENCUTGW": -2.0, "ENCUTGWSOFT": -2.0, "ENCUTLF": -1.0, "LESF_SPLINES": false, "LMAXMP2": -1, "SCISSOR": 0.0, "NOMEGA": 0, "NOMEGAR": 0, "NBANDSGW": -1, "NBANDSO": -1, "NBANDSV": -1, "NELMGW": 1, "NELMHF": 1, "DIM": 3, "IESPILON": 4, "ANTIRES": 0, "OMEGAMIN": -30.0, "OMEGATL": -200.0, "OMEGAGRID": 0, "LSELFENERGY": false, "LSPECTRAL": false, "LSPECTRALGW": false, "LSINGLES": false, "LFERMIGW": false, "ODDONLYGW": false, "EVENONLYGW": false, "NKREDLFX": 1, "NKREDLFY": 1, "NKREDLFZ": 1, "MAXMEM": 2800, "TELESCOPE": 0, "NTAUPAR": -1, "NOMEGAPAR": -1, "DAMP_NEWTON": 0.80000001, "LAMBDA": 1.0, "OFIELD_KAPPA": 0.0, "OFIELD_K": [0.0, 0.0, 0.0], "OFIELD_Q6_NEAR": 0.0, "OFIELD_Q6_FAR": 0.0, "OFIELD_A": 0.0, "KPOINTS_OPT_MODE": 1, "LKPOINTS_OPT": false, "@module": "pymatgen.io.vasp.inputs", "@class": "Incar"}, "relaxed_structures": {"@module": "pymatgen.core.structure", "@class": "Structure", "charge": 0, "lattice": {"matrix": [[9.272956, 0.0, 0.0], [0.0, 9.159371, 0.0], [0.0, 0.0, 52.674417]], "a": 9.272956, "b": 9.159371, "c": 52.674417, "alpha": 90.0, "beta": 90.0, "gamma": 90.0, "volume": 4473.8723351768485}, "sites": [{"species": [{"element": "Na", "occu": 1}], "abc": [0.74860627, 0.73402594, 0.00894292], "xyz": [6.941793003034121, 6.72321590808374, 0.47106309727764], "label": "Na", "properties": {}}, {"species": [{"element": "Na", "occu": 1}], "abc": [0.24825705, 0.08440655, 0.008895630000000002], "xyz": [2.3020767013398, 0.77311090628005, 0.46857212409771004], "label": "Na", "properties": {}}, {"species": [{"element": "Na", "occu": 1}], "abc": [0.64336971, 0.50563334, 0.06000303], "xyz": [5.96593901256276, 4.631283351029141, 3.16062462348351], "label": "Na", "properties": {}}, {"species": [{"element": "Na", "occu": 1}], "abc": [0.143388, 0.31252139, 0.059982060000000004], "xyz": [1.329630614928, 2.86249935644569, 3.1595200409590203], "label": "Na", "properties": {}}, {"species": [{"element": "Na", "occu": 1}], "abc": [0.26566845, 0.27385232, 0.14202637], "xyz": [2.4635318474382, 2.50831499809072, 7.481156238376291], "label": "Na", "properties": {}}, {"species": [{"element": "Na", "occu": 1}], "abc": [0.97547051, 0.02663457, 0.10681215], "xyz": [9.04549511852756, 0.24395590805547, 5.62626772976655], "label": "Na", "properties": {}}, {"species": [{"element": "Na", "occu": 1}], "abc": [0.47602893, 0.79185141, 0.10690405], "xyz": [4.41419532261708, 7.252860841063111, 5.6311085086888495], "label": "Na", "properties": {}}, {"species": [{"element": "Na", "occu": 1}], "abc": [0.76620827, 0.54421661, 0.14202416], "xyz": [7.105015574546121, 4.98468183535231, 7.48103982791472], "label": "Na", "properties": {}}, {"species": [{"element": "Na", "occu": 1}], "abc": [0.10567301, 0.01529123, 0.18722919], "xyz": [0.97990117211756, 0.14005804861633, 9.86218842863223], "label": "Na", "properties": {}}, {"species": [{"element": "Na", "occu": 1}], "abc": [0.60583931, 0.80293771, 0.18720179], "xyz": [5.61792126470036, 7.35440437578041, 9.86074514960643], "label": "Na", "properties": {}}, {"species": [{"element": "Na", "occu": 1}], "abc": [0.7369119, 0.79109953, 0.26728776], "xyz": [6.8333516245764, 7.24597409319563, 14.079226929235919], "label": "Na", "properties": {}}, {"species": [{"element": "Na", "occu": 1}], "abc": [0.44552618, 0.54351908, 0.23206155], "xyz": [4.13134466398808, 4.978292899298681, 12.22370685436635], "label": "Na", "properties": {}}, {"species": [{"element": "Na", "occu": 1}], "abc": [0.94565952, 0.27484879, 0.23203886], "xyz": [8.76905911994112, 2.51744203651109, 12.22251167184462], "label": "Na", "properties": {}}, {"species": [{"element": "Na", "occu": 1}], "abc": [0.23678772, 0.02704637, 0.26729077], "xyz": [2.1957221089003203, 0.24772773703327, 14.07938547923109], "label": "Na", "properties": {}}, {"species": [{"element": "Na", "occu": 1}], "abc": [0.57022149, 0.50526889, 0.31406725], "xyz": [5.287638787024441, 4.62794521826819, 16.54330929254325], "label": "Na", "properties": {}}, {"species": [{"element": "Na", "occu": 1}], "abc": [0.07022089, 0.31250172, 0.31412664], "xyz": [0.65115522325084, 2.86231919161812, 16.54643762616888], "label": "Na", "properties": {}}, {"species": [{"element": "Na", "occu": 1}], "abc": [0.96445108, 0.08406922, 0.36512744], "xyz": [8.943312428992481, 0.77002117566062, 19.23287503270248], "label": "Na", "properties": {}}, {"species": [{"element": "Na", "occu": 1}], "abc": [0.46470269, 0.73367339, 0.36506962], "xyz": [4.30916759745164, 6.71998677183769, 19.229829397911537], "label": "Na", "properties": {}}, {"species": [{"element": "Zr", "occu": 1}], "abc": [0.34347105, 0.64027497, 0.040056930000000004], "xyz": [3.1849919339238, 5.86451599224387, 2.1099754345598103], "label": "Zr", "properties": {}}, {"species": [{"element": "Zr", "occu": 1}], "abc": [0.8433792, 0.17840124, 0.039977929999999995], "xyz": [7.820618212915201, 1.63404314402004, 2.1058141556168097], "label": "Zr", "properties": {}}, {"species": [{"element": "Zr", "occu": 1}], "abc": [0.81876427, 0.15489809, 0.16224725], "xyz": [7.59236505008212, 1.4187690735013898, 8.54627930360325], "label": "Zr", "properties": {}}, {"species": [{"element": "Zr", "occu": 1}], "abc": [0.42044375, 0.16346716, 0.08593438], "xyz": [3.8987563942250003, 1.49725636475636, 4.52654336675646], "label": "Zr", "properties": {}}, {"species": [{"element": "Zr", "occu": 1}], "abc": [0.92055391, 0.65503715, 0.08589833999999999], "xyz": [8.53625590305796, 5.999728275632649, 4.524644980767779], "label": "Zr", "properties": {}}, {"species": [{"element": "Zr", "occu": 1}], "abc": [0.31859236, 0.66345271, 0.16228741], "xyz": [2.9542929362161603, 6.0768095118454095, 8.548394708189969], "label": "Zr", "properties": {}}, {"species": [{"element": "Zr", "occu": 1}], "abc": [0.2927916, 0.65478855, 0.28825889], "xyz": [2.7150436239696, 5.9974512560020505, 15.183868975817129], "label": "Zr", "properties": {}}, {"species": [{"element": "Zr", "occu": 1}], "abc": [0.89379024, 0.66387251, 0.21188905000000002], "xyz": [8.28807756874944, 6.08065461579121, 11.161132177433851], "label": "Zr", "properties": {}}, {"species": [{"element": "Zr", "occu": 1}], "abc": [0.39375647, 0.15504943, 0.21186265999999998], "xyz": [3.6512864210253206, 1.42015525270853, 11.159742099569218], "label": "Zr", "properties": {}}, {"species": [{"element": "Zr", "occu": 1}], "abc": [0.79281761, 0.16347808, 0.28825534], "xyz": [7.35176281355516, 1.49735638508768, 15.18368198163678], "label": "Zr", "properties": {}}, {"species": [{"element": "Zr", "occu": 1}], "abc": [0.37021069, 0.17775081, 0.33409195], "xyz": [3.43294743909964, 1.62808561434051, 17.598098690643152], "label": "Zr", "properties": {}}, {"species": [{"element": "Zr", "occu": 1}], "abc": [0.87025569, 0.63967575, 0.33413132], "xyz": [8.06984272211964, 5.85902751395325, 17.60017248244044], "label": "Zr", "properties": {}}, {"species": [{"element": "Si", "occu": 1}], "abc": [0.9848095, 0.51784894, 0.024689210000000003], "xyz": [9.132095161882, 4.74317056341674, 1.3004897429405702], "label": "Si", "properties": {}}, {"species": [{"element": "Si", "occu": 1}], "abc": [0.48437337, 0.30075475, 0.024709819999999993], "xyz": [4.49157294758172, 2.7547243352622504, 1.3015753626749396], "label": "Si", "properties": {}}, {"species": [{"element": "Si", "occu": 1}], "abc": [0.46091541, 0.01962682, 0.15130705], "xyz": [4.27404831665196, 0.17976932593022, 7.9700106467398495], "label": "Si", "properties": {}}, {"species": [{"element": "Si", "occu": 1}], "abc": [0.77554636, 0.30191895, 0.09891358], "xyz": [7.1916072722401605, 2.7653876749804502, 5.21021515988286], "label": "Si", "properties": {}}, {"species": [{"element": "Si", "occu": 1}], "abc": [0.27560482, 0.51657555, 0.09895984999999999], "xyz": [2.55567136924792, 4.73150711197905, 5.212652405157449], "label": "Si", "properties": {}}, {"species": [{"element": "Si", "occu": 1}], "abc": [0.96089899, 0.79901996, 0.15127363], "xyz": [8.91037405471444, 7.31852025004516, 7.968250267723709], "label": "Si", "properties": {}}, {"species": [{"element": "Si", "occu": 1}], "abc": [0.93772085, 0.51660272, 0.27522902], "xyz": [8.6954441823326, 4.73175597208912, 14.497528169981338], "label": "Si", "properties": {}}, {"species": [{"element": "Si", "occu": 1}], "abc": [0.25142355, 0.79889998, 0.22289662], "xyz": [2.3314395165138, 7.3174213087125795, 11.74094950977054], "label": "Si", "properties": {}}, {"species": [{"element": "Si", "occu": 1}], "abc": [0.75125617, 0.01977006, 0.22289377], "xyz": [6.96636540913852, 0.18108131423225998, 11.74079938768209], "label": "Si", "properties": {}}, {"species": [{"element": "Si", "occu": 1}], "abc": [0.43754637, 0.30148284, 0.27523021], "xyz": [4.0573482369697205, 2.7613931816936397, 14.497590852537568], "label": "Si", "properties": {}}, {"species": [{"element": "Si", "occu": 1}], "abc": [0.72885071, 0.30034776, 0.34950207], "xyz": [6.758600564398761, 2.75099656285896, 18.40981777754319], "label": "Si", "properties": {}}, {"species": [{"element": "Si", "occu": 1}], "abc": [0.22912563, 0.51743695, 0.34952349], "xyz": [2.12467188546228, 4.73939699415845, 18.41094606355533], "label": "Si", "properties": {}}, {"species": [{"element": "P", "occu": 1}], "abc": [0.6337713, 0.87148993, 0.05788557], "xyz": [5.876933378962801, 7.98229959163403, 3.04908865246269], "label": "P", "properties": {}}, {"species": [{"element": "P", "occu": 1}], "abc": [0.13379378, 0.94732767, 0.05790418], "xyz": [1.24066383501368, 8.67692558809557, 3.05006892336306], "label": "P", "properties": {}}, {"species": [{"element": "P", "occu": 1}], "abc": [0.10605352, 0.36770011, 0.18707473], "xyz": [0.9834296246051201, 3.3679017242308102, 9.85405233818241], "label": "P", "properties": {}}, {"species": [{"element": "P", "occu": 1}], "abc": [0.60664066, 0.4509468, 0.1870962], "xyz": [5.625352147990961, 4.1303890424628, 9.8551832579154], "label": "P", "properties": {}}, {"species": [{"element": "P", "occu": 1}], "abc": [0.58021914, 0.87078189, 0.31615378], "xyz": [5.38034655557784, 7.975814390591189, 16.65321604384626], "label": "P", "properties": {}}, {"species": [{"element": "P", "occu": 1}], "abc": [0.08004978, 0.94692944, 0.31622036], "xyz": [0.7422980877496801, 8.67327805178224, 16.65672310653012], "label": "P", "properties": {}}, {"species": [{"element": "O", "occu": 1}], "abc": [0.89276073, 0.57176173, 0.050548159999999995], "xyz": [8.278530967817881, 5.2369778086718295, 2.6625948584227195], "label": "O", "properties": {}}, {"species": [{"element": "O", "occu": 1}], "abc": [0.87753672, 0.2246993, 0.07637788], "xyz": [8.13735939294432, 2.0581042521403, 4.0231603006959595], "label": "O", "properties": {}}, {"species": [{"element": "O", "occu": 1}], "abc": [0.37776682, 0.59356687, 0.07643072], "xyz": [3.5030151001199203, 5.43669917563877, 4.025943616890239], "label": "O", "properties": {}}, {"species": [{"element": "O", "occu": 1}], "abc": [0.392615, 0.24685533, 0.050585889999999994], "xyz": [3.64070161994, 2.26103955079743, 2.6645822641761296], "label": "O", "properties": {}}, {"species": [{"element": "O", "occu": 1}], "abc": [0.24221629, 0.85565203, 0.042001800000000006], "xyz": [2.24606099965324, 7.83723438967313, 2.2124203279506003], "label": "O", "properties": {}}, {"species": [{"element": "O", "occu": 1}], "abc": [0.52695394, 0.96794762, 0.07311589], "xyz": [4.8864206996466395, 8.86579136014702, 3.85133687918613], "label": "O", "properties": {}}, {"species": [{"element": "O", "occu": 1}], "abc": [0.02699002, 0.85067591, 0.07309579], "xyz": [0.25027726789912, 7.79165626045261, 3.8502781234044297], "label": "O", "properties": {}}, {"species": [{"element": "O", "occu": 1}], "abc": [0.74198451, 0.96319519, 0.04194447], "xyz": [6.88038971391156, 8.82226209062549, 2.2094005036239897], "label": "O", "properties": {}}, {"species": [{"element": "O", "occu": 1}], "abc": [0.55031958, 0.76973256, 0.03908778], "xyz": [5.1030892512784805, 7.05026608781976, 2.05892602332426], "label": "O", "properties": {}}, {"species": [{"element": "O", "occu": 1}], "abc": [0.21177887, 0.04519142, 0.07784312], "xyz": [1.9638161432397203, 0.41392498179682, 4.10034096346104], "label": "O", "properties": {}}, {"species": [{"element": "O", "occu": 1}], "abc": [0.71206366, 0.77371112, 0.07779941], "xyz": [6.60293498837896, 7.08670719490552, 4.09803856469397], "label": "O", "properties": {}}, {"species": [{"element": "O", "occu": 1}], "abc": [0.05042563, 0.0489982, 0.03908038999999999], "xyz": [0.46759464826228003, 0.4487926921322, 2.0585367593826294], "label": "O", "properties": {}}, {"species": [{"element": "O", "occu": 1}], "abc": [0.15988207, 0.54332846, 0.032928639999999995], "xyz": [1.4825794002989199, 4.97654693999866, 1.7344969146028797], "label": "O", "properties": {}}, {"species": [{"element": "O", "occu": 1}], "abc": [0.65963504, 0.27507147, 0.03285423], "xyz": [6.11676670197824, 2.51948164524537, 1.7305774112339098], "label": "O", "properties": {}}, {"species": [{"element": "O", "occu": 1}], "abc": [0.46996309, 0.48500937, 0.02561247], "xyz": [4.35794705519404, 4.44238075830627, 1.34912192517999], "label": "O", "properties": {}}, {"species": [{"element": "O", "occu": 1}], "abc": [0.97015486, 0.333591, 0.02554703], "xyz": [8.99620332996616, 3.0554837312610004, 1.3456749113315098], "label": "O", "properties": {}}, {"species": [{"element": "O", "occu": 1}], "abc": [0.93376887, 0.60013142, 0.00010000000000000286], "xyz": [8.658797645679721, 5.49682632453682, 0.005267441700000151], "label": "O", "properties": {}}, {"species": [{"element": "O", "occu": 1}], "abc": [0.43298627, 0.21892146, 0.00010165999999999648], "xyz": [4.01506263031412, 2.0051828720016602, 0.005354881232219814], "label": "O", "properties": {}}, {"species": [{"element": "O", "occu": 1}], "abc": [0.36034356, 0.09906275, 0.17306103], "xyz": [3.3414499767633603, 0.9073524795302501, 9.11588886066951], "label": "O", "properties": {}}, {"species": [{"element": "O", "occu": 1}], "abc": [0.35181445, 0.71938187, 0.20112006], "xyz": [3.2623599150142004, 6.58908543800377, 10.593881907505018], "label": "O", "properties": {}}, {"species": [{"element": "O", "occu": 1}], "abc": [0.85184123, 0.09871227, 0.20108006], "xyz": [7.899086244775881, 0.90414230318217, 10.59177493082502], "label": "O", "properties": {}}, {"species": [{"element": "O", "occu": 1}], "abc": [0.86028827, 0.72031845, 0.17310339], "xyz": [7.97741527502612, 6.59766392169495, 9.11812014897363], "label": "O", "properties": {}}, {"species": [{"element": "O", "occu": 1}], "abc": [0.7180957, 0.35674945, 0.17269223], "xyz": [6.6588698298892, 3.2676005665959504, 9.09646253567991], "label": "O", "properties": {}}, {"species": [{"element": "O", "occu": 1}], "abc": [0.99482676, 0.46254612, 0.20139001], "xyz": [9.22498477310256, 4.23663151769052, 10.60810136637417], "label": "O", "properties": {}}, {"species": [{"element": "O", "occu": 1}], "abc": [0.49515626, 0.35635448, 0.20143277], "xyz": [4.59156221210456, 3.26398288983208, 10.61035372444509], "label": "O", "properties": {}}, {"species": [{"element": "O", "occu": 1}], "abc": [0.21759225, 0.46171497, 0.17264441], "xyz": [2.017723360191, 4.2290187064838705, 9.09394364505897], "label": "O", "properties": {}}, {"species": [{"element": "O", "occu": 1}], "abc": [0.03099129, 0.2682649, 0.16717662], "xyz": [0.28738086855324, 2.4571377453778998, 8.80593099453054], "label": "O", "properties": {}}, {"species": [{"element": "O", "occu": 1}], "abc": [0.68140842, 0.54992281, 0.20710299], "xyz": [6.318670296689521, 5.03694703815251, 10.909029257206829], "label": "O", "properties": {}}, {"species": [{"element": "O", "occu": 1}], "abc": [0.18090213, 0.26868062, 0.20707506], "xyz": [1.6774974917962802, 2.46094547909002, 10.907558060740019], "label": "O", "properties": {}}, {"species": [{"element": "O", "occu": 1}], "abc": [0.53165514, 0.55035437, 0.16718647], "xyz": [4.9300147203938405, 5.04089985630127, 8.80644983753799], "label": "O", "properties": {}}, {"species": [{"element": "O", "occu": 1}], "abc": [0.63166385, 0.05094762, 0.15788728999999999], "xyz": [5.8573910878406, 0.46664815314702, 8.316620952459928], "label": "O", "properties": {}}, {"species": [{"element": "O", "occu": 1}], "abc": [0.60793376, 0.26750703, 0.09180409], "xyz": [5.63734300739456, 2.45019613287813, 4.8357269189655305], "label": "O", "properties": {}}, {"species": [{"element": "O", "occu": 1}], "abc": [0.10802795, 0.55121124, 0.09186855], "xyz": [1.0017384271202001, 5.04874824653004, 4.839122311885349], "label": "O", "properties": {}}, {"species": [{"element": "O", "occu": 1}], "abc": [0.13154547, 0.76745415, 0.15790785], "xyz": [1.21981535530932, 7.02939728533965, 8.31770393847345], "label": "O", "properties": {}}, {"species": [{"element": "O", "occu": 1}], "abc": [0.94473445, 0.97833896, 0.15170169], "xyz": [8.760480986534201, 8.96096949839416, 7.99079807866473], "label": "O", "properties": {}}, {"species": [{"element": "O", "occu": 1}], "abc": [0.29348174, 0.33845961, 0.09936416], "xyz": [2.72144326182344, 3.1000771365053104, 5.23394919869472], "label": "O", "properties": {}}, {"species": [{"element": "O", "occu": 1}], "abc": [0.7934837, 0.48004501, 0.09929082], "xyz": [7.3579394368172, 4.39691034328871, 5.23008605695194], "label": "O", "properties": {}}, {"species": [{"element": "O", "occu": 1}], "abc": [0.44435264, 0.84031021, 0.15182829], "xyz": [4.120462479203841, 7.696712968477909, 7.99746665985693], "label": "O", "properties": {}}, {"species": [{"element": "O", "occu": 1}], "abc": [0.82993967, 0.22892217, 0.12530536], "xyz": [7.695994042564521, 2.09678308515507, 6.60038678497512], "label": "O", "properties": {}}, {"species": [{"element": "O", "occu": 1}], "abc": [0.41286408, 0.0773797, 0.12315250999999999], "xyz": [3.8284704478204805, 0.7087493801686999, 6.486986666336669], "label": "O", "properties": {}}, {"species": [{"element": "O", "occu": 1}], "abc": [0.91255389, 0.74080121, 0.12315428], "xyz": [8.46207206959884, 6.78527311963891, 6.48707990005476], "label": "O", "properties": {}}, {"species": [{"element": "O", "occu": 1}], "abc": [0.32998997, 0.58981226, 0.12533928], "xyz": [3.0599824722513205, 5.40230930968846, 6.6021735011997595], "label": "O", "properties": {}}, {"species": [{"element": "O", "occu": 1}], "abc": [0.83538038, 0.59342398, 0.29773225], "xyz": [7.746445507003281, 5.43539039311658, 15.682872690848248], "label": "O", "properties": {}}, {"species": [{"element": "O", "occu": 1}], "abc": [0.82076076, 0.24624591, 0.32364325], "xyz": [7.61087841400656, 2.25545764692261, 17.04771950973525], "label": "O", "properties": {}}, {"species": [{"element": "O", "occu": 1}], "abc": [0.32065114, 0.57215514, 0.32365752], "xyz": [2.9733839125698402, 5.24058119681694, 17.04847117366584], "label": "O", "properties": {}}, {"species": [{"element": "O", "occu": 1}], "abc": [0.33539525, 0.22410583, 0.29770452], "xyz": [3.110105395859, 2.0526684402329303, 15.681412029264838], "label": "O", "properties": {}}, {"species": [{"element": "O", "occu": 1}], "abc": [0.18696577, 0.85088173, 0.30094289], "xyz": [1.73372535871612, 7.79354144219183, 15.85199128104513], "label": "O", "properties": {}}, {"species": [{"element": "O", "occu": 1}], "abc": [0.47170833, 0.96264612, 0.3319985], "xyz": [4.374130588923481, 8.817232954790521, 17.487827432374498], "label": "O", "properties": {}}, {"species": [{"element": "O", "occu": 1}], "abc": [0.97185828, 0.85473395, 0.33208023], "xyz": [9.01199906867568, 7.82882535434545, 17.49213251247591], "label": "O", "properties": {}}, {"species": [{"element": "O", "occu": 1}], "abc": [0.68676615, 0.96737485, 0.30089754], "xyz": [6.3683522912394, 8.86054514721935, 15.84960249623418], "label": "O", "properties": {}}, {"species": [{"element": "O", "occu": 1}], "abc": [0.502069, 0.77246939, 0.29630329], "xyz": [4.6556637459640005, 7.075333729153691, 15.607603055931929], "label": "O", "properties": {}}, {"species": [{"element": "O", "occu": 1}], "abc": [0.16337742, 0.04838006, 0.33509086], "xyz": [1.51499162705352, 0.44313091854226005, 17.650715692528617], "label": "O", "properties": {}}, {"species": [{"element": "O", "occu": 1}], "abc": [0.66371597, 0.7695366, 0.33502394], "xyz": [6.154608986307321, 7.048471217478601, 17.64719072054298], "label": "O", "properties": {}}, {"species": [{"element": "O", "occu": 1}], "abc": [0.00165862, 0.04506481, 0.29636833], "xyz": [0.01538031028072, 0.41276531383451, 15.61102900001361], "label": "O", "properties": {}}, {"species": [{"element": "O", "occu": 1}], "abc": [0.10523031, 0.55077219, 0.28247652], "xyz": [0.97579603449636, 5.04472682469249, 14.87928600718884], "label": "O", "properties": {}}, {"species": [{"element": "O", "occu": 1}], "abc": [0.08065078, 0.76816296, 0.21623891], "xyz": [0.7478711343056801, 7.03588953909816, 11.39025851696547], "label": "O", "properties": {}}, {"species": [{"element": "O", "occu": 1}], "abc": [0.58059031, 0.05068086, 0.21622391000000002], "xyz": [5.383788398656361, 0.46420479933906, 11.38946840071047], "label": "O", "properties": {}}, {"species": [{"element": "O", "occu": 1}], "abc": [0.60516908, 0.26754865, 0.28241903], "xyz": [5.611706251400481, 2.45057734589915, 14.87625775495551], "label": "O", "properties": {}}, {"species": [{"element": "O", "occu": 1}], "abc": [0.41919716, 0.47956796, 0.27481499], "xyz": [3.8871968200049603, 4.39254086535316, 14.475719381110828], "label": "O", "properties": {}}, {"species": [{"element": "O", "occu": 1}], "abc": [0.76799897, 0.84047824, 0.22247558], "xyz": [7.12162065685532, 7.69825201758704, 11.71877147323686], "label": "O", "properties": {}}, {"species": [{"element": "O", "occu": 1}], "abc": [0.26817186, 0.97820419, 0.22239980999999998], "xyz": [2.48674585821816, 8.959735089964491, 11.714780332660768], "label": "O", "properties": {}}, {"species": [{"element": "O", "occu": 1}], "abc": [0.91962704, 0.33847004, 0.27479581], "xyz": [8.52766107833024, 3.10017266874484, 14.474709085792767], "label": "O", "properties": {}}, {"species": [{"element": "O", "occu": 1}], "abc": [0.29951345, 0.74058714, 0.25101095], "xyz": [2.7773750432582003, 6.783312373088941, 13.22185545186615], "label": "O", "properties": {}}, {"species": [{"element": "O", "occu": 1}], "abc": [0.88380979, 0.5899335, 0.24883653], "xyz": [8.195529295039242, 5.4034197918285, 13.10731914605301], "label": "O", "properties": {}}, {"species": [{"element": "O", "occu": 1}], "abc": [0.38335887, 0.2285176, 0.24881977], "xyz": [3.5548699337197203, 2.0930774784296, 13.10643632282409], "label": "O", "properties": {}}, {"species": [{"element": "O", "occu": 1}], "abc": [0.79948224, 0.07827045, 0.25098345], "xyz": [7.413563634301441, 0.7169080898869501, 13.220406905398649], "label": "O", "properties": {}}, {"species": [{"element": "O", "occu": 1}], "abc": [0.55377909, 0.27462326, 0.34123504], "xyz": [5.135169135290041, 2.51537632356946, 17.97435679197168], "label": "O", "properties": {}}, {"species": [{"element": "O", "occu": 1}], "abc": [0.05382469, 0.54286853, 0.34133746], "xyz": [0.49911398208364005, 4.97233427049463, 17.97975170576082], "label": "O", "properties": {}}, {"species": [{"element": "O", "occu": 1}], "abc": [0.24381157, 0.33323881, 0.34850298], "xyz": [2.26085396090092, 3.05225789238851, 18.35719129426266], "label": "O", "properties": {}}, {"species": [{"element": "O", "occu": 1}], "abc": [0.74334777, 0.48459341, 0.34853907], "xyz": [6.8930311639081205, 4.43857082634511, 18.35909231397219], "label": "O", "properties": {}}, {"species": [{"element": "O", "occu": 1}], "abc": [0.77994997, 0.21857451, 0.37413268], "xyz": [7.232441754011321, 2.00200502823321, 19.70722079964756], "label": "O", "properties": {}}, {"species": [{"element": "O", "occu": 1}], "abc": [0.28035763, 0.59902603, 0.37416435], "xyz": [2.5997439672542804, 5.48670164742713, 19.70888899843395], "label": "O", "properties": {}}]}, "formula": "(Na3Zr2Si2PO12)6.0", "bandgap": 3.3011, "slab_thickness": 19.70362155673395}