{"miller": "100_0.25", "final_energy": -147.31736919, "gamma": 0.00529458314356813, "work_function": 6.914572551982278, "ionization_potentail": -7.144172551982278, "electron_affinity": -1.1820725519822783, "is_stochiometric": true, "incar_parameters": {"SYSTEM": "unknown system", "LCOMPAT": false, "PREC": "normal", "ENMAX": 520.0, "ENAUG": 628.945, "EDIFF": 1e-05, "IALGO": 38, "IWAVPR": 11, "NBANDS": 121, "NBANDSLOW": -1, "NBANDSHIGH": -1, "NELECT": 200.0, "TURBO": 0, "IRESTART": 0, "NREBOOT": 0, "NMIN": 0, "EREF": 0.0, "ISMEAR": 0, "SIGMA": 0.05, "KSPACING": 0.5, "KGAMMA": true, "KBLOWUP": true, "LREAL": true, "ROPT": [-0.0005, -0.0005], "LMAXPAW": -100, "LMAXMIX": 2, "NLSPLINE": false, "ISTART": 0, "ICHARG": 2, "INIWAV": 1, "ISPIN": 1, "LNONCOLLINEAR": false, "MAGMOM": [0.6, 0.6, 0.6, 0.6, 0.6, 0.6, 0.6, 0.6, 0.6, 0.6, 0.6, 0.6, 0.6, 0.6, 0.6, 0.6, 0.6, 0.6, 0.6, 0.6, 0.6, 0.6, 0.6, 0.6, 0.6, 0.6, 0.6, 0.6, 0.6, 0.6, 0.6, 0.6, 0.6, 0.6, 0.6, 0.6, 0.6, 0.6, 0.6, 0.6], "NUPDOWN": -1.0, "LSORBIT": false, "SAXIS": [0.0, 0.0, 1.0], "LSPIRAL": false, "QSPIRAL": [0.0, 0.0, 0.0], "LZEROZ": false, "LASPH": false, "LMETAGGA": false, "NELM": 100, "NELMDL": -5, "NELMIN": 6, "ENINI": 520.0, "LDIAG": true, "LSUBROT": false, "WEIMIN": 0.001, "EBREAK": 2e-08, "DEPER": 0.3, "NRMM": 4, "TIME": 0.4, "AMIX": 0.4, "BMIX": 1.0, "AMIN": 0.1, "AMIX_MAG": 1.6, "BMIX_MAG": 1.0, "IMIX": 4, "MIXFIRST": false, "MAXMIX": -45, "WC": 100.0, "INIMIX": 1, "MIXPRE": 1, "MREMOVE": 5, "LDIPOL": false, "LMONO": false, "IDIPOL": 0, "EPSILON": 1.0, "DIPOL": [-100.0, -100.0, -100.0], "EFIELD": 0.0, "NGX": 30, "NGY": 30, "NGZ": 240, "NGXF": 60, "NGYF": 60, "NGZF": 480, "ADDGRID": false, "NSW": 150, "IBRION": 2, "MDALGO": 0, "ISIF": 2, "PSTRESS": 0.0, "EDIFFG": -0.01, "NFREE": 1, "POTIM": 0.5, "SMASS": -3.0, "SCALEE": 1.0, "TEBEG": 0.0001, "TEEND": 0.0001, "NBLOCK": 1, "KBLOCK": 150, "NPACO": 256, "APACO": 10.0, "ISYM": 0, "SYMPREC": 1e-05, "LORBIT": 11, "RWIGS": [-1.0, -1.0], "NEDOS": 301, "EMIN": 10.0, "EMAX": -10.0, "EFERMI": 0.0, "NWRITE": 2, "LWAVE": false, "LDOWNSAMPLE": false, "LCHARG": false, "LPARD": false, "LVTOT": false, "LVHAR": false, "LELF": false, "LOPTICS": false, "STM": [0.0, 0.0, 0.0, 0.0, 0.0, 0.0, 0.0], "NPAR": 1, "NSIM": 4, "NBLK": -1, "LPLANE": true, "LSCALAPACK": true, "LSCAAWARE": false, "LSCALU": false, "LASYNC": false, "LORBITALREAL": false, "IDIOT": 3, "PHON_NSTRUCT": -1, "LMUSIC": false, "POMASS": [7.01, 35.453], "DARWINR": [0.0, 0.0], "DARWINV": [1.0, 1.0], "LCORR": true, "GGA_COMPAT": true, "LBERRY": false, "ICORELEVEL": 0, "LDAU": false, "I_CONSTRAINED_M": 0, "GGA": "--", "VOSKOWN": 0, "LHFCALC": false, "PRECFOCK": "", "LSYMGRAD": false, "LHFONE": false, "LRHFCALC": false, "LTHOMAS": false, "LMODELHF": false, "LFOCKACE": false, "ENCUT4O": -1.0, "EXXOEP": 0, "FOURORBIT": 0, "AEXX": 0.0, "HFALPHA": 0.0, "MCALPHA": 0.0, "ALDAX": 1.0, "AGGAX": 1.0, "ALDAC": 1.0, "AGGAC": 1.0, "NKREDX": 1, "NKREDY": 1, "NKREDZ": 1, "SHIFTRED": false, "ODDONLY": false, "EVENONLY": false, "LMAXFOCK": 0, "NMAXFOCKAE": 0, "LFOCKAEDFT": false, "HFSCREEN": 0.0, "HFSCREENC": 0.0, "NBANDSGWLOW": 0, "LUSE_VDW": false, "Zab_VDW": -0.8491, "PARAM1": 0.1234, "PARAM2": 1.0, "PARAM3": 0.0, "MODEL_GW": 0, "MODEL_EPS0": 16.38705622, "MODEL_ALPHA": 1.0, "LEPSILON": false, "LRPA": false, "LNABLA": false, "LVEL": false, "CSHIFT": 0.1, "OMEGAMAX": -1.0, "DEG_THRESHOLD": 0.002, "RTIME": -0.1, "WPLASMAI": 0.0, "DFIELD": [0.0, 0.0, 0.0], "WPLASMA": [0.0, 0.0, 0.0, 0.0, 0.0, 0.0, 0.0, 0.0, 0.0], "NUCIND": false, "MAGPOS": [0.0, 0.0, 0.0], "LNICSALL": true, "ORBITALMAG": false, "LMAGBLOCH": false, "LCHIMAG": false, "LGAUGE": true, "MAGATOM": 0, "MAGDIPOL": [0.0, 0.0, 0.0], "AVECCONST": [0.0, 0.0, 0.0], "LFINITE_TEMPERATURE": false, "LADDER": false, "LRPAFORCE": false, "LFXC": false, "LHARTREE": true, "IBSE": 0, "KPOINT": [-1, 0, 0, 0], "LTCTC": false, "LTCTE": false, "LTETE": false, "LTRIPLET": false, "LFXCEPS": false, "LFXHEG": false, "NATURALO": 2, "LHOLEGF": false, "L2ORDER": false, "LDMP1": false, "LMP2LT": false, "LSMP2LT": false, "LGWLF": false, "ENCUTGW": -2.0, "ENCUTGWSOFT": -2.0, "ENCUTLF": -1.0, "LESF_SPLINES": false, "LMAXMP2": -1, "SCISSOR": 0.0, "NOMEGA": 0, "NOMEGAR": 0, "NBANDSGW": -1, "NBANDSO": -1, "NBANDSV": -1, "NELMGW": 1, "NELMHF": 1, "DIM": 3, "IESPILON": 4, "ANTIRES": 0, "OMEGAMIN": -30.0, "OMEGATL": -200.0, "OMEGAGRID": 0, "LSELFENERGY": false, "LSPECTRAL": false, "LSPECTRALGW": false, "LSINGLES": false, "LFERMIGW": false, "ODDONLYGW": false, "EVENONLYGW": false, "NKREDLFX": 1, "NKREDLFY": 1, "NKREDLFZ": 1, "MAXMEM": 2800, "TELESCOPE": 0, "NTAUPAR": -1, "NOMEGAPAR": -1, "DAMP_NEWTON": 0.80000001, "LAMBDA": 1.0, "OFIELD_KAPPA": 0.0, "OFIELD_K": [0.0, 0.0, 0.0], "OFIELD_Q6_NEAR": 0.0, "OFIELD_Q6_FAR": 0.0, "OFIELD_A": 0.0, "KPOINTS_OPT_MODE": 1, "LKPOINTS_OPT": false, "@module": "pymatgen.io.vasp.inputs", "@class": "Incar"}, "relaxed_structures": {"@module": "pymatgen.core.structure", "@class": "Structure", "charge": 0, "lattice": {"matrix": [[5.149597, 0.0, 0.0], [0.0, 5.149597, 0.0], [0.0, 0.0, 41.196773]], "a": 5.149597, "b": 5.149597, "c": 41.196773, "alpha": 90.0, "beta": 90.0, "gamma": 90.0, "volume": 1092.470414898181}, "sites": [{"species": [{"element": "Li", "occu": 1}], "abc": [1.78e-06, 0.99999825, 0.06167509000000001], "xyz": [9.16628266e-06, 5.1495879882052495, 2.5408146824845703], "label": "Li", "properties": {}}, {"species": [{"element": "Li", "occu": 1}], "abc": [0.50000122, 0.99999878, 0.00513363], "xyz": [2.57480478250834, 5.14959071749166, 0.21148898977599], "label": "Li", "properties": {}}, {"species": [{"element": "Li", "occu": 1}], "abc": [1.24e-06, 0.49999882, 0.005133610000000004], "xyz": [6.38550028e-06, 2.57479242347554, 0.21148816584053015], "label": "Li", "properties": {}}, {"species": [{"element": "Li", "occu": 1}], "abc": [0.50000174, 0.49999833, 0.06167512000000001], "xyz": [2.57480746029878, 2.57478990017301, 2.5408159183877603], "label": "Li", "properties": {}}, {"species": [{"element": "Li", "occu": 1}], "abc": [1.66e-06, 0.9999984, 0.18668567], "xyz": [8.54833102e-06, 5.1495887606448, 7.69084716934291], "label": "Li", "properties": {}}, {"species": [{"element": "Li", "occu": 1}], "abc": [0.50000143, 0.99999859, 0.12582455], "xyz": [2.57480586392371, 5.14958973906823, 5.18356542417715], "label": "Li", "properties": {}}, {"species": [{"element": "Li", "occu": 1}], "abc": [1.45e-06, 0.49999856, 0.12582458], "xyz": [7.46691565e-06, 2.57479108458032, 5.18356666008034], "label": "Li", "properties": {}}, {"species": [{"element": "Li", "occu": 1}], "abc": [0.50000164, 0.49999834, 0.18668566], "xyz": [2.57480694533908, 2.57478995166898, 7.69084675737518], "label": "Li", "properties": {}}, {"species": [{"element": "Li", "occu": 1}], "abc": [6.8e-07, 0.99999913, 0.31024432], "xyz": [3.5017259599999996e-06, 5.14959251985061, 12.78106482557936], "label": "Li", "properties": {}}, {"species": [{"element": "Li", "occu": 1}], "abc": [0.5000013, 0.9999987, 0.24875213999999998], "xyz": [2.5748051944760997, 5.1495903055239, 10.247785444844219], "label": "Li", "properties": {}}, {"species": [{"element": "Li", "occu": 1}], "abc": [1.23e-06, 0.49999879, 0.24875213999999998], "xyz": [6.3340043100000004e-06, 2.57479226898763, 10.247785444844219], "label": "Li", "properties": {}}, {"species": [{"element": "Li", "occu": 1}], "abc": [0.50000089, 0.49999926, 0.31024432], "xyz": [2.57480308314133, 2.57479468929822, 12.78106482557936], "label": "Li", "properties": {}}, {"species": [{"element": "Li", "occu": 1}], "abc": [0.99999559, 1.53e-06, 0.43317976], "xyz": [5.14957429027723, 7.87888341e-06, 17.84560824091448], "label": "Li", "properties": {}}, {"species": [{"element": "Li", "occu": 1}], "abc": [0.49999851, 1.53e-06, 0.37231220000000004], "xyz": [2.57479082710047, 7.87888341e-06, 15.338061188530602], "label": "Li", "properties": {}}, {"species": [{"element": "Li", "occu": 1}], "abc": [0.99999987, 0.50000013, 0.37231146000000004], "xyz": [5.14959633055239, 2.57479916944761, 15.338030702918582], "label": "Li", "properties": {}}, {"species": [{"element": "Li", "occu": 1}], "abc": [0.49999851, 0.50000445, 0.43317975000000003], "xyz": [2.57479082710047, 2.57482141570665, 17.84560782894675], "label": "Li", "properties": {}}, {"species": [{"element": "Li", "occu": 1}], "abc": [4.6e-07, 0.99999923, 0.55386667], "xyz": [2.3688146199999998e-06, 5.1495930348103105, 22.81751947625591], "label": "Li", "properties": {}}, {"species": [{"element": "Li", "occu": 1}], "abc": [0.49999872, 1.17e-06, 0.49732672], "xyz": [2.57479190851584, 6.02502849e-06, 20.48825599067456], "label": "Li", "properties": {}}, {"species": [{"element": "Li", "occu": 1}], "abc": [0.99999992, 0.50000007, 0.49732654], "xyz": [5.1495965880322405, 2.57479886047179, 20.48824857525542], "label": "Li", "properties": {}}, {"species": [{"element": "Li", "occu": 1}], "abc": [0.50000073, 0.49999958, 0.5538666600000001], "xyz": [2.57480225920581, 2.57479633716926, 22.817519064288184], "label": "Li", "properties": {}}, {"species": [{"element": "Cl", "occu": 1}], "abc": [4.93e-06, 0.4999952, 0.06368178], "xyz": [2.5387513210000002e-05, 2.5747737819344, 2.6234838348959397], "label": "Cl", "properties": {}}, {"species": [{"element": "Cl", "occu": 1}], "abc": [4.83e-06, 0.99999519, 0.00010000000000000286], "xyz": [2.4872553510000002e-05, 5.14957223043843, 0.004119677300000118], "label": "Cl", "properties": {}}, {"species": [{"element": "Cl", "occu": 1}], "abc": [0.5000049, 0.99999525, 0.06368175000000001], "xyz": [2.5748237330253, 5.14957253941425, 2.6234825989927506], "label": "Cl", "properties": {}}, {"species": [{"element": "Cl", "occu": 1}], "abc": [0.50000489, 0.49999514, 0.00010012000000000215], "xyz": [2.57482368152933, 2.57477347295858, 0.004124620912760089], "label": "Cl", "properties": {}}, {"species": [{"element": "Cl", "occu": 1}], "abc": [4.75e-06, 0.49999522, 0.18701488], "xyz": [2.446058575e-05, 2.57477388492634, 7.70440955898224], "label": "Cl", "properties": {}}, {"species": [{"element": "Cl", "occu": 1}], "abc": [4.67e-06, 0.99999538, 0.12506513], "xyz": [2.404861799e-05, 5.1495732088618595, 5.15227977082549], "label": "Cl", "properties": {}}, {"species": [{"element": "Cl", "occu": 1}], "abc": [0.50000489, 0.99999517, 0.18701484999999998], "xyz": [2.57482368152933, 5.14957212744649, 7.70440832307905], "label": "Cl", "properties": {}}, {"species": [{"element": "Cl", "occu": 1}], "abc": [0.50000463, 0.49999542, 0.12506516], "xyz": [2.5748223426341097, 2.57477491484574, 5.15228100672868], "label": "Cl", "properties": {}}, {"species": [{"element": "Cl", "occu": 1}], "abc": [2.05e-06, 0.49999783, 0.31035985000000005], "xyz": [1.055667385e-05, 2.5747873253745097, 12.785824288764053], "label": "Cl", "properties": {}}, {"species": [{"element": "Cl", "occu": 1}], "abc": [4.3e-06, 0.99999599, 0.24863934000000001], "xyz": [2.2143267100000003e-05, 5.14957635011603, 10.243138448849821], "label": "Cl", "properties": {}}, {"species": [{"element": "Cl", "occu": 1}], "abc": [0.50000138, 0.9999985, 0.31036003], "xyz": [2.5748056064438605, 5.1495892756045, 12.78583170418319], "label": "Cl", "properties": {}}, {"species": [{"element": "Cl", "occu": 1}], "abc": [0.50000399, 0.49999566, 0.24863934000000001], "xyz": [2.5748190468920296, 2.57477615074902, 10.243138448849821], "label": "Cl", "properties": {}}, {"species": [{"element": "Cl", "occu": 1}], "abc": [0.99998453, 0.50001562, 0.4339385], "xyz": [5.1495173357344095, 2.57487893670514, 17.8768658804605], "label": "Cl", "properties": {}}, {"species": [{"element": "Cl", "occu": 1}], "abc": [0.99998942, 1.16e-06, 0.37198545], "xyz": [5.14954251726374, 5.97353252e-06, 15.32460014295285], "label": "Cl", "properties": {}}, {"species": [{"element": "Cl", "occu": 1}], "abc": [0.49997739, 2.261e-05, 0.43393955], "xyz": [2.57468206761183, 0.00011643238817, 17.87690913707215], "label": "Cl", "properties": {}}, {"species": [{"element": "Cl", "occu": 1}], "abc": [0.49999887, 0.50001059, 0.37198544], "xyz": [2.57479268095539, 2.57485303423223, 15.32459973098512], "label": "Cl", "properties": {}}, {"species": [{"element": "Cl", "occu": 1}], "abc": [1.54e-06, 0.49999832, 0.55891256], "xyz": [7.93037938e-06, 2.5747898486770397, 23.02539386116888], "label": "Cl", "properties": {}}, {"species": [{"element": "Cl", "occu": 1}], "abc": [0.99998969, 1.08e-06, 0.49531869000000006], "xyz": [5.14954390765493, 5.56156476e-06, 20.405531634587373], "label": "Cl", "properties": {}}, {"species": [{"element": "Cl", "occu": 1}], "abc": [0.50000107, 0.99999894, 0.5589123500000001], "xyz": [2.57480401006879, 5.14959154142718, 23.02538520984655], "label": "Cl", "properties": {}}, {"species": [{"element": "Cl", "occu": 1}], "abc": [0.49999873, 0.50001011, 0.49531867000000007], "xyz": [2.57479196001181, 2.5748505624256697, 20.405530810651914], "label": "Cl", "properties": {}}]}, "formula": "(LiCl)20.0", "bandgap": 5.9608, "slab_thickness": 23.02127418386888}