{"miller": "221_0.12", "final_energy": -469.6422469, "gamma": 0.016792888733927994, "work_function": 6.552567112930404, "ionization_potentail": -6.875067112930404, "electron_affinity": -1.4719671129304048, "is_stochiometric": true, "incar_parameters": {"SYSTEM": "unknown system", "LCOMPAT": false, "PREC": "normal", "ENMAX": 520.0, "ENAUG": 628.945, "EDIFF": 1e-05, "IALGO": 38, "IWAVPR": 11, "NBANDS": 385, "NBANDSLOW": -1, "NBANDSHIGH": -1, "NELECT": 640.0, "TURBO": 0, "IRESTART": 0, "NREBOOT": 0, "NMIN": 0, "EREF": 0.0, "ISMEAR": 0, "SIGMA": 0.05, "KSPACING": 0.5, "KGAMMA": true, "KBLOWUP": false, "LREAL": true, "ROPT": [-0.0005, -0.0005], "LMAXPAW": -100, "LMAXMIX": 2, "NLSPLINE": false, "ISTART": 0, "ICHARG": 2, "INIWAV": 1, "ISPIN": 1, "LNONCOLLINEAR": false, "MAGMOM": [0.6, 0.6, 0.6, 0.6, 0.6, 0.6, 0.6, 0.6, 0.6, 0.6, 0.6, 0.6, 0.6, 0.6, 0.6, 0.6, 0.6, 0.6, 0.6, 0.6, 0.6, 0.6, 0.6, 0.6, 0.6, 0.6, 0.6, 0.6, 0.6, 0.6, 0.6, 0.6, 0.6, 0.6, 0.6, 0.6, 0.6, 0.6, 0.6, 0.6, 0.6, 0.6, 0.6, 0.6, 0.6, 0.6, 0.6, 0.6, 0.6, 0.6, 0.6, 0.6, 0.6, 0.6, 0.6, 0.6, 0.6, 0.6, 0.6, 0.6, 0.6, 0.6, 0.6, 0.6, 0.6, 0.6, 0.6, 0.6, 0.6, 0.6, 0.6, 0.6, 0.6, 0.6, 0.6, 0.6, 0.6, 0.6, 0.6, 0.6, 0.6, 0.6, 0.6, 0.6, 0.6, 0.6, 0.6, 0.6, 0.6, 0.6, 0.6, 0.6, 0.6, 0.6, 0.6, 0.6, 0.6, 0.6, 0.6, 0.6, 0.6, 0.6, 0.6, 0.6, 0.6, 0.6, 0.6, 0.6, 0.6, 0.6, 0.6, 0.6, 0.6, 0.6, 0.6, 0.6, 0.6, 0.6, 0.6, 0.6, 0.6, 0.6, 0.6, 0.6, 0.6, 0.6, 0.6, 0.6], "NUPDOWN": -1.0, "LSORBIT": false, "SAXIS": [0.0, 0.0, 1.0], "LSPIRAL": false, "QSPIRAL": [0.0, 0.0, 0.0], "LZEROZ": false, "LASPH": false, "LMETAGGA": false, "NELM": 100, "NELMDL": -5, "NELMIN": 6, "ENINI": 520.0, "LDIAG": true, "LSUBROT": false, "WEIMIN": 0.001, "EBREAK": 1e-08, "DEPER": 0.3, "NRMM": 4, "TIME": 0.4, "AMIX": 0.4, "BMIX": 1.0, "AMIN": 0.1, "AMIX_MAG": 1.6, "BMIX_MAG": 1.0, "IMIX": 4, "MIXFIRST": false, "MAXMIX": -45, "WC": 100.0, "INIMIX": 1, "MIXPRE": 1, "MREMOVE": 5, "LDIPOL": false, "LMONO": false, "IDIPOL": 0, "EPSILON": 1.0, "DIPOL": [-100.0, -100.0, -100.0], "EFIELD": 0.0, "NGX": 42, "NGY": 64, "NGZ": 250, "NGXF": 84, "NGYF": 128, "NGZF": 500, "ADDGRID": false, "NSW": 150, "IBRION": 2, "MDALGO": 0, "ISIF": 2, "PSTRESS": 0.0, "EDIFFG": -0.01, "NFREE": 1, "POTIM": 0.5, "SMASS": -3.0, "SCALEE": 1.0, "TEBEG": 0.0001, "TEEND": 0.0001, "NBLOCK": 1, "KBLOCK": 150, "NPACO": 256, "APACO": 10.0, "ISYM": 0, "SYMPREC": 1e-05, "LORBIT": 11, "RWIGS": [-1.0, -1.0], "NEDOS": 301, "EMIN": 10.0, "EMAX": -10.0, "EFERMI": 0.0, "NWRITE": 2, "LWAVE": false, "LDOWNSAMPLE": false, "LCHARG": false, "LPARD": false, "LVTOT": false, "LVHAR": false, "LELF": false, "LOPTICS": false, "STM": [0.0, 0.0, 0.0, 0.0, 0.0, 0.0, 0.0], "NPAR": 1, "NSIM": 4, "NBLK": -1, "LPLANE": true, "LSCALAPACK": true, "LSCAAWARE": false, "LSCALU": false, "LASYNC": false, "LORBITALREAL": false, "IDIOT": 3, "PHON_NSTRUCT": -1, "LMUSIC": false, "POMASS": [7.01, 35.453], "DARWINR": [0.0, 0.0], "DARWINV": [1.0, 1.0], "LCORR": true, "GGA_COMPAT": true, "LBERRY": false, "ICORELEVEL": 0, "LDAU": false, "I_CONSTRAINED_M": 0, "GGA": "--", "VOSKOWN": 0, "LHFCALC": false, "PRECFOCK": "", "LSYMGRAD": false, "LHFONE": false, "LRHFCALC": false, "LTHOMAS": false, "LMODELHF": false, "LFOCKACE": false, "ENCUT4O": -1.0, "EXXOEP": 0, "FOURORBIT": 0, "AEXX": 0.0, "HFALPHA": 0.0, "MCALPHA": 0.0, "ALDAX": 1.0, "AGGAX": 1.0, "ALDAC": 1.0, "AGGAC": 1.0, "NKREDX": 1, "NKREDY": 1, "NKREDZ": 1, "SHIFTRED": false, "ODDONLY": false, "EVENONLY": false, "LMAXFOCK": 0, "NMAXFOCKAE": 0, "LFOCKAEDFT": false, "HFSCREEN": 0.0, "HFSCREENC": 0.0, "NBANDSGWLOW": 0, "LUSE_VDW": false, "Zab_VDW": -0.8491, "PARAM1": 0.1234, "PARAM2": 1.0, "PARAM3": 0.0, "MODEL_GW": 0, "MODEL_EPS0": 16.64310076, "MODEL_ALPHA": 1.0, "LEPSILON": false, "LRPA": false, "LNABLA": false, "LVEL": false, "CSHIFT": 0.1, "OMEGAMAX": -1.0, "DEG_THRESHOLD": 0.002, "RTIME": -0.1, "WPLASMAI": 0.0, "DFIELD": [0.0, 0.0, 0.0], "WPLASMA": [0.0, 0.0, 0.0, 0.0, 0.0, 0.0, 0.0, 0.0, 0.0], "NUCIND": false, "MAGPOS": [0.0, 0.0, 0.0], "LNICSALL": true, "ORBITALMAG": false, "LMAGBLOCH": false, "LCHIMAG": false, "LGAUGE": true, "MAGATOM": 0, "MAGDIPOL": [0.0, 0.0, 0.0], "AVECCONST": [0.0, 0.0, 0.0], "LFINITE_TEMPERATURE": false, "LADDER": false, "LRPAFORCE": false, "LFXC": false, "LHARTREE": true, "IBSE": 0, "KPOINT": [-1, 0, 0, 0], "LTCTC": false, "LTCTE": false, "LTETE": false, "LTRIPLET": false, "LFXCEPS": false, "LFXHEG": false, "NATURALO": 2, "LHOLEGF": false, "L2ORDER": false, "LDMP1": false, "LMP2LT": false, "LSMP2LT": false, "LGWLF": false, "ENCUTGW": -2.0, "ENCUTGWSOFT": -2.0, "ENCUTLF": -1.0, "LESF_SPLINES": false, "LMAXMP2": -1, "SCISSOR": 0.0, "NOMEGA": 0, "NOMEGAR": 0, "NBANDSGW": -1, "NBANDSO": -1, "NBANDSV": -1, "NELMGW": 1, "NELMHF": 1, "DIM": 3, "IESPILON": 4, "ANTIRES": 0, "OMEGAMIN": -30.0, "OMEGATL": -200.0, "OMEGAGRID": 0, "LSELFENERGY": false, "LSPECTRAL": false, "LSPECTRALGW": false, "LSINGLES": false, "LFERMIGW": false, "ODDONLYGW": false, "EVENONLYGW": false, "NKREDLFX": 1, "NKREDLFY": 1, "NKREDLFZ": 1, "MAXMEM": 2800, "TELESCOPE": 0, "NTAUPAR": -1, "NOMEGAPAR": -1, "DAMP_NEWTON": 0.80000001, "LAMBDA": 1.0, "OFIELD_KAPPA": 0.0, "OFIELD_K": [0.0, 0.0, 0.0], "OFIELD_Q6_NEAR": 0.0, "OFIELD_Q6_FAR": 0.0, "OFIELD_A": 0.0, "KPOINTS_OPT_MODE": 1, "LKPOINTS_OPT": false, "@module": "pymatgen.io.vasp.inputs", "@class": "Incar"}, "relaxed_structures": {"@module": "pymatgen.core.structure", "@class": "Structure", "charge": 0, "lattice": {"matrix": [[7.282629, 0.0, 0.0], [3.641315, 10.923944, 0.0], [0.0, 0.0, 44.629838]], "a": 7.282629, "b": 11.51484812945273, "c": 44.629838, "alpha": 90.0, "beta": 90.0, "gamma": 71.56504960358643, "volume": 3550.5281620733913}, "sites": [{"species": [{"element": "Li", "occu": 1}], "abc": [0.59511602, 0.93814309, 0.06425115], "xyz": [7.750083691379929, 10.24822257914696, 2.8675184158137004], "label": "Li", "properties": {}}, {"species": [{"element": "Li", "occu": 1}], "abc": [0.85022385, 0.43244727, 0.03420977], "xyz": [7.7665415974617, 4.72402976043288, 1.52677649311726], "label": "Li", "properties": {}}, {"species": [{"element": "Li", "occu": 1}], "abc": [0.09512743, 0.93812359, 0.06424949], "xyz": [4.10878128053432, 10.24800956223896, 2.8674443302826202], "label": "Li", "properties": {}}, {"species": [{"element": "Li", "occu": 1}], "abc": [0.35020736, 0.43241004, 0.03421757], "xyz": [4.12497144075204, 4.723623061997761, 1.52712460585366], "label": "Li", "properties": {}}, {"species": [{"element": "Li", "occu": 1}], "abc": [0.72907508, 0.1702984, 0.015315220000000001], "xyz": [5.92969343918132, 1.8603301848896, 0.68351578753436], "label": "Li", "properties": {}}, {"species": [{"element": "Li", "occu": 1}], "abc": [0.93514925, 0.75916069, 0.015490109999999998], "xyz": [9.5746882552856, 8.29302886456136, 0.6913210999021799], "label": "Li", "properties": {}}, {"species": [{"element": "Li", "occu": 1}], "abc": [0.22907815, 0.17026122, 0.01532004], "xyz": [2.28826591276065, 1.85992403265168, 0.68373090335352], "label": "Li", "properties": {}}, {"species": [{"element": "Li", "occu": 1}], "abc": [0.43515237, 0.75914198, 0.015488309999999998], "xyz": [5.93332834808443, 8.29282447756912, 0.6912407661937799], "label": "Li", "properties": {}}, {"species": [{"element": "Li", "occu": 1}], "abc": [0.16369614, 0.79467457, 0.14150144], "xyz": [4.08579868821161, 8.68098050090408, 6.315186343966721], "label": "Li", "properties": {}}, {"species": [{"element": "Li", "occu": 1}], "abc": [0.39465015, 0.33703557, 0.10517949], "xyz": [4.1013433038189, 3.6817576926880804, 4.69414359962262], "label": "Li", "properties": {}}, {"species": [{"element": "Li", "occu": 1}], "abc": [0.66378444, 0.79454137, 0.14147387], "xyz": [7.727271221194311, 8.679525431563281, 6.31395589933306], "label": "Li", "properties": {}}, {"species": [{"element": "Li", "occu": 1}], "abc": [0.89460806, 0.33694178, 0.105159], "xyz": [7.742009759030441, 3.6807331359803204, 4.693229134242], "label": "Li", "properties": {}}, {"species": [{"element": "Li", "occu": 1}], "abc": [0.27334856, 0.07836496, 0.12176784], "xyz": [2.27604765448664, 0.8560544346022401, 5.43447897280992], "label": "Li", "properties": {}}, {"species": [{"element": "Li", "occu": 1}], "abc": [0.50415349, 0.61517813, 0.09124156], "xyz": [5.91162017916616, 6.7201714421447205, 4.07209604166728], "label": "Li", "properties": {}}, {"species": [{"element": "Li", "occu": 1}], "abc": [0.7733394, 0.07835631, 0.12176585000000001], "xyz": [5.91726394823025, 0.85595994248664, 5.434390159432301], "label": "Li", "properties": {}}, {"species": [{"element": "Li", "occu": 1}], "abc": [0.00424118, 0.61514281, 0.09122017], "xyz": [2.27081568165737, 6.719785608442641, 4.07114140943246], "label": "Li", "properties": {}}, {"species": [{"element": "Li", "occu": 1}], "abc": [0.72123192, 0.68142194, 0.21961554], "xyz": [7.733736427768781, 7.44381511293136, 9.80140597248252], "label": "Li", "properties": {}}, {"species": [{"element": "Li", "occu": 1}], "abc": [0.94492913, 0.23318588, 0.18179347], "xyz": [7.7306715277149705, 2.54730949471072, 8.11341311555786], "label": "Li", "properties": {}}, {"species": [{"element": "Li", "occu": 1}], "abc": [0.22123171, 0.68142086, 0.21961526], "xyz": [4.09241646579649, 7.443803315071841, 9.80139347612788], "label": "Li", "properties": {}}, {"species": [{"element": "Li", "occu": 1}], "abc": [0.44492408, 0.23318299, 0.18179355], "xyz": [4.08930972703817, 2.54727792451256, 8.1134166859449], "label": "Li", "properties": {}}, {"species": [{"element": "Li", "occu": 1}], "abc": [0.83401456, 0.95671786, 0.19969401], "xyz": [9.55752971546414, 10.451132326439842, 8.91231131587038], "label": "Li", "properties": {}}, {"species": [{"element": "Li", "occu": 1}], "abc": [0.05663609, 0.51212389, 0.16447879], "xyz": [2.27726403399596, 5.594412695422161, 7.340661752136021], "label": "Li", "properties": {}}, {"species": [{"element": "Li", "occu": 1}], "abc": [0.33401883, 0.95672082, 0.19969403], "xyz": [5.91625709058237, 10.451164661314081, 8.91231220846714], "label": "Li", "properties": {}}, {"species": [{"element": "Li", "occu": 1}], "abc": [0.55664418, 0.51212339, 0.16448042000000002], "xyz": [5.918635629807071, 5.59440723345016, 7.340734498771961], "label": "Li", "properties": {}}, {"species": [{"element": "Li", "occu": 1}], "abc": [0.2772011, 0.57106375, 0.2962647], "xyz": [4.0981757685231495, 6.23826842543, 13.2222455661186], "label": "Li", "properties": {}}, {"species": [{"element": "Li", "occu": 1}], "abc": [0.50014674, 0.12402309, 0.25821002], "xyz": [4.09399029094281, 1.35482128986696, 11.52387136257676], "label": "Li", "properties": {}}, {"species": [{"element": "Li", "occu": 1}], "abc": [0.77718481, 0.57106277, 0.29626439], "xyz": [7.739368066008041, 6.2382577199648805, 13.222231730868819], "label": "Li", "properties": {}}, {"species": [{"element": "Li", "occu": 1}], "abc": [0.00014905, 0.12402493, 0.25821014], "xyz": [0.4526993138354, 1.3548413899239202, 11.523876718157318], "label": "Li", "properties": {}}, {"species": [{"element": "Li", "occu": 1}], "abc": [0.38863273, 0.84848604, 0.27714585], "xyz": [5.919872934589771, 9.268813985741762, 12.368974387872301], "label": "Li", "properties": {}}, {"species": [{"element": "Li", "occu": 1}], "abc": [0.61108674, 0.40166906, 0.23979466], "xyz": [5.91292158745336, 4.38781031797264, 10.701996829065079], "label": "Li", "properties": {}}, {"species": [{"element": "Li", "occu": 1}], "abc": [0.88863395, 0.84848764, 0.27714581], "xyz": [9.56120214550115, 9.26883146405216, 12.36897260267878], "label": "Li", "properties": {}}, {"species": [{"element": "Li", "occu": 1}], "abc": [0.11108737, 0.4016672, 0.23979433], "xyz": [2.2716049026637304, 4.387789999436801, 10.70198210121854], "label": "Li", "properties": {}}, {"species": [{"element": "Li", "occu": 1}], "abc": [0.8335199, 0.45953488, 0.37259097], "xyz": [7.7435274473843, 5.01993329516672, 16.62867463136286], "label": "Li", "properties": {}}, {"species": [{"element": "Li", "occu": 1}], "abc": [0.05611182, 0.01497547, 0.33515188], "xyz": [0.46317197111783, 0.16359119565368, 14.95777410979544], "label": "Li", "properties": {}}, {"species": [{"element": "Li", "occu": 1}], "abc": [0.33349345, 0.45953396, 0.37259922], "xyz": [4.10201697183745, 5.019923245138241, 16.62904282752636], "label": "Li", "properties": {}}, {"species": [{"element": "Li", "occu": 1}], "abc": [0.55610815, 0.01497854, 0.33515261], "xyz": [4.10447092270645, 0.16362473216176002, 14.95780668957718], "label": "Li", "properties": {}}, {"species": [{"element": "Li", "occu": 1}], "abc": [0.94392497, 0.7385526, 0.3538198], "xyz": [9.56355802101513, 8.0679072434544, 15.7909203551924], "label": "Li", "properties": {}}, {"species": [{"element": "Li", "occu": 1}], "abc": [0.16821229, 0.29091492, 0.31592146], "xyz": [2.28434056323021, 3.1779382948444805, 14.09952358052348], "label": "Li", "properties": {}}, {"species": [{"element": "Li", "occu": 1}], "abc": [0.44393252, 0.73854333, 0.35381969], "xyz": [5.92226474987403, 8.06780597849352, 15.79091544591022], "label": "Li", "properties": {}}, {"species": [{"element": "Li", "occu": 1}], "abc": [0.66820108, 0.29092165, 0.31592209], "xyz": [5.92559793100907, 3.1780118129876, 14.09955169732142], "label": "Li", "properties": {}}, {"species": [{"element": "Li", "occu": 1}], "abc": [0.38889377, 0.34925153, 0.44790325000000003], "xyz": [4.10390388228328, 3.81520415563432, 19.9898494871735], "label": "Li", "properties": {}}, {"species": [{"element": "Li", "occu": 1}], "abc": [0.6110369, 0.90344835, 0.41280736], "xyz": [7.73969507659035, 9.869219182292401, 18.42352560200768], "label": "Li", "properties": {}}, {"species": [{"element": "Li", "occu": 1}], "abc": [0.88881848, 0.34902308, 0.44791346], "xyz": [7.74383821473412, 3.81270858062752, 19.990305157819478], "label": "Li", "properties": {}}, {"species": [{"element": "Li", "occu": 1}], "abc": [0.11103619, 0.90342504, 0.41280442], "xyz": [4.098290526871111, 9.86896454515776, 18.42339439028396], "label": "Li", "properties": {}}, {"species": [{"element": "Li", "occu": 1}], "abc": [0.49900712, 0.62724534, 0.43065905], "xyz": [5.918081588540581, 6.85199296842096, 19.2202436347339], "label": "Li", "properties": {}}, {"species": [{"element": "Li", "occu": 1}], "abc": [0.72302219, 0.17869342, 0.39294193], "xyz": [5.9161813991848105, 1.95203691324848, 17.53693467930734], "label": "Li", "properties": {}}, {"species": [{"element": "Li", "occu": 1}], "abc": [0.99889981, 0.62726021, 0.43067016], "xyz": [9.55866873597664, 6.85215540746824, 19.22073947223408], "label": "Li", "properties": {}}, {"species": [{"element": "Li", "occu": 1}], "abc": [0.22310108, 0.1786296, 0.39297258], "xyz": [2.27520903706332, 1.9513397471424, 17.53830258384204], "label": "Li", "properties": {}}, {"species": [{"element": "Li", "occu": 1}], "abc": [0.93952621, 0.24578112, 0.5207610399999999], "xyz": [7.73718730217889, 2.68489919113728, 23.241480851911515], "label": "Li", "properties": {}}, {"species": [{"element": "Li", "occu": 1}], "abc": [0.17037633, 0.78253217, 0.49094374], "xyz": [4.09023373037512, 8.54833760327848, 21.910739583314122], "label": "Li", "properties": {}}, {"species": [{"element": "Li", "occu": 1}], "abc": [0.43952473, 0.24577765, 0.52075747], "xyz": [4.09584938852492, 2.6848612850516, 23.241321523389857], "label": "Li", "properties": {}}, {"species": [{"element": "Li", "occu": 1}], "abc": [0.67028653, 0.78246329, 0.49096279], "xyz": [7.73064343651372, 8.54758516201576, 21.91158978172802], "label": "Li", "properties": {}}, {"species": [{"element": "Li", "occu": 1}], "abc": [0.05065746, 0.52298626, 0.5071602], "xyz": [2.27327720059424, 5.71307261700944, 22.634477566047597], "label": "Li", "properties": {}}, {"species": [{"element": "Li", "occu": 1}], "abc": [0.28053328, 0.06591488, 0.47094136], "xyz": [2.28303664166032, 0.72005045788672, 21.018036604299677], "label": "Li", "properties": {}}, {"species": [{"element": "Li", "occu": 1}], "abc": [0.55063299, 0.52297215, 0.5071553299999999], "xyz": [5.914362115707959, 5.7129184801596, 22.634260218736536], "label": "Li", "properties": {}}, {"species": [{"element": "Li", "occu": 1}], "abc": [0.78056423, 0.06572959, 0.47093404], "xyz": [5.92390183977152, 0.7180263603029601, 21.01770991388552], "label": "Li", "properties": {}}, {"species": [{"element": "Li", "occu": 1}], "abc": [0.50826558, 0.1020979, 0.5974264199999999], "xyz": [4.07328026734832, 1.1153117421176002, 26.663044341519957], "label": "Li", "properties": {}}, {"species": [{"element": "Li", "occu": 1}], "abc": [0.71593349, 0.69039285, 0.5967218099999999], "xyz": [7.72781583694296, 7.541812831400399, 26.631597711366776], "label": "Li", "properties": {}}, {"species": [{"element": "Li", "occu": 1}], "abc": [0.00827076, 0.10209395, 0.59742767], "xyz": [0.43198910817229, 1.1152685925388002, 26.663100128817458], "label": "Li", "properties": {}}, {"species": [{"element": "Li", "occu": 1}], "abc": [0.21593043, 0.69039288, 0.59672195], "xyz": [4.08647916133767, 7.54181315911872, 26.631603959544098], "label": "Li", "properties": {}}, {"species": [{"element": "Li", "occu": 1}], "abc": [0.59843682, 0.42829605, 0.5783851299999999], "xyz": [5.917754171305529, 4.6786820656212, 25.813234653508935], "label": "Li", "properties": {}}, {"species": [{"element": "Li", "occu": 1}], "abc": [0.85148022, 0.92182445, 0.54853212], "xyz": [9.55766774025013, 10.0699586696308, 24.48089965339656], "label": "Li", "properties": {}}, {"species": [{"element": "Li", "occu": 1}], "abc": [0.09842351, 0.42829536, 0.5783857099999999], "xyz": [2.27634022700619, 4.67867452809984, 25.813260538814976], "label": "Li", "properties": {}}, {"species": [{"element": "Li", "occu": 1}], "abc": [0.35148547, 0.92174974, 0.5485376399999999], "xyz": [5.91611943140873, 10.06914254177456, 24.481146010102318], "label": "Li", "properties": {}}, {"species": [{"element": "Cl", "occu": 1}], "abc": [0.9258328, 0.2768424, 0.00010000000000000005], "xyz": [7.750567182187201, 3.0242108744256, 0.004462983800000002], "label": "Cl", "properties": {}}, {"species": [{"element": "Cl", "occu": 1}], "abc": [0.73971568, 0.65026631, 0.02799471], "xyz": [7.75489933152037, 7.10347275552664, 1.24939937215698], "label": "Cl", "properties": {}}, {"species": [{"element": "Cl", "occu": 1}], "abc": [0.83398876, 0.96017687, 0.026409079999999998], "xyz": [9.56993716863409, 10.48891835797528, 1.17863296212904], "label": "Cl", "properties": {}}, {"species": [{"element": "Cl", "occu": 1}], "abc": [0.6071003, 0.41516196, 0.06841312000000001], "xyz": [5.9330217230661, 4.5352060019702405, 3.0532664626745603], "label": "Cl", "properties": {}}, {"species": [{"element": "Cl", "occu": 1}], "abc": [0.33402527, 0.96015523, 0.02640927], "xyz": [5.92880975936228, 10.488681963827121, 1.17864144179826], "label": "Cl", "properties": {}}, {"species": [{"element": "Cl", "occu": 1}], "abc": [0.10711364, 0.41517039, 0.06841966000000001], "xyz": [2.29183506962241, 4.53529809081816, 3.0535583418150805], "label": "Cl", "properties": {}}, {"species": [{"element": "Cl", "occu": 1}], "abc": [0.42573888, 0.27689137, 0.00010188000000000016], "xyz": [4.10874701286707, 3.0247458199632806, 0.004546887895440007], "label": "Cl", "properties": {}}, {"species": [{"element": "Cl", "occu": 1}], "abc": [0.23965307, 0.65025161, 0.027992839999999998], "xyz": [4.11307533878818, 7.10331217354984, 1.24931591435992], "label": "Cl", "properties": {}}, {"species": [{"element": "Cl", "occu": 1}], "abc": [0.49828711, 0.1283149, 0.08781956], "xyz": [4.0960751277056895, 1.4017047819656, 3.91937273603128], "label": "Cl", "properties": {}}, {"species": [{"element": "Cl", "occu": 1}], "abc": [0.2768748, 0.57032738, 0.12499500999999999], "xyz": [4.0931180915539, 6.230224360786721, 5.5785070471083795], "label": "Cl", "properties": {}}, {"species": [{"element": "Cl", "occu": 1}], "abc": [0.39382569, 0.83459054, 0.09966653], "xyz": [5.90709344309911, 9.117020321889761, 4.44810108792214], "label": "Cl", "properties": {}}, {"species": [{"element": "Cl", "occu": 1}], "abc": [0.16459342, 0.29447751, 0.14451841], "xyz": [2.27095818802683, 3.21685582849944, 6.449833226317581], "label": "Cl", "properties": {}}, {"species": [{"element": "Cl", "occu": 1}], "abc": [0.89383231, 0.83458503, 0.09967074000000001], "xyz": [9.54843609045744, 9.11696013095832, 4.44828897954012], "label": "Cl", "properties": {}}, {"species": [{"element": "Cl", "occu": 1}], "abc": [0.66460782, 0.29448182, 0.14451672000000002], "xyz": [5.91239325195208, 3.21690291069808, 6.44975780189136], "label": "Cl", "properties": {}}, {"species": [{"element": "Cl", "occu": 1}], "abc": [0.99832396, 0.12827409, 0.08781855000000001], "xyz": [7.7375093905191905, 1.4012589758109602, 3.9193276598949005], "label": "Cl", "properties": {}}, {"species": [{"element": "Cl", "occu": 1}], "abc": [0.77688312, 0.57032838, 0.12499357], "xyz": [7.73449682434218, 6.23023528473072, 5.57844278014166], "label": "Cl", "properties": {}}, {"species": [{"element": "Cl", "occu": 1}], "abc": [0.05667561, 0.00982959, 0.16150130000000001], "xyz": [0.44854007448954, 0.10737789070296, 7.2077768557894], "label": "Cl", "properties": {}}, {"species": [{"element": "Cl", "occu": 1}], "abc": [0.8323995, 0.45869417, 0.20157952], "xyz": [7.732306699919049, 5.0107494262064805, 8.99646132171776], "label": "Cl", "properties": {}}, {"species": [{"element": "Cl", "occu": 1}], "abc": [0.94349678, 0.73563444, 0.18084182000000001], "xyz": [9.549813732323221, 8.03602942703136, 8.07094113022516], "label": "Cl", "properties": {}}, {"species": [{"element": "Cl", "occu": 1}], "abc": [0.72220719, 0.17930548, 0.21983015], "xyz": [5.91247475980871, 1.95872302241312, 9.8109839820157], "label": "Cl", "properties": {}}, {"species": [{"element": "Cl", "occu": 1}], "abc": [0.44348861, 0.7356375, 0.18084055000000002], "xyz": [5.908450875668191, 8.0360628543, 8.070884450330901], "label": "Cl", "properties": {}}, {"species": [{"element": "Cl", "occu": 1}], "abc": [0.22221341, 0.17930176, 0.21983276000000002], "xyz": [2.27119201206929, 1.9586823853414401, 9.811100465892881], "label": "Cl", "properties": {}}, {"species": [{"element": "Cl", "occu": 1}], "abc": [0.55667349, 0.00979346, 0.16149875], "xyz": [4.08970757460511, 0.10698320860624001, 7.2076630497025], "label": "Cl", "properties": {}}, {"species": [{"element": "Cl", "occu": 1}], "abc": [0.33240865, 0.45869151, 0.20157907], "xyz": [4.0910491500765005, 5.0107203685154404, 8.99644123829066], "label": "Cl", "properties": {}}, {"species": [{"element": "Cl", "occu": 1}], "abc": [0.6106573, 0.90268089, 0.23873176000000002], "xyz": [7.734136027012049, 9.86083549223016, 10.65455977425488], "label": "Cl", "properties": {}}, {"species": [{"element": "Cl", "occu": 1}], "abc": [0.38869531, 0.3469559, 0.27756185], "xyz": [4.09409945977849, 3.7901268220696, 12.3875404004803], "label": "Cl", "properties": {}}, {"species": [{"element": "Cl", "occu": 1}], "abc": [0.49890874, 0.625918, 0.25825848], "xyz": [5.91253186044746, 6.837493180592, 11.526034124526241], "label": "Cl", "properties": {}}, {"species": [{"element": "Cl", "occu": 1}], "abc": [0.27749075, 0.06963901, 0.2965505], "xyz": [2.2744397548799, 0.7607326454554401, 13.235000773819], "label": "Cl", "properties": {}}, {"species": [{"element": "Cl", "occu": 1}], "abc": [0.99895036, 0.62592981, 0.25825392], "xyz": [9.55419246739659, 6.837622192370641, 11.525830612464961], "label": "Cl", "properties": {}}, {"species": [{"element": "Cl", "occu": 1}], "abc": [0.77748843, 0.06964106, 0.2965415], "xyz": [5.91574482387637, 0.76075503954064, 13.234599105277], "label": "Cl", "properties": {}}, {"species": [{"element": "Cl", "occu": 1}], "abc": [0.1106585, 0.90268505, 0.23873084], "xyz": [4.09284541403725, 9.8608809358372, 10.65451871480392], "label": "Cl", "properties": {}}, {"species": [{"element": "Cl", "occu": 1}], "abc": [0.88870201, 0.34695941, 0.27756186], "xyz": [7.73547553440844, 3.7901651651130406, 12.387540846778679], "label": "Cl", "properties": {}}, {"species": [{"element": "Cl", "occu": 1}], "abc": [0.16672454, 0.7928432, 0.31571787], "xyz": [4.10118480682366, 8.6609747175808, 14.090437391805061], "label": "Cl", "properties": {}}, {"species": [{"element": "Cl", "occu": 1}], "abc": [0.94485783, 0.23596244, 0.35417357], "xyz": [7.74026260584367, 2.57764048066336, 15.80670905298166], "label": "Cl", "properties": {}}, {"species": [{"element": "Cl", "occu": 1}], "abc": [0.05539262, 0.51489693, 0.33475123], "xyz": [2.2783058154609304, 5.624705229091921, 14.93989316520074], "label": "Cl", "properties": {}}, {"species": [{"element": "Cl", "occu": 1}], "abc": [0.83302775, 0.95914921, 0.37361608], "xyz": [9.5591964555659, 10.47769225768424, 16.67442512459504], "label": "Cl", "properties": {}}, {"species": [{"element": "Cl", "occu": 1}], "abc": [0.55539047, 0.51489355, 0.33475149], "xyz": [5.91959235016388, 5.624668306161201, 14.93990476895862], "label": "Cl", "properties": {}}, {"species": [{"element": "Cl", "occu": 1}], "abc": [0.33302158, 0.95911749, 0.37363141], "xyz": [5.9177215192331705, 10.477345750180561, 16.67510930001158], "label": "Cl", "properties": {}}, {"species": [{"element": "Cl", "occu": 1}], "abc": [0.66672334, 0.79284397, 0.31571851], "xyz": [7.74249337148141, 8.66098312901768, 14.09046595490138], "label": "Cl", "properties": {}}, {"species": [{"element": "Cl", "occu": 1}], "abc": [0.44484806, 0.23596196, 0.35417252], "xyz": [4.09887520672714, 2.5776352371702402, 15.806662191651759], "label": "Cl", "properties": {}}, {"species": [{"element": "Cl", "occu": 1}], "abc": [0.7215954, 0.68219304, 0.39253879], "xyz": [7.7391913357542, 7.45223856614976, 17.518942606416022], "label": "Cl", "properties": {}}, {"species": [{"element": "Cl", "occu": 1}], "abc": [0.49978058, 0.124898, 0.43165758], "xyz": [4.09450950641482, 1.3643787577120001, 19.26480786687204], "label": "Cl", "properties": {}}, {"species": [{"element": "Cl", "occu": 1}], "abc": [0.61153738, 0.40233324, 0.41088929], "xyz": [5.91862191998262, 4.39506578309856, 18.33792244863502], "label": "Cl", "properties": {}}, {"species": [{"element": "Cl", "occu": 1}], "abc": [0.38633516, 0.85074006, 0.45102831], "xyz": [5.911348181514541, 9.29343677399664, 20.12932040871378], "label": "Cl", "properties": {}}, {"species": [{"element": "Cl", "occu": 1}], "abc": [0.11152868, 0.40232848, 0.41089048], "xyz": [2.2772267284509202, 4.39501378512512, 18.33797555814224], "label": "Cl", "properties": {}}, {"species": [{"element": "Cl", "occu": 1}], "abc": [0.88636115, 0.85073586, 0.45102661], "xyz": [9.552836663519251, 9.293390893431841, 20.12924453798918], "label": "Cl", "properties": {}}, {"species": [{"element": "Cl", "occu": 1}], "abc": [0.22158523, 0.6821793, 0.39253967], "xyz": [4.09775273974917, 7.452088471159201, 17.51898188067346], "label": "Cl", "properties": {}}, {"species": [{"element": "Cl", "occu": 1}], "abc": [0.99978181, 0.12486938, 0.43166256000000003], "xyz": [7.73572874961319, 1.3640661144347201, 19.26503012346528], "label": "Cl", "properties": {}}, {"species": [{"element": "Cl", "occu": 1}], "abc": [0.27869162, 0.56648567, 0.46800531], "xyz": [4.09236044132503, 6.188257735882481, 20.88700116843978], "label": "Cl", "properties": {}}, {"species": [{"element": "Cl", "occu": 1}], "abc": [0.04901042, 0.02636634, 0.51279985], "xyz": [0.45293285533127997, 0.28802442164496, 22.886174231924297], "label": "Cl", "properties": {}}, {"species": [{"element": "Cl", "occu": 1}], "abc": [0.16690186, 0.29086116, 0.48726945], "xyz": [2.2746014306153404, 3.1773510236150404, 21.7467566158491], "label": "Cl", "properties": {}}, {"species": [{"element": "Cl", "occu": 1}], "abc": [0.94531329, 0.73229032, 0.5247979899999999], "xyz": [9.55086570641021, 7.999498447422081, 23.421649276425615], "label": "Cl", "properties": {}}, {"species": [{"element": "Cl", "occu": 1}], "abc": [0.66692094, 0.29084555, 0.48726903], "xyz": [5.915998042249511, 3.1771805008492002, 21.74673787131714], "label": "Cl", "properties": {}}, {"species": [{"element": "Cl", "occu": 1}], "abc": [0.4453489, 0.73221221, 0.52480248], "xyz": [5.90952611771425, 7.998645178156241, 23.421849664398238], "label": "Cl", "properties": {}}, {"species": [{"element": "Cl", "occu": 1}], "abc": [0.77868465, 0.56648065, 0.46800549], "xyz": [7.7336059019996, 6.188202897683601, 20.88700920181062], "label": "Cl", "properties": {}}, {"species": [{"element": "Cl", "occu": 1}], "abc": [0.54898511, 0.02640214, 0.5127995799999999], "xyz": [4.09419339106829, 0.28841549884016005, 22.886162181868038], "label": "Cl", "properties": {}}, {"species": [{"element": "Cl", "occu": 1}], "abc": [0.83985526, 0.44486639, 0.5440125499999999], "xyz": [7.73625293118139, 4.85969553184216, 24.279191976466898], "label": "Cl", "properties": {}}, {"species": [{"element": "Cl", "occu": 1}], "abc": [0.61174926, 0.90102736, 0.5861726899999999], "xyz": [7.73606734298294, 9.84277242310784, 26.160792194724216], "label": "Cl", "properties": {}}, {"species": [{"element": "Cl", "occu": 1}], "abc": [0.70393387, 0.21125848, 0.58531013], "xyz": [5.89574788784543, 2.3077758050451203, 26.12229628165894], "label": "Cl", "properties": {}}, {"species": [{"element": "Cl", "occu": 1}], "abc": [0.51858003, 0.58474447, 0.61216916], "xyz": [5.905864775076919, 6.38771584458968, 27.32101043939608], "label": "Cl", "properties": {}}, {"species": [{"element": "Cl", "occu": 1}], "abc": [0.20392824, 0.2112706, 0.58531287], "xyz": [2.25443651938196, 2.3079082032464, 26.12241856741506], "label": "Cl", "properties": {}}, {"species": [{"element": "Cl", "occu": 1}], "abc": [0.01858414, 0.5847418, 0.6121696099999999], "xyz": [2.2645704843710597, 6.3876866776592, 27.321030522823175], "label": "Cl", "properties": {}}, {"species": [{"element": "Cl", "occu": 1}], "abc": [0.33985474, 0.44486312, 0.5440102899999999], "xyz": [4.09492273711426, 4.85965981054528, 24.279091113033015], "label": "Cl", "properties": {}}, {"species": [{"element": "Cl", "occu": 1}], "abc": [0.11174317, 0.90102073, 0.58617678], "xyz": [4.09468434985388, 9.842699997359121, 26.160974730761637], "label": "Cl", "properties": {}}]}, "formula": "(LiCl)64.0", "bandgap": 5.4031, "slab_thickness": 27.316567539023175}