{"miller": "001_0.04", "final_energy": -460.70075477, "sigma": 0.0023478949882993505, "incar_parameters": {"SYSTEM": "unknown system", "LCOMPAT": false, "PREC": "normal", "ENMAX": 520.0, "ENAUG": 368.056, "EDIFF": 1e-05, "IALGO": 38, "IWAVPR": 11, "NBANDS": 420, "NBANDSLOW": -1, "NBANDSHIGH": -1, "NELECT": 700.0, "TURBO": 0, "IRESTART": 0, "NREBOOT": 0, "NMIN": 0, "EREF": 0.0, "ISMEAR": 0, "SIGMA": 0.05, "KSPACING": 0.5, "KGAMMA": true, "KBLOWUP": true, "LREAL": true, "ROPT": [-0.0005, -0.0005, -0.0005], "LMAXPAW": -100, "LMAXMIX": 2, "NLSPLINE": false, "ISTART": 0, "ICHARG": 2, "INIWAV": 1, "ISPIN": 1, "LNONCOLLINEAR": false, "MAGMOM": [0.6, 0.6, 0.6, 0.6, 0.6, 0.6, 0.6, 0.6, 0.6, 0.6, 0.6, 0.6, 0.6, 0.6, 0.6, 0.6, 0.6, 0.6, 0.6, 0.6, 0.6, 0.6, 0.6, 0.6, 0.6, 0.6, 0.6, 0.6, 0.6, 0.6, 0.6, 0.6, 0.6, 0.6, 0.6, 0.6, 0.6, 0.6, 0.6, 0.6, 0.6, 0.6, 0.6, 0.6, 0.6, 0.6, 0.6, 0.6, 0.6, 0.6, 0.6, 0.6, 0.6, 0.6, 0.6, 0.6, 0.6, 0.6, 0.6, 0.6, 0.6, 0.6, 0.6, 0.6, 0.6, 0.6, 0.6, 0.6, 0.6, 0.6, 0.6, 0.6, 0.6, 0.6, 0.6, 0.6, 0.6, 0.6, 0.6, 0.6, 0.6, 0.6, 0.6, 0.6, 0.6, 0.6, 0.6, 0.6, 0.6, 0.6, 0.6, 0.6, 0.6, 0.6, 0.6, 0.6, 0.6, 0.6, 0.6, 0.6, 0.6, 0.6, 0.6, 0.6, 0.6, 0.6, 0.6, 0.6, 0.6, 0.6, 0.6, 0.6], "NUPDOWN": -1.0, "LSORBIT": false, "SAXIS": [0.0, 0.0, 1.0], "LSPIRAL": false, "QSPIRAL": [0.0, 0.0, 0.0], "LZEROZ": false, "LASPH": false, "LMETAGGA": false, "NELM": 100, "NELMDL": -5, "NELMIN": 6, "ENINI": 520.0, "LDIAG": true, "LSUBROT": false, "WEIMIN": 0.001, "EBREAK": 1e-08, "DEPER": 0.3, "NRMM": 4, "TIME": 0.4, "AMIX": 0.4, "BMIX": 1.0, "AMIN": 0.1, "AMIX_MAG": 1.6, "BMIX_MAG": 1.0, "IMIX": 4, "MIXFIRST": false, "MAXMIX": -45, "WC": 100.0, "INIMIX": 1, "MIXPRE": 1, "MREMOVE": 5, "LDIPOL": false, "LMONO": false, "IDIPOL": 0, "EPSILON": 1.0, "DIPOL": [-100.0, -100.0, -100.0], "EFIELD": 0.0, "NGX": 40, "NGY": 40, "NGZ": 280, "NGXF": 80, "NGYF": 80, "NGZF": 560, "ADDGRID": false, "NSW": 150, "IBRION": 2, "MDALGO": 0, "ISIF": 3, "PSTRESS": 0.0, "EDIFFG": -0.01, "NFREE": 1, "POTIM": 0.5, "SMASS": -3.0, "SCALEE": 1.0, "TEBEG": 0.0001, "TEEND": 0.0001, "NBLOCK": 1, "KBLOCK": 150, "NPACO": 256, "APACO": 10.0, "ISYM": 0, "SYMPREC": 1e-05, "LORBIT": 11, "RWIGS": [-1.0, -1.0, -1.0], "NEDOS": 301, "EMIN": 10.0, "EMAX": -10.0, "EFERMI": 0.0, "NWRITE": 2, "LWAVE": false, "LDOWNSAMPLE": false, "LCHARG": false, "LPARD": false, "LVTOT": false, "LVHAR": false, "LELF": false, "LOPTICS": false, "STM": [0.0, 0.0, 0.0, 0.0, 0.0, 0.0, 0.0], "NPAR": 1, "NSIM": 4, "NBLK": -1, "LPLANE": true, "LSCALAPACK": true, "LSCAAWARE": false, "LSCALU": false, "LASYNC": false, "LORBITALREAL": false, "IDIOT": 3, "PHON_NSTRUCT": -1, "LMUSIC": false, "POMASS": [22.99, 30.974, 32.066], "DARWINR": [0.0, 0.0, 0.0], "DARWINV": [1.0, 1.0, 1.0], "LCORR": true, "GGA_COMPAT": true, "LBERRY": false, "ICORELEVEL": 0, "LDAU": false, "I_CONSTRAINED_M": 0, "GGA": "--", "VOSKOWN": 0, "LHFCALC": false, "PRECFOCK": "", "LSYMGRAD": false, "LHFONE": false, "LRHFCALC": false, "LTHOMAS": false, "LMODELHF": false, "LFOCKACE": false, "ENCUT4O": -1.0, "EXXOEP": 0, "FOURORBIT": 0, "AEXX": 0.0, "HFALPHA": 0.0, "MCALPHA": 0.0, "ALDAX": 1.0, "AGGAX": 1.0, "ALDAC": 1.0, "AGGAC": 1.0, "NKREDX": 1, "NKREDY": 1, "NKREDZ": 1, "SHIFTRED": false, "ODDONLY": false, "EVENONLY": false, "LMAXFOCK": 0, "NMAXFOCKAE": 0, "LFOCKAEDFT": false, "HFSCREEN": 0.0, "HFSCREENC": 0.0, "NBANDSGWLOW": 0, "LUSE_VDW": false, "Zab_VDW": -0.8491, "PARAM1": 0.1234, "PARAM2": 1.0, "PARAM3": 0.0, "MODEL_GW": 0, "MODEL_EPS0": 13.08285378, "MODEL_ALPHA": 1.0, "LEPSILON": false, "LRPA": false, "LNABLA": false, "LVEL": false, "CSHIFT": 0.1, "OMEGAMAX": -1.0, "DEG_THRESHOLD": 0.002, "RTIME": -0.1, "WPLASMAI": 0.0, "DFIELD": [0.0, 0.0, 0.0], "WPLASMA": [0.0, 0.0, 0.0, 0.0, 0.0, 0.0, 0.0, 0.0, 0.0], "NUCIND": false, "MAGPOS": [0.0, 0.0, 0.0], "LNICSALL": true, "ORBITALMAG": false, "LMAGBLOCH": false, "LCHIMAG": false, "LGAUGE": true, "MAGATOM": 0, "MAGDIPOL": [0.0, 0.0, 0.0], "AVECCONST": [0.0, 0.0, 0.0], "LFINITE_TEMPERATURE": false, "LADDER": false, "LRPAFORCE": false, "LFXC": false, "LHARTREE": true, "IBSE": 0, "KPOINT": [-1, 0, 0, 0], "LTCTC": false, "LTCTE": false, "LTETE": false, "LTRIPLET": false, "LFXCEPS": false, "LFXHEG": false, "NATURALO": 2, "LHOLEGF": false, "L2ORDER": false, "LDMP1": false, "LMP2LT": false, "LSMP2LT": false, "LGWLF": false, "ENCUTGW": -2.0, "ENCUTGWSOFT": -2.0, "ENCUTLF": -1.0, "LESF_SPLINES": false, "LMAXMP2": -1, "SCISSOR": 0.0, "NOMEGA": 0, "NOMEGAR": 0, "NBANDSGW": -1, "NBANDSO": -1, "NBANDSV": -1, "NELMGW": 1, "NELMHF": 1, "DIM": 3, "IESPILON": 4, "ANTIRES": 0, "OMEGAMIN": -30.0, "OMEGATL": -200.0, "OMEGAGRID": 0, "LSELFENERGY": false, "LSPECTRAL": false, "LSPECTRALGW": false, "LSINGLES": false, "LFERMIGW": false, "ODDONLYGW": false, "EVENONLYGW": false, "NKREDLFX": 1, "NKREDLFY": 1, "NKREDLFZ": 1, "MAXMEM": 2800, "TELESCOPE": 0, "NTAUPAR": -1, "NOMEGAPAR": -1, "DAMP_NEWTON": 0.80000001, "LAMBDA": 1.0, "OFIELD_KAPPA": 0.0, "OFIELD_K": [0.0, 0.0, 0.0], "OFIELD_Q6_NEAR": 0.0, "OFIELD_Q6_FAR": 0.0, "OFIELD_A": 0.0, "KPOINTS_OPT_MODE": 1, "LKPOINTS_OPT": false, "@module": "pymatgen.io.vasp.inputs", "@class": "Incar"}, "relaxed_structures": {"@module": "pymatgen.core.structure", "@class": "Structure", "charge": 0, "lattice": {"matrix": [[7.00642, 0.0, 0.0], [0.000173, 7.00642, 0.0], [0.0, 0.0, 49.74814882]], "a": 7.00642, "b": 7.006420002135827, "c": 49.74814882, "alpha": 90.0, "beta": 90.0, "gamma": 89.99858527324173, "volume": 2442.132706235543}, "sites": [{"species": [{"element": "Na", "occu": 1}], "abc": [0.49088937, 0.49168633, 0.02991], "xyz": [3.43946216149049, 3.4449609362386, 1.4879671312062], "label": "Na", "properties": {}}, {"species": [{"element": "Na", "occu": 1}], "abc": [0.48976964, 0.46171407, 0.09904962], "xyz": [3.4316116776229104, 3.2349626943294, 4.927535236324449], "label": "Na", "properties": {}}, {"species": [{"element": "Na", "occu": 1}], "abc": [0.48424794, 0.95402895, 0.10680533], "xyz": [3.39300949878315, 6.6843275158590005, 5.313367451609211], "label": "Na", "properties": {}}, {"species": [{"element": "Na", "occu": 1}], "abc": [0.9903543, 0.55443811, 0.03577978], "xyz": [6.93893409239903, 3.8846262626662003, 1.7799778201868595], "label": "Na", "properties": {}}, {"species": [{"element": "Na", "occu": 1}], "abc": [0.98687304, 0.04802719, 0.03937171], "xyz": [6.91445531362067, 0.3364986645598, 1.958669688377882], "label": "Na", "properties": {}}, {"species": [{"element": "Na", "occu": 1}], "abc": [0.47956685, 0.49328631, 0.16836969], "xyz": [3.36013210770863, 3.4561710681102, 8.376080394897265], "label": "Na", "properties": {}}, {"species": [{"element": "Na", "occu": 1}], "abc": [0.48925126, 0.48623356, 0.23970544], "xyz": [3.4279839314950804, 3.4067565394552, 11.92490190208358], "label": "Na", "properties": {}}, {"species": [{"element": "Na", "occu": 1}], "abc": [0.49552278, 0.9811544, 0.24994268], "xyz": [3.4720104559588, 6.874379811248001, 12.434185641109638], "label": "Na", "properties": {}}, {"species": [{"element": "Na", "occu": 1}], "abc": [0.97782083, 0.51820301, 0.17851066], "xyz": [6.85111306884933, 3.6307479333242, 8.88057487963642], "label": "Na", "properties": {}}, {"species": [{"element": "Na", "occu": 1}], "abc": [0.987712, 0.01228166, 0.1882755], "xyz": [6.92032723576718, 0.0860504682572, 9.36635759315991], "label": "Na", "properties": {}}, {"species": [{"element": "Na", "occu": 1}], "abc": [0.98253106, 0.99931787, 0.11511893], "xyz": [6.884198151396711, 7.0016407107254, 5.726953661639162], "label": "Na", "properties": {}}, {"species": [{"element": "Na", "occu": 1}], "abc": [0.48148116, 0.48840756, 0.3124664], "xyz": [3.3735437235550805, 3.4219884965352003, 15.544624968449646], "label": "Na", "properties": {}}, {"species": [{"element": "Na", "occu": 1}], "abc": [0.48967976, 0.44363067, 0.38765172], "xyz": [3.4309788121651104, 3.1082627989014, 19.28495545688897], "label": "Na", "properties": {}}, {"species": [{"element": "Na", "occu": 1}], "abc": [0.49958709, 0.93836609, 0.39257441], "xyz": [3.5004793164513703, 6.5745869402978006, 19.529850171603695], "label": "Na", "properties": {}}, {"species": [{"element": "Na", "occu": 1}], "abc": [0.98007533, 0.51593948, 0.32164997], "xyz": [6.86690865114864, 3.6148886914616, 16.001490575508534], "label": "Na", "properties": {}}, {"species": [{"element": "Na", "occu": 1}], "abc": [0.99614054, 0.00751991, 0.33101098], "xyz": [6.97938030321123, 0.05268764782220001, 16.467183494094044], "label": "Na", "properties": {}}, {"species": [{"element": "Na", "occu": 1}], "abc": [0.99233586, 0.99504139, 0.26042204], "xyz": [6.9528939583816705, 6.971677895723801, 12.955514401927994], "label": "Na", "properties": {}}, {"species": [{"element": "Na", "occu": 1}], "abc": [0.48939798, 0.50301788, 0.46192415], "xyz": [3.4290148171248402, 3.5243545347896004, 22.979871357752], "label": "Na", "properties": {}}, {"species": [{"element": "Na", "occu": 1}], "abc": [0.99249924, 0.5876937, 0.46403576], "xyz": [6.953968196130901, 4.117628893554, 23.084920046281802], "label": "Na", "properties": {}}, {"species": [{"element": "Na", "occu": 1}], "abc": [0.00045224, 0.09553505, 0.46689216], "xyz": [0.0031851109444500005, 0.669358685021, 23.22702065857125], "label": "Na", "properties": {}}, {"species": [{"element": "Na", "occu": 1}], "abc": [0.0005614, 0.99703603, 0.40092045], "xyz": [0.00410589142119, 6.9856531813126, 19.945050211581368], "label": "Na", "properties": {}}, {"species": [{"element": "Na", "occu": 1}], "abc": [0.11213461, 0.01138288, 0.53284703], "xyz": [0.78566414343444, 0.0797532380896, 26.508153346735003], "label": "Na", "properties": {}}, {"species": [{"element": "Na", "occu": 1}], "abc": [0.0169924, 0.01176698, 0.59852784], "xyz": [0.11905792689554001, 0.0824444040116, 29.77565205723315], "label": "Na", "properties": {}}, {"species": [{"element": "Na", "occu": 1}], "abc": [0.95364026, 0.51368615, 0.60707124], "xyz": [6.681693058173151, 3.599100915083, 30.200670391861937], "label": "Na", "properties": {}}, {"species": [{"element": "Na", "occu": 1}], "abc": [0.60615703, 0.00930347, 0.53481325], "xyz": [4.24699234763291, 0.0651840182774, 26.605969151907864], "label": "Na", "properties": {}}, {"species": [{"element": "Na", "occu": 1}], "abc": [0.52517535, 0.50244187, 0.54025217], "xyz": [3.6796859981905103, 3.5203187668053997, 26.87654535348794], "label": "Na", "properties": {}}, {"species": [{"element": "Na", "occu": 1}], "abc": [0.02504041, 0.0098892, 0.66879504], "xyz": [0.1754453402638, 0.06928788866400001, 33.27131517999785], "label": "Na", "properties": {}}, {"species": [{"element": "Na", "occu": 1}], "abc": [0.00835849, 0.02618497, 0.74033942], "xyz": [0.058567621505610006, 0.1834628975074, 36.83051564347248], "label": "Na", "properties": {}}, {"species": [{"element": "Na", "occu": 1}], "abc": [0.99329664, 0.53141781, 0.75001789], "xyz": [6.9595453797099305, 3.7233363723402, 37.312001609382385], "label": "Na", "properties": {}}, {"species": [{"element": "Na", "occu": 1}], "abc": [0.53441577, 0.00217551, 0.67824851], "xyz": [3.74434171560663, 0.0152425367742, 33.741607812423254], "label": "Na", "properties": {}}, {"species": [{"element": "Na", "occu": 1}], "abc": [0.5016705, 0.50738916, 0.68799768], "xyz": [3.5150020029346805, 3.5549815584072, 34.226610972454736], "label": "Na", "properties": {}}, {"species": [{"element": "Na", "occu": 1}], "abc": [0.46246906, 0.51587598, 0.6131323], "xyz": [3.24034171790974, 3.6144437837916, 30.502196906748882], "label": "Na", "properties": {}}, {"species": [{"element": "Na", "occu": 1}], "abc": [0.00911406, 0.00503721, 0.81319083], "xyz": [0.06385780370253001, 0.0352928088882, 40.45473842989932], "label": "Na", "properties": {}}, {"species": [{"element": "Na", "occu": 1}], "abc": [0.00543707, 0.04845297, 0.88895767], "xyz": [0.03810277835320999, 0.3394818580674, 44.22399846184045], "label": "Na", "properties": {}}, {"species": [{"element": "Na", "occu": 1}], "abc": [0.99732687, 0.55544687, 0.89284935], "xyz": [6.987787020813911, 3.8916940589054003, 44.41760233764026], "label": "Na", "properties": {}}, {"species": [{"element": "Na", "occu": 1}], "abc": [0.50954331, 0.96093669, 0.82178196], "xyz": [3.57024068009757, 6.732726043549801, 40.88213124367129], "label": "Na", "properties": {}}, {"species": [{"element": "Na", "occu": 1}], "abc": [0.50096488, 0.46957997, 0.83011682], "xyz": [3.5100515918644097, 3.2900744934074004, 41.29677509934515], "label": "Na", "properties": {}}, {"species": [{"element": "Na", "occu": 1}], "abc": [0.49629876, 0.5054596, 0.7602084], "xyz": [3.47736500255, 3.541462250632, 37.818960617414085], "label": "Na", "properties": {}}, {"species": [{"element": "Na", "occu": 1}], "abc": [0.99747127, 0.98675092, 0.96410886], "xyz": [6.988873363462561, 6.9135913809064, 47.96263104596054], "label": "Na", "properties": {}}, {"species": [{"element": "Na", "occu": 1}], "abc": [0.49673886, 0.89718343, 0.96439176], "xyz": [3.48051629621459, 6.2860439276206, 47.976704797261725], "label": "Na", "properties": {}}, {"species": [{"element": "Na", "occu": 1}], "abc": [0.49616135, 0.38867903, 0.96452257], "xyz": [3.47638204733919, 2.7232485293726, 47.98321235260887], "label": "Na", "properties": {}}, {"species": [{"element": "Na", "occu": 1}], "abc": [0.49598661, 0.49285384, 0.89949444], "xyz": [3.47517576775052, 3.4531410016528, 44.74818326388256], "label": "Na", "properties": {}}, {"species": [{"element": "P", "occu": 1}], "abc": [0.48695014, 0.99102415, 0.03502887], "xyz": [3.41194864707675, 6.943531425043, 1.742621437756433], "label": "P", "properties": {}}, {"species": [{"element": "P", "occu": 1}], "abc": [0.99130555, 0.49963, 0.10680832], "xyz": [6.945589467621001, 3.5006176246000003, 5.313516198574182], "label": "P", "properties": {}}, {"species": [{"element": "P", "occu": 1}], "abc": [0.4873403, 0.99379931, 0.17823225], "xyz": [3.4146827520066303, 6.962975361570201, 8.866724497523444], "label": "P", "properties": {}}, {"species": [{"element": "P", "occu": 1}], "abc": [0.9894597, 0.49587172, 0.25002082], "xyz": [6.932656017081561, 3.4742855364424003, 12.438072961458431], "label": "P", "properties": {}}, {"species": [{"element": "P", "occu": 1}], "abc": [0.49725112, 0.98785734, 0.32165964], "xyz": [3.4841210915102203, 6.9213434241228, 16.001971640107627], "label": "P", "properties": {}}, {"species": [{"element": "P", "occu": 1}], "abc": [0.98984667, 0.49732071, 0.3936774], "xyz": [6.93536754210423, 3.4844377689582, 19.584721882270667], "label": "P", "properties": {}}, {"species": [{"element": "P", "occu": 1}], "abc": [0.50314572, 0.00261557, 0.46389961], "xyz": [3.5252506880160106, 0.0183257819594, 23.07814683581996], "label": "P", "properties": {}}, {"species": [{"element": "P", "occu": 1}], "abc": [0.02727502, 0.51203505, 0.53564604], "xyz": [0.19118882769205, 3.5875326150210003, 26.647398912763673], "label": "P", "properties": {}}, {"species": [{"element": "P", "occu": 1}], "abc": [0.51662082, 0.01537126, 0.60593411], "xyz": [3.61966510489238, 0.1076975034892, 30.144100279394248], "label": "P", "properties": {}}, {"species": [{"element": "P", "occu": 1}], "abc": [0.00026713, 0.50878318, 0.67824556], "xyz": [0.0019596444647400004, 3.5647486480156, 33.741461055384235], "label": "P", "properties": {}}, {"species": [{"element": "P", "occu": 1}], "abc": [0.50769412, 0.00617259, 0.75020394], "xyz": [3.55711930410847, 0.0432477580278, 37.321257252470346], "label": "P", "properties": {}}, {"species": [{"element": "P", "occu": 1}], "abc": [0.99895534, 0.50512885, 0.82180352], "xyz": [6.99918806057385, 3.5391448772169998, 40.88320381375984], "label": "P", "properties": {}}, {"species": [{"element": "P", "occu": 1}], "abc": [0.50496246, 0.99175717, 0.89377656], "xyz": [3.5381506529836098, 6.9486672710314, 44.46372931870766], "label": "P", "properties": {}}, {"species": [{"element": "P", "occu": 1}], "abc": [0.9961162, 0.48546532, 0.96432405], "xyz": [6.97929245150436, 3.4013739273544, 47.973336350105114], "label": "P", "properties": {}}, {"species": [{"element": "S", "occu": 1}], "abc": [0.65353507, 0.14651017, 0.00859146], "xyz": [4.578966531408811, 1.0265117852914, 0.4274092306610772], "label": "S", "properties": {}}, {"species": [{"element": "S", "occu": 1}], "abc": [0.15696498, 0.68618212, 0.08473774], "xyz": [1.09988128467836, 4.8076801292104, 4.215545700190467], "label": "S", "properties": {}}, {"species": [{"element": "S", "occu": 1}], "abc": [0.34057229, 0.173133, 0.06038286], "xyz": [2.3862224561108003, 1.21304251386, 3.0039355054572248], "label": "S", "properties": {}}, {"species": [{"element": "S", "occu": 1}], "abc": [0.66157466, 0.81525104, 0.05761274], "xyz": [4.63541096774712, 5.711991191676801, 2.866127163447967], "label": "S", "properties": {}}, {"species": [{"element": "S", "occu": 1}], "abc": [0.29393602, 0.82873837, 0.01344221], "xyz": [2.0595825809864103, 5.8064890903354, 0.6687250635496922], "label": "S", "properties": {}}, {"species": [{"element": "S", "occu": 1}], "abc": [0.84399914, 0.319542, 0.08122551], "xyz": [5.913467735244801, 2.2388454596400003, 4.040818759460398], "label": "S", "properties": {}}, {"species": [{"element": "S", "occu": 1}], "abc": [0.66722373, 0.14742697, 0.15339512], "xyz": [4.6748751912124105, 1.0329352711474, 7.631123258021757], "label": "S", "properties": {}}, {"species": [{"element": "S", "occu": 1}], "abc": [0.14513095, 0.68304908, 0.22654714], "xyz": [1.01696655818984, 4.7857287350936, 11.270300835465374], "label": "S", "properties": {}}, {"species": [{"element": "S", "occu": 1}], "abc": [0.34112484, 0.17980664, 0.20298846], "xyz": [2.39009500802152, 1.2598008386288, 10.098300116822617], "label": "S", "properties": {}}, {"species": [{"element": "S", "occu": 1}], "abc": [0.16406582, 0.34020986, 0.13189016], "xyz": [1.14957289887018, 2.3836531673012, 6.561291307573611], "label": "S", "properties": {}}, {"species": [{"element": "S", "occu": 1}], "abc": [0.64645704, 0.80572502, 0.20121415], "xyz": [4.5294889246252605, 5.6452478946284, 10.010031478889802], "label": "S", "properties": {}}, {"species": [{"element": "S", "occu": 1}], "abc": [0.79574842, 0.65151281, 0.12960941], "xyz": [5.57546035657253, 4.564772382240201, 6.447828217152396], "label": "S", "properties": {}}, {"species": [{"element": "S", "occu": 1}], "abc": [0.2930585, 0.84190514, 0.15544355], "xyz": [2.0534365851592202, 5.8987410109988, 7.733028858509111], "label": "S", "properties": {}}, {"species": [{"element": "S", "occu": 1}], "abc": [0.83973139, 0.30784291, 0.22585827], "xyz": [5.88356406234723, 2.1568767214822, 11.23603082818774], "label": "S", "properties": {}}, {"species": [{"element": "S", "occu": 1}], "abc": [0.67625448, 0.14876481, 0.29767899], "xyz": [4.738148650073731, 1.0423087400802, 14.80897869510729], "label": "S", "properties": {}}, {"species": [{"element": "S", "occu": 1}], "abc": [0.16064117, 0.67341581, 0.37058681], "xyz": [1.1256360072465301, 4.7182339995002, 18.436007774609063], "label": "S", "properties": {}}, {"species": [{"element": "S", "occu": 1}], "abc": [0.34738037, 0.16711993, 0.34710871], "xyz": [2.43392168372329, 1.1709124199506, 17.26801576179822], "label": "S", "properties": {}}, {"species": [{"element": "S", "occu": 1}], "abc": [0.17262168, 0.34334003, 0.27458723], "xyz": [1.20951938901079, 2.4055844529926, 13.660206382111568], "label": "S", "properties": {}}, {"species": [{"element": "S", "occu": 1}], "abc": [0.65651605, 0.79614565, 0.34379746], "xyz": [4.59996491623845, 5.578130805073, 17.103287204017995], "label": "S", "properties": {}}, {"species": [{"element": "S", "occu": 1}], "abc": [0.79754812, 0.64859546, 0.27310581], "xyz": [5.58806930594498, 4.544332202853201, 13.586508479486644], "label": "S", "properties": {}}, {"species": [{"element": "S", "occu": 1}], "abc": [0.3038607, 0.84019754, 0.29805933], "xyz": [2.1291210398684197, 5.8867768482068, 14.82789990602949], "label": "S", "properties": {}}, {"species": [{"element": "S", "occu": 1}], "abc": [0.84698417, 0.30830721, 0.36896639], "xyz": [5.93438016551873, 2.1601298022882003, 18.355394879298156], "label": "S", "properties": {}}, {"species": [{"element": "S", "occu": 1}], "abc": [0.65712938, 0.16857063, 0.43746653], "xyz": [4.60415359333859, 1.1810766334446001, 21.763150038208995], "label": "S", "properties": {}}, {"species": [{"element": "S", "occu": 1}], "abc": [0.36264888, 0.17633586, 0.49100174], "xyz": [2.5409008719133803, 1.2354830962212002, 24.426427632398948], "label": "S", "properties": {}}, {"species": [{"element": "S", "occu": 1}], "abc": [0.15973087, 0.3481245, 0.42048961], "xyz": [1.1192017877239, 2.43910645929, 20.91857969554376], "label": "S", "properties": {}}, {"species": [{"element": "S", "occu": 1}], "abc": [0.68725567, 0.82810484, 0.48512358], "xyz": [4.81534513353872, 5.8020503130728, 24.134000053931175], "label": "S", "properties": {}}, {"species": [{"element": "S", "occu": 1}], "abc": [0.79440498, 0.65886923, 0.41487632], "xyz": [5.56604892434839, 4.6163145504566, 20.639328909253944], "label": "S", "properties": {}}, {"species": [{"element": "S", "occu": 1}], "abc": [0.30687199, 0.843324, 0.44225104], "xyz": [2.1502199432277997, 5.90868214008, 22.00117055371977], "label": "S", "properties": {}}, {"species": [{"element": "S", "occu": 1}], "abc": [0.85341657, 0.3385556, 0.51229537], "xyz": [5.979453494498201, 2.372062726952, 25.485746306556962], "label": "S", "properties": {}}, {"species": [{"element": "S", "occu": 1}], "abc": [0.36681872, 0.84544147, 0.57944962], "xyz": [2.5702322775567104, 5.9235180242374, 28.826545929452447], "label": "S", "properties": {}}, {"species": [{"element": "S", "occu": 1}], "abc": [0.17797791, 0.34866456, 0.56287273], "xyz": [1.2470483071510798, 2.4428903464752003, 28.00187633875968], "label": "S", "properties": {}}, {"species": [{"element": "S", "occu": 1}], "abc": [0.86043898, 0.70433138, 0.55694229], "xyz": [6.0287187275803396, 4.9348414674595995, 27.706847927071593], "label": "S", "properties": {}}, {"species": [{"element": "S", "occu": 1}], "abc": [0.21187255, 0.65806126, 0.51106559], "xyz": [1.48458191636898, 4.6106535732892, 25.4245670281011], "label": "S", "properties": {}}, {"species": [{"element": "S", "occu": 1}], "abc": [0.67573419, 0.2121916, 0.58438897], "xyz": [4.7345142526465995, 1.486703470072, 29.072269448326516], "label": "S", "properties": {}}, {"species": [{"element": "S", "occu": 1}], "abc": [0.81256601, 0.3482307, 0.65570112], "xyz": [5.6932389876953, 2.439850541094, 32.619916899200675], "label": "S", "properties": {}}, {"species": [{"element": "S", "occu": 1}], "abc": [0.34992986, 0.82398354, 0.7261847], "xyz": [2.4518981188536197, 5.7731747543268, 36.12634452640705], "label": "S", "properties": {}}, {"species": [{"element": "S", "occu": 1}], "abc": [0.15614469, 0.33057157, 0.70306182], "xyz": [1.0940724677914102, 2.3161232594794, 34.97602405102005], "label": "S", "properties": {}}, {"species": [{"element": "S", "occu": 1}], "abc": [0.33029571, 0.15668618, 0.63124631], "xyz": [2.31421757516734, 1.0978091852756, 31.40333537195585], "label": "S", "properties": {}}, {"species": [{"element": "S", "occu": 1}], "abc": [0.84914227, 0.70396974, 0.70113585], "xyz": [5.94956917013842, 4.9323076657308, 34.880210608837196], "label": "S", "properties": {}}, {"species": [{"element": "S", "occu": 1}], "abc": [0.69675045, 0.84598338, 0.62869043], "xyz": [4.8818726430137405, 5.9273148732996, 31.276185073349794], "label": "S", "properties": {}}, {"species": [{"element": "S", "occu": 1}], "abc": [0.18537396, 0.65645275, 0.65331666], "xyz": [1.2989213871489502, 4.599383676655, 32.50129442826534], "label": "S", "properties": {}}, {"species": [{"element": "S", "occu": 1}], "abc": [0.65482781, 0.19901042, 0.72656802], "xyz": [4.588033093342861, 1.3943505868964001, 36.145413986812734], "label": "S", "properties": {}}, {"species": [{"element": "S", "occu": 1}], "abc": [0.82403298, 0.34631558, 0.79704518], "xyz": [5.77358106432694, 2.4264324060236, 39.65152223090369], "label": "S", "properties": {}}, {"species": [{"element": "S", "occu": 1}], "abc": [0.33161218, 0.81694992, 0.87088704], "xyz": [2.32355554253176, 5.7238942584864, 43.32501807132929], "label": "S", "properties": {}}, {"species": [{"element": "S", "occu": 1}], "abc": [0.14675999, 0.32507114, 0.84740367], "xyz": [1.02831836644302, 2.2775849367188, 42.15676388577417], "label": "S", "properties": {}}, {"species": [{"element": "S", "occu": 1}], "abc": [0.3254699, 0.15315335, 0.77548967], "xyz": [2.28040531228755, 1.073056694507, 38.57917551153269], "label": "S", "properties": {}}, {"species": [{"element": "S", "occu": 1}], "abc": [0.83557754, 0.69350243, 0.8438955], "xyz": [5.854527163727189, 4.8589692956006, 41.98223892252831], "label": "S", "properties": {}}, {"species": [{"element": "S", "occu": 1}], "abc": [0.69999285, 0.84847436, 0.77265234], "xyz": [4.904590690161281, 5.9447677253912, 38.43802359644124], "label": "S", "properties": {}}, {"species": [{"element": "S", "occu": 1}], "abc": [0.19366806, 0.65660985, 0.79873497], "xyz": [1.35703336244925, 4.600484385237, 39.735586155298236], "label": "S", "properties": {}}, {"species": [{"element": "S", "occu": 1}], "abc": [0.65030319, 0.1768727, 0.86875503], "xyz": [4.5563278754569, 1.239244422734, 43.218954520563564], "label": "S", "properties": {}}, {"species": [{"element": "S", "occu": 1}], "abc": [0.84556106, 0.31884426, 0.93754479], "xyz": [5.92441108206218, 2.2339568001492, 46.641117738335645], "label": "S", "properties": {}}, {"species": [{"element": "S", "occu": 1}], "abc": [0.14568714, 0.31851306, 0.99119893], "xyz": [1.02080039419818, 2.2316362738452002, 49.31031187986476], "label": "S", "properties": {}}, {"species": [{"element": "S", "occu": 1}], "abc": [0.33701023, 0.14475123, 0.92032578], "xyz": [2.3612602576393904, 1.0141879128966, 45.784503866322574], "label": "S", "properties": {}}, {"species": [{"element": "S", "occu": 1}], "abc": [0.80762115, 0.65415843, 0.98585537], "xyz": [5.658646147191391, 4.5833087071206, 49.044479661756164], "label": "S", "properties": {}}, {"species": [{"element": "S", "occu": 1}], "abc": [0.6981968, 0.82910868, 0.91526563], "xyz": [4.89200345925764, 5.8090836377256005, 45.53277077107106], "label": "S", "properties": {}}, {"species": [{"element": "S", "occu": 1}], "abc": [0.18591243, 0.65220422, 0.94267525], "xyz": [1.30269339913066, 4.5696166910924, 46.8963486259307], "label": "S", "properties": {}}]}, "formula": "", "bandgap": 2.2639}