{"miller": "100_0.08", "final_energy": -460.96136026, "sigma": -0.00029948928637560016, "incar_parameters": {"SYSTEM": "unknown system", "LCOMPAT": false, "PREC": "normal", "ENMAX": 520.0, "ENAUG": 368.056, "EDIFF": 1e-05, "IALGO": 38, "IWAVPR": 11, "NBANDS": 420, "NBANDSLOW": -1, "NBANDSHIGH": -1, "NELECT": 700.0, "TURBO": 0, "IRESTART": 0, "NREBOOT": 0, "NMIN": 0, "EREF": 0.0, "ISMEAR": 0, "SIGMA": 0.05, "KSPACING": 0.5, "KGAMMA": true, "KBLOWUP": true, "LREAL": true, "ROPT": [-0.0005, -0.0005, -0.0005], "LMAXPAW": -100, "LMAXMIX": 2, "NLSPLINE": false, "ISTART": 0, "ICHARG": 2, "INIWAV": 1, "ISPIN": 1, "LNONCOLLINEAR": false, "MAGMOM": [0.6, 0.6, 0.6, 0.6, 0.6, 0.6, 0.6, 0.6, 0.6, 0.6, 0.6, 0.6, 0.6, 0.6, 0.6, 0.6, 0.6, 0.6, 0.6, 0.6, 0.6, 0.6, 0.6, 0.6, 0.6, 0.6, 0.6, 0.6, 0.6, 0.6, 0.6, 0.6, 0.6, 0.6, 0.6, 0.6, 0.6, 0.6, 0.6, 0.6, 0.6, 0.6, 0.6, 0.6, 0.6, 0.6, 0.6, 0.6, 0.6, 0.6, 0.6, 0.6, 0.6, 0.6, 0.6, 0.6, 0.6, 0.6, 0.6, 0.6, 0.6, 0.6, 0.6, 0.6, 0.6, 0.6, 0.6, 0.6, 0.6, 0.6, 0.6, 0.6, 0.6, 0.6, 0.6, 0.6, 0.6, 0.6, 0.6, 0.6, 0.6, 0.6, 0.6, 0.6, 0.6, 0.6, 0.6, 0.6, 0.6, 0.6, 0.6, 0.6, 0.6, 0.6, 0.6, 0.6, 0.6, 0.6, 0.6, 0.6, 0.6, 0.6, 0.6, 0.6, 0.6, 0.6, 0.6, 0.6, 0.6, 0.6, 0.6, 0.6], "NUPDOWN": -1.0, "LSORBIT": false, "SAXIS": [0.0, 0.0, 1.0], "LSPIRAL": false, "QSPIRAL": [0.0, 0.0, 0.0], "LZEROZ": false, "LASPH": false, "LMETAGGA": false, "NELM": 100, "NELMDL": -5, "NELMIN": 6, "ENINI": 520.0, "LDIAG": true, "LSUBROT": false, "WEIMIN": 0.001, "EBREAK": 1e-08, "DEPER": 0.3, "NRMM": 4, "TIME": 0.4, "AMIX": 0.4, "BMIX": 1.0, "AMIN": 0.1, "AMIX_MAG": 1.6, "BMIX_MAG": 1.0, "IMIX": 4, "MIXFIRST": false, "MAXMIX": -45, "WC": 100.0, "INIMIX": 1, "MIXPRE": 1, "MREMOVE": 5, "LDIPOL": false, "LMONO": false, "IDIPOL": 0, "EPSILON": 1.0, "DIPOL": [-100.0, -100.0, -100.0], "EFIELD": 0.0, "NGX": 40, "NGY": 40, "NGZ": 280, "NGXF": 80, "NGYF": 80, "NGZF": 560, "ADDGRID": false, "NSW": 150, "IBRION": 2, "MDALGO": 0, "ISIF": 3, "PSTRESS": 0.0, "EDIFFG": -0.01, "NFREE": 1, "POTIM": 0.5, "SMASS": -3.0, "SCALEE": 1.0, "TEBEG": 0.0001, "TEEND": 0.0001, "NBLOCK": 1, "KBLOCK": 150, "NPACO": 256, "APACO": 10.0, "ISYM": 0, "SYMPREC": 1e-05, "LORBIT": 11, "RWIGS": [-1.0, -1.0, -1.0], "NEDOS": 301, "EMIN": 10.0, "EMAX": -10.0, "EFERMI": 0.0, "NWRITE": 2, "LWAVE": false, "LDOWNSAMPLE": false, "LCHARG": false, "LPARD": false, "LVTOT": false, "LVHAR": false, "LELF": false, "LOPTICS": false, "STM": [0.0, 0.0, 0.0, 0.0, 0.0, 0.0, 0.0], "NPAR": 1, "NSIM": 4, "NBLK": -1, "LPLANE": true, "LSCALAPACK": true, "LSCAAWARE": false, "LSCALU": false, "LASYNC": false, "LORBITALREAL": false, "IDIOT": 3, "PHON_NSTRUCT": -1, "LMUSIC": false, "POMASS": [22.99, 30.974, 32.066], "DARWINR": [0.0, 0.0, 0.0], "DARWINV": [1.0, 1.0, 1.0], "LCORR": true, "GGA_COMPAT": true, "LBERRY": false, "ICORELEVEL": 0, "LDAU": false, "I_CONSTRAINED_M": 0, "GGA": "--", "VOSKOWN": 0, "LHFCALC": false, "PRECFOCK": "", "LSYMGRAD": false, "LHFONE": false, "LRHFCALC": false, "LTHOMAS": false, "LMODELHF": false, "LFOCKACE": false, "ENCUT4O": -1.0, "EXXOEP": 0, "FOURORBIT": 0, "AEXX": 0.0, "HFALPHA": 0.0, "MCALPHA": 0.0, "ALDAX": 1.0, "AGGAX": 1.0, "ALDAC": 1.0, "AGGAC": 1.0, "NKREDX": 1, "NKREDY": 1, "NKREDZ": 1, "SHIFTRED": false, "ODDONLY": false, "EVENONLY": false, "LMAXFOCK": 0, "NMAXFOCKAE": 0, "LFOCKAEDFT": false, "HFSCREEN": 0.0, "HFSCREENC": 0.0, "NBANDSGWLOW": 0, "LUSE_VDW": false, "Zab_VDW": -0.8491, "PARAM1": 0.1234, "PARAM2": 1.0, "PARAM3": 0.0, "MODEL_GW": 0, "MODEL_EPS0": 13.20915312, "MODEL_ALPHA": 1.0, "LEPSILON": false, "LRPA": false, "LNABLA": false, "LVEL": false, "CSHIFT": 0.1, "OMEGAMAX": -1.0, "DEG_THRESHOLD": 0.002, "RTIME": -0.1, "WPLASMAI": 0.0, "DFIELD": [0.0, 0.0, 0.0], "WPLASMA": [0.0, 0.0, 0.0, 0.0, 0.0, 0.0, 0.0, 0.0, 0.0], "NUCIND": false, "MAGPOS": [0.0, 0.0, 0.0], "LNICSALL": true, "ORBITALMAG": false, "LMAGBLOCH": false, "LCHIMAG": false, "LGAUGE": true, "MAGATOM": 0, "MAGDIPOL": [0.0, 0.0, 0.0], "AVECCONST": [0.0, 0.0, 0.0], "LFINITE_TEMPERATURE": false, "LADDER": false, "LRPAFORCE": false, "LFXC": false, "LHARTREE": true, "IBSE": 0, "KPOINT": [-1, 0, 0, 0], "LTCTC": false, "LTCTE": false, "LTETE": false, "LTRIPLET": false, "LFXCEPS": false, "LFXHEG": false, "NATURALO": 2, "LHOLEGF": false, "L2ORDER": false, "LDMP1": false, "LMP2LT": false, "LSMP2LT": false, "LGWLF": false, "ENCUTGW": -2.0, "ENCUTGWSOFT": -2.0, "ENCUTLF": -1.0, "LESF_SPLINES": false, "LMAXMP2": -1, "SCISSOR": 0.0, "NOMEGA": 0, "NOMEGAR": 0, "NBANDSGW": -1, "NBANDSO": -1, "NBANDSV": -1, "NELMGW": 1, "NELMHF": 1, "DIM": 3, "IESPILON": 4, "ANTIRES": 0, "OMEGAMIN": -30.0, "OMEGATL": -200.0, "OMEGAGRID": 0, "LSELFENERGY": false, "LSPECTRAL": false, "LSPECTRALGW": false, "LSINGLES": false, "LFERMIGW": false, "ODDONLYGW": false, "EVENONLYGW": false, "NKREDLFX": 1, "NKREDLFY": 1, "NKREDLFZ": 1, "MAXMEM": 2800, "TELESCOPE": 0, "NTAUPAR": -1, "NOMEGAPAR": -1, "DAMP_NEWTON": 0.80000001, "LAMBDA": 1.0, "OFIELD_KAPPA": 0.0, "OFIELD_K": [0.0, 0.0, 0.0], "OFIELD_Q6_NEAR": 0.0, "OFIELD_Q6_FAR": 0.0, "OFIELD_A": 0.0, "KPOINTS_OPT_MODE": 1, "LKPOINTS_OPT": false, "@module": "pymatgen.io.vasp.inputs", "@class": "Incar"}, "relaxed_structures": {"@module": "pymatgen.core.structure", "@class": "Structure", "charge": 0, "lattice": {"matrix": [[7.00642, 0.0, 0.0], [-0.000541, 7.169815, 0.0], [0.0, 0.0, 49.08373801]], "a": 7.00642, "b": 7.169815020410638, "c": 49.08373801, "alpha": 90.0, "beta": 90.0, "gamma": 90.00432326589427, "volume": 2465.708582162255}, "sites": [{"species": [{"element": "Na", "occu": 1}], "abc": [0.50328826, 0.40235205, 0.03537542], "xyz": [3.5260312581701507, 2.88478976337075, 1.736357847273714], "label": "Na", "properties": {}}, {"species": [{"element": "Na", "occu": 1}], "abc": [0.50395702, 0.90247196, 0.03565596], "xyz": [3.53044630673804, 6.470556995887399, 1.7501277991350395], "label": "Na", "properties": {}}, {"species": [{"element": "Na", "occu": 1}], "abc": [0.00490834, 0.98749776, 0.03633287], "xyz": [0.033855655254639995, 7.0801762521144, 1.7833530722313888], "label": "Na", "properties": {}}, {"species": [{"element": "Na", "occu": 1}], "abc": [0.50190351, 0.48844651, 0.10651741], "xyz": [3.5162825409722904, 3.5020711140956498, 5.228272645943754], "label": "Na", "properties": {}}, {"species": [{"element": "Na", "occu": 1}], "abc": [0.00186884, 0.57291482, 0.10717843], "xyz": [0.012783931035180001, 4.1076932701583, 5.260717978443124], "label": "Na", "properties": {}}, {"species": [{"element": "Na", "occu": 1}], "abc": [0.00226965, 0.07304645, 0.10746771], "xyz": [0.015862603023549998, 0.52372953290675, 5.274916922174657], "label": "Na", "properties": {}}, {"species": [{"element": "Na", "occu": 1}], "abc": [0.50049994, 0.40498697, 0.17835391], "xyz": [3.50649369166403, 2.9036816523105498, 8.754276591499119], "label": "Na", "properties": {}}, {"species": [{"element": "Na", "occu": 1}], "abc": [0.50194849, 0.90480986, 0.17850247], "xyz": [3.51637243717154, 6.4873193063759, 8.761568471617885], "label": "Na", "properties": {}}, {"species": [{"element": "Na", "occu": 1}], "abc": [0.00265291, 0.98914173, 0.17906382], "xyz": [0.01805227600627, 7.09196321287995, 8.789121627949799], "label": "Na", "properties": {}}, {"species": [{"element": "Na", "occu": 1}], "abc": [0.49888377, 0.49023966, 0.24994546], "xyz": [3.49512400414734, 3.5149276678629002, 12.268257475428934], "label": "Na", "properties": {}}, {"species": [{"element": "Na", "occu": 1}], "abc": [0.99916808, 0.5766492, 0.24999445], "xyz": [7.0002792518564005, 4.134468083898, 12.270662087754044], "label": "Na", "properties": {}}, {"species": [{"element": "Na", "occu": 1}], "abc": [0.99973335, 0.07751547, 0.25002403], "xyz": [7.00450980223773, 0.55577157953805, 12.27211398472438], "label": "Na", "properties": {}}, {"species": [{"element": "Na", "occu": 1}], "abc": [0.49883349, 0.40537824, 0.3216135], "xyz": [3.4948176313779604, 2.9064869858256, 15.785992774479134], "label": "Na", "properties": {}}, {"species": [{"element": "Na", "occu": 1}], "abc": [0.49775951, 0.90499395, 0.32147916], "xyz": [3.48702258432725, 6.48863919761925, 15.77939886511487], "label": "Na", "properties": {}}, {"species": [{"element": "Na", "occu": 1}], "abc": [0.99727285, 0.98917012, 0.32096594], "xyz": [6.98677730066208, 7.0921667639278, 15.754208109093378], "label": "Na", "properties": {}}, {"species": [{"element": "Na", "occu": 1}], "abc": [0.49793927, 0.48846252, 0.39348499], "xyz": [3.48850740189008, 3.5021859028338, 19.31371416002747], "label": "Na", "properties": {}}, {"species": [{"element": "Na", "occu": 1}], "abc": [0.9979518, 0.57312947, 0.39282354], "xyz": [6.99175938751273, 4.10923227094805, 19.281247721520756], "label": "Na", "properties": {}}, {"species": [{"element": "Na", "occu": 1}], "abc": [0.99756265, 0.07327448, 0.39252929], "xyz": [6.98930326071932, 0.5253644658212, 19.26680483161131], "label": "Na", "properties": {}}, {"species": [{"element": "Na", "occu": 1}], "abc": [0.4968623, 0.40240924, 0.46464593], "xyz": [3.4810082525671597, 2.8851998050906, 22.806559095532798], "label": "Na", "properties": {}}, {"species": [{"element": "Na", "occu": 1}], "abc": [0.4963994, 0.90259075, 0.46435318], "xyz": [3.47749438255225, 6.47140869821125, 22.79218983123037], "label": "Na", "properties": {}}, {"species": [{"element": "Na", "occu": 1}], "abc": [0.99557712, 0.98752349, 0.46365497], "xyz": [6.974897194902311, 7.080360731454349, 22.757919074514408], "label": "Na", "properties": {}}, {"species": [{"element": "Na", "occu": 1}], "abc": [0.99722119, 0.07244978, 0.53540185], "xyz": [6.98691129470882, 0.5194515193907, 26.279524135469316], "label": "Na", "properties": {}}, {"species": [{"element": "Na", "occu": 1}], "abc": [0.99712072, 0.57228096, 0.53567523], "xyz": [6.98593695102304, 4.1031486112224, 26.292942647766488], "label": "Na", "properties": {}}, {"species": [{"element": "Na", "occu": 1}], "abc": [0.49661266, 0.48741827, 0.53638128], "xyz": [3.47921317999313, 3.49469882352005, 26.32759822098845], "label": "Na", "properties": {}}, {"species": [{"element": "Na", "occu": 1}], "abc": [0.9984094, 0.98639365, 0.60659746], "xyz": [6.99474194938335, 7.07225998767475, 29.774070804171455], "label": "Na", "properties": {}}, {"species": [{"element": "Na", "occu": 1}], "abc": [0.49866987, 0.90184225, 0.60720032], "xyz": [3.4934026539081504, 6.466042091683749, 29.803661426468164], "label": "Na", "properties": {}}, {"species": [{"element": "Na", "occu": 1}], "abc": [0.49835243, 0.40176788, 0.60750885], "xyz": [3.49144907617752, 2.8806013725422, 29.818805232156386], "label": "Na", "properties": {}}, {"species": [{"element": "Na", "occu": 1}], "abc": [0.99977488, 0.0698615, 0.67839993], "xyz": [7.004804919658101, 0.5008940306225, 33.29840443012234], "label": "Na", "properties": {}}, {"species": [{"element": "Na", "occu": 1}], "abc": [0.9994866, 0.57008261, 0.67853283], "xyz": [7.00251448927999, 4.08738684841715, 33.304927658903864], "label": "Na", "properties": {}}, {"species": [{"element": "Na", "occu": 1}], "abc": [0.49952427, 0.48602813, 0.67903663], "xyz": [3.49961389459507, 3.48473177689595, 33.32965604611331], "label": "Na", "properties": {}}, {"species": [{"element": "Na", "occu": 1}], "abc": [0.00043678, 0.98525428, 0.74998362], "xyz": [0.0025272415621200002, 7.0640909155582, 36.81199951587139], "label": "Na", "properties": {}}, {"species": [{"element": "Na", "occu": 1}], "abc": [0.50026161, 0.89949038, 0.74999634], "xyz": [3.50455632524062, 6.4491796188797, 36.812623861018885], "label": "Na", "properties": {}}, {"species": [{"element": "Na", "occu": 1}], "abc": [0.50005571, 0.39874913, 0.75000911], "xyz": [3.5033846043788706, 2.85895749351095, 36.81325066035327], "label": "Na", "properties": {}}, {"species": [{"element": "Na", "occu": 1}], "abc": [0.00044767, 0.06959491, 0.82159348], "xyz": [0.00309891319509, 0.49898262964164997, 40.32687912304417], "label": "Na", "properties": {}}, {"species": [{"element": "Na", "occu": 1}], "abc": [0.00064457, 0.56987684, 0.82146187], "xyz": [0.0042078247689600005, 4.0859115155846, 40.320419212284676], "label": "Na", "properties": {}}, {"species": [{"element": "Na", "occu": 1}], "abc": [0.5006544, 0.48600085, 0.82097094], "xyz": [3.5075320747881507, 3.48453618434275, 40.29632253278343], "label": "Na", "properties": {}}, {"species": [{"element": "Na", "occu": 1}], "abc": [0.00172208, 0.986226, 0.89343537], "xyz": [0.0115320674876, 7.07105796819, 43.85314762994741], "label": "Na", "properties": {}}, {"species": [{"element": "Na", "occu": 1}], "abc": [0.50157499, 0.90175319, 0.89279423], "xyz": [3.51375719296001, 6.465403547959849, 43.82167808215968], "label": "Na", "properties": {}}, {"species": [{"element": "Na", "occu": 1}], "abc": [0.50198111, 0.40165258, 0.89249266], "xyz": [3.51687319468042, 2.8797746928727, 43.80687589928801], "label": "Na", "properties": {}}, {"species": [{"element": "Na", "occu": 1}], "abc": [0.00319955, 0.07247081, 0.96460484], "xyz": [0.022378184402789998, 0.51960230060015, 47.34641124973797], "label": "Na", "properties": {}}, {"species": [{"element": "Na", "occu": 1}], "abc": [0.00338311, 0.5722384, 0.96432186], "xyz": [0.023393908591800003, 4.102843463896, 47.3325215335559], "label": "Na", "properties": {}}, {"species": [{"element": "Na", "occu": 1}], "abc": [0.50402389, 0.48735686, 0.96363776], "xyz": [3.5311394033125403, 3.4942585251809, 47.298943348383254], "label": "Na", "properties": {}}, {"species": [{"element": "P", "occu": 1}], "abc": [0.00349739, 0.48772928, 0.03579592], "xyz": [0.024240321703319998, 3.4969287076831996, 1.7569975591069191], "label": "P", "properties": {}}, {"species": [{"element": "P", "occu": 1}], "abc": [0.50251622, 0.9884577, 0.10706365], "xyz": [3.5203049385167002, 7.0870588443255, 5.255084146994336], "label": "P", "properties": {}}, {"species": [{"element": "P", "occu": 1}], "abc": [0.00039877, 0.48966813, 0.17860535], "xyz": [0.0025290396450700003, 3.51082990349595, 8.766618206584353], "label": "P", "properties": {}}, {"species": [{"element": "P", "occu": 1}], "abc": [0.49973128, 0.99037372, 0.24998919], "xyz": [3.50079144263508, 7.1007963532618, 12.270403907292112], "label": "P", "properties": {}}, {"species": [{"element": "P", "occu": 1}], "abc": [0.99891387, 0.48951657, 0.32137145], "xyz": [6.99854528858103, 3.50974324633455, 15.774112055693815], "label": "P", "properties": {}}, {"species": [{"element": "P", "occu": 1}], "abc": [0.49730488, 0.98843336, 0.39294481], "xyz": [3.48379211488184, 7.0868843310284, 19.287200106429225], "label": "P", "properties": {}}, {"species": [{"element": "P", "occu": 1}], "abc": [0.99659097, 0.48768628, 0.46422021], "xyz": [6.98227106574992, 3.4966204056382, 22.78566316658718], "label": "P", "properties": {}}, {"species": [{"element": "P", "occu": 1}], "abc": [0.49696906, 0.98718764, 0.53582675], "xyz": [3.4814398928519603, 7.0779527490866, 26.300379815749768], "label": "P", "properties": {}}, {"species": [{"element": "P", "occu": 1}], "abc": [0.9982491, 0.48618386, 0.6071165], "xyz": [6.993889433753741, 3.4858483321859, 29.79954722754816], "label": "P", "properties": {}}, {"species": [{"element": "P", "occu": 1}], "abc": [0.49973793, 0.98558815, 0.67859798], "xyz": [3.5008406243214503, 7.06648470169225, 33.30812546443522], "label": "P", "properties": {}}, {"species": [{"element": "P", "occu": 1}], "abc": [1.365e-05, 0.48509326, 0.74999964], "xyz": [-0.00016679782066000002, 3.4780289319469, 36.81278583735431], "label": "P", "properties": {}}, {"species": [{"element": "P", "occu": 1}], "abc": [0.50042928, 0.98554959, 0.82138786], "xyz": [3.5056845336494096, 7.06620823362585, 40.316786524834555], "label": "P", "properties": {}}, {"species": [{"element": "P", "occu": 1}], "abc": [0.00212481, 0.48604762, 0.89288241], "xyz": [0.014624359517780001, 3.4848715165903, 43.8260062861774], "label": "P", "properties": {}}, {"species": [{"element": "P", "occu": 1}], "abc": [0.50345528, 0.98716479, 0.9641898], "xyz": [3.52688508674621, 7.07778891881385, 47.3260395351143], "label": "P", "properties": {}}, {"species": [{"element": "S", "occu": 1}], "abc": [0.15467383, 0.32415608, 0.06294653], "xyz": [1.08353444754932, 2.3241391247252, 3.0896509871586053], "label": "S", "properties": {}}, {"species": [{"element": "S", "occu": 1}], "abc": [0.19203474, 0.65286286, 0.01422682], "xyz": [1.3451228442235401, 4.6809059265709, 0.6983055055954281], "label": "S", "properties": {}}, {"species": [{"element": "S", "occu": 1}], "abc": [0.8129225, 0.65203475, 0.05721096], "xyz": [5.69532371165025, 4.67496853107125, 2.8081277719405895], "label": "S", "properties": {}}, {"species": [{"element": "S", "occu": 1}], "abc": [0.65411279, 0.15229272, 0.0799867], "xyz": [4.582906543750281, 1.0919106282467999, 3.9260462270844667], "label": "S", "properties": {}}, {"species": [{"element": "S", "occu": 1}], "abc": [0.85360056, 0.3216644, 0.00880859], "xyz": [5.9805100151548, 2.306274240086, 0.4323585237975059], "label": "S", "properties": {}}, {"species": [{"element": "S", "occu": 1}], "abc": [0.31216161, 0.82442667, 0.0855468], "xyz": [2.1866893327077297, 5.91098670496605, 4.198956718793868], "label": "S", "properties": {}}, {"species": [{"element": "S", "occu": 1}], "abc": [0.15148241, 0.32591573, 0.20574884], "xyz": [1.06117306666227, 2.33675548968995, 10.098922158421408], "label": "S", "properties": {}}, {"species": [{"element": "S", "occu": 1}], "abc": [0.69071804, 0.82286501, 0.12861925], "xyz": [4.839015519846391, 5.89978989167315, 6.313113570042692], "label": "S", "properties": {}}, {"species": [{"element": "S", "occu": 1}], "abc": [0.18974902, 0.65434317, 0.15707654], "xyz": [1.32910732905343, 4.69151947541355, 7.709903736877284], "label": "S", "properties": {}}, {"species": [{"element": "S", "occu": 1}], "abc": [0.35227323, 0.1540316, 0.13407058], "xyz": [2.468090873041, 1.1043780761539999, 6.580685223568746], "label": "S", "properties": {}}, {"species": [{"element": "S", "occu": 1}], "abc": [0.81005193, 0.65387902, 0.20003798], "xyz": [5.67521029484078, 4.6881916057813, 9.81861180236962], "label": "S", "properties": {}}, {"species": [{"element": "S", "occu": 1}], "abc": [0.65048364, 0.15477536, 0.22292266], "xyz": [4.557477851499041, 1.1097106977584, 10.941877439932306], "label": "S", "properties": {}}, {"species": [{"element": "S", "occu": 1}], "abc": [0.8507, 0.32353516, 0.15162879], "xyz": [5.960186461478441, 2.3196872431954, 7.442507803133308], "label": "S", "properties": {}}, {"species": [{"element": "S", "occu": 1}], "abc": [0.31004673, 0.82601315, 0.22842828], "xyz": [2.17187073689245, 5.92236147306725, 11.212113849594923], "label": "S", "properties": {}}, {"species": [{"element": "S", "occu": 1}], "abc": [0.14873755, 0.3236164, 0.34837323], "xyz": [1.0419426685986, 2.320269718966, 17.09946035101747], "label": "S", "properties": {}}, {"species": [{"element": "S", "occu": 1}], "abc": [0.6889761, 0.82549717, 0.27154176], "xyz": [4.8268093325930295, 5.91866199192355, 13.328284606614298], "label": "S", "properties": {}}, {"species": [{"element": "S", "occu": 1}], "abc": [0.18921847, 0.65373499, 0.2999093], "xyz": [1.3253904019478102, 4.68715893732685, 14.720669507962493], "label": "S", "properties": {}}, {"species": [{"element": "S", "occu": 1}], "abc": [0.34913345, 0.15483029, 0.27707269], "xyz": [2.44609182356211, 1.1101045356963501, 13.599763325685947], "label": "S", "properties": {}}, {"species": [{"element": "S", "occu": 1}], "abc": [0.80977323, 0.65434865, 0.34289906], "xyz": [5.67325735151695, 4.6915587659997495, 16.830767624915268], "label": "S", "properties": {}}, {"species": [{"element": "S", "occu": 1}], "abc": [0.64752306, 0.15406529, 0.36593311], "xyz": [4.536735168723311, 1.10461962722135, 17.96136490042451], "label": "S", "properties": {}}, {"species": [{"element": "S", "occu": 1}], "abc": [0.84785771, 0.32554886, 0.29426791], "xyz": [5.940271094564941, 2.3341250996608998, 14.44376899919026], "label": "S", "properties": {}}, {"species": [{"element": "S", "occu": 1}], "abc": [0.30914804, 0.8227925, 0.37138862], "xyz": [2.1655758796743, 5.8992700083875, 18.229141723975445], "label": "S", "properties": {}}, {"species": [{"element": "S", "occu": 1}], "abc": [0.14649162, 0.32170682, 0.49120972], "xyz": [1.02620777281078, 2.3065783836383, 24.110409204445457], "label": "S", "properties": {}}, {"species": [{"element": "S", "occu": 1}], "abc": [0.68771538, 0.82434403, 0.41444575], "xyz": [4.81797682261937, 5.91039419145445, 20.342546612357957], "label": "S", "properties": {}}, {"species": [{"element": "S", "occu": 1}], "abc": [0.18717159, 0.6520097, 0.44279258], "xyz": [1.3110500343601001, 4.6747889272055, 21.733914989491964], "label": "S", "properties": {}}, {"species": [{"element": "S", "occu": 1}], "abc": [0.34582635, 0.15218935, 0.42003287], "xyz": [2.42292232072865, 1.09116948447025, 20.616783346668388], "label": "S", "properties": {}}, {"species": [{"element": "S", "occu": 1}], "abc": [0.80808706, 0.65288407, 0.48578152], "xyz": [5.66144412864333, 4.68105799834705, 23.843972857779576], "label": "S", "properties": {}}, {"species": [{"element": "S", "occu": 1}], "abc": [0.84540831, 0.32412475, 0.43706972], "xyz": [5.923110339860451, 2.32391449442125, 21.453015628584055], "label": "S", "properties": {}}, {"species": [{"element": "S", "occu": 1}], "abc": [0.34596578, 0.15088459, 0.56296827], "xyz": [2.42389993174441, 1.0818145966508501, 27.632587072622943], "label": "S", "properties": {}}, {"species": [{"element": "S", "occu": 1}], "abc": [0.30831494, 0.82201043, 0.51428601], "xyz": [2.1597392542721696, 5.89366271117045, 25.243079777048237], "label": "S", "properties": {}}, {"species": [{"element": "S", "occu": 1}], "abc": [0.68776077, 0.82290824, 0.55724195], "xyz": [4.818295620785561, 5.9000998427755995, 27.35151788198152], "label": "S", "properties": {}}, {"species": [{"element": "S", "occu": 1}], "abc": [0.84666185, 0.32243288, 0.58003393], "xyz": [5.93189408288892, 2.3117840995171997, 28.47023345703068], "label": "S", "properties": {}}, {"species": [{"element": "S", "occu": 1}], "abc": [0.64690685, 0.15290183, 0.50880882], "xyz": [4.53241837208697, 1.0962778342614499, 24.97423881805725], "label": "S", "properties": {}}, {"species": [{"element": "S", "occu": 1}], "abc": [0.18835907, 0.65046651, 0.58559971], "xyz": [1.31937085284749, 4.66372454039565, 28.743422744371976], "label": "S", "properties": {}}, {"species": [{"element": "S", "occu": 1}], "abc": [0.34860481, 0.14972519, 0.70570761], "xyz": [2.44239071155241, 1.07350191313985, 34.63876744090326], "label": "S", "properties": {}}, {"species": [{"element": "S", "occu": 1}], "abc": [0.80977808, 0.65168326, 0.62867404], "xyz": [5.67329277462994, 4.6724484127969, 30.85767187304826], "label": "S", "properties": {}}, {"species": [{"element": "S", "occu": 1}], "abc": [0.3104974, 0.82069131, 0.65707983], "xyz": [2.1750311993092897, 5.88420486480765, 32.25193422737534], "label": "S", "properties": {}}, {"species": [{"element": "S", "occu": 1}], "abc": [0.14850106, 0.32073537, 0.63412106], "xyz": [1.04028727897003, 2.29961326685655, 31.12503197566349], "label": "S", "properties": {}}, {"species": [{"element": "S", "occu": 1}], "abc": [0.68998095, 0.82142268, 0.7000666], "xyz": [4.83385193802912, 5.8894486524042, 34.36188558395146], "label": "S", "properties": {}}, {"species": [{"element": "S", "occu": 1}], "abc": [0.84950967, 0.32059219, 0.72290873], "xyz": [5.95184810170661, 2.2985866927448497, 35.48306270846182], "label": "S", "properties": {}}, {"species": [{"element": "S", "occu": 1}], "abc": [0.64966517, 0.15156668, 0.65162857], "xyz": [4.551745042817521, 1.0867050557642, 31.984366009710943], "label": "S", "properties": {}}, {"species": [{"element": "S", "occu": 1}], "abc": [0.18974159, 0.64985797, 0.72849784], "xyz": [1.32905769784603, 4.65936142117555, 35.757397119410896], "label": "S", "properties": {}}, {"species": [{"element": "S", "occu": 1}], "abc": [0.35044361, 0.15146478, 0.84837048], "xyz": [2.45527317553022, 1.0859744516157, 41.641194375737946], "label": "S", "properties": {}}, {"species": [{"element": "S", "occu": 1}], "abc": [0.81030404, 0.64979626, 0.77150967], "xyz": [5.6769788921601405, 4.6589189718919, 37.868578514461554], "label": "S", "properties": {}}, {"species": [{"element": "S", "occu": 1}], "abc": [0.31014958, 0.82142586, 0.79991436], "xyz": [2.1725938289133397, 5.8894714524159, 39.26278687667683], "label": "S", "properties": {}}, {"species": [{"element": "S", "occu": 1}], "abc": [0.15055831, 0.32061626, 0.7770892], "xyz": [1.05470130095354, 2.2987592701919, 38.142442703200494], "label": "S", "properties": {}}, {"species": [{"element": "S", "occu": 1}], "abc": [0.6896008, 0.82062116, 0.84290986], "xyz": [4.8311888810884405, 5.8837019022854, 41.373166734285775], "label": "S", "properties": {}}, {"species": [{"element": "S", "occu": 1}], "abc": [0.8518822, 0.32049089, 0.8658888], "xyz": [5.968471098152511, 2.29786039048535, 42.50105900499329], "label": "S", "properties": {}}, {"species": [{"element": "S", "occu": 1}], "abc": [0.65152404, 0.14971166, 0.79429196], "xyz": [4.5647700703287395, 1.0734049055429, 38.986818468089396], "label": "S", "properties": {}}, {"species": [{"element": "S", "occu": 1}], "abc": [0.19036188, 0.65173368, 0.87131713], "xyz": [1.3334026953487201, 4.6728099148692, 42.76750173254511], "label": "S", "properties": {}}, {"species": [{"element": "S", "occu": 1}], "abc": [0.35343235, 0.15295571, 0.991193], "xyz": [2.47621273664789, 1.09666414389365, 48.651457529345926], "label": "S", "properties": {}}, {"species": [{"element": "S", "occu": 1}], "abc": [0.81179771, 0.6501338, 0.9144029], "xyz": [5.6874439889124, 4.661339071247, 44.88231237918423], "label": "S", "properties": {}}, {"species": [{"element": "S", "occu": 1}], "abc": [0.31274179, 0.82290373, 0.94276737], "xyz": [2.19075514137387, 5.90006750690995, 46.27454659345673], "label": "S", "properties": {}}, {"species": [{"element": "S", "occu": 1}], "abc": [0.15374633, 0.32248884, 0.91997534], "xyz": [1.07703689497616, 2.3121853223646, 45.15582856422067], "label": "S", "properties": {}}, {"species": [{"element": "S", "occu": 1}], "abc": [0.69199241, 0.82197556, 0.98573651], "xyz": [4.84794477249424, 5.8934126997214005, 48.38363260373174], "label": "S", "properties": {}}, {"species": [{"element": "S", "occu": 1}], "abc": [0.65440744, 0.15084017, 0.93704388], "xyz": [4.58497177123283, 1.08149611346855, 45.99361630979388], "label": "S", "properties": {}}]}, "formula": "", "bandgap": 2.2796999999999996}