{"miller": "101_0.03", "final_energy": -526.26174878, "sigma": 0.0036791216046807313, "incar_parameters": {"SYSTEM": "unknown system", "LCOMPAT": false, "PREC": "normal", "ENMAX": 520.0, "ENAUG": 368.056, "EDIFF": 1e-05, "IALGO": 38, "IWAVPR": 11, "NBANDS": 480, "NBANDSLOW": -1, "NBANDSHIGH": -1, "NELECT": 800.0, "TURBO": 0, "IRESTART": 0, "NREBOOT": 0, "NMIN": 0, "EREF": 0.0, "ISMEAR": 0, "SIGMA": 0.05, "KSPACING": 0.5, "KGAMMA": true, "KBLOWUP": true, "LREAL": true, "ROPT": [-0.0005, -0.0005, -0.0005], "LMAXPAW": -100, "LMAXMIX": 2, "NLSPLINE": false, "ISTART": 0, "ICHARG": 2, "INIWAV": 1, "ISPIN": 1, "LNONCOLLINEAR": false, "MAGMOM": [0.6, 0.6, 0.6, 0.6, 0.6, 0.6, 0.6, 0.6, 0.6, 0.6, 0.6, 0.6, 0.6, 0.6, 0.6, 0.6, 0.6, 0.6, 0.6, 0.6, 0.6, 0.6, 0.6, 0.6, 0.6, 0.6, 0.6, 0.6, 0.6, 0.6, 0.6, 0.6, 0.6, 0.6, 0.6, 0.6, 0.6, 0.6, 0.6, 0.6, 0.6, 0.6, 0.6, 0.6, 0.6, 0.6, 0.6, 0.6, 0.6, 0.6, 0.6, 0.6, 0.6, 0.6, 0.6, 0.6, 0.6, 0.6, 0.6, 0.6, 0.6, 0.6, 0.6, 0.6, 0.6, 0.6, 0.6, 0.6, 0.6, 0.6, 0.6, 0.6, 0.6, 0.6, 0.6, 0.6, 0.6, 0.6, 0.6, 0.6, 0.6, 0.6, 0.6, 0.6, 0.6, 0.6, 0.6, 0.6, 0.6, 0.6, 0.6, 0.6, 0.6, 0.6, 0.6, 0.6, 0.6, 0.6, 0.6, 0.6, 0.6, 0.6, 0.6, 0.6, 0.6, 0.6, 0.6, 0.6, 0.6, 0.6, 0.6, 0.6, 0.6, 0.6, 0.6, 0.6, 0.6, 0.6, 0.6, 0.6, 0.6, 0.6, 0.6, 0.6, 0.6, 0.6, 0.6, 0.6], "NUPDOWN": -1.0, "LSORBIT": false, "SAXIS": [0.0, 0.0, 1.0], "LSPIRAL": false, "QSPIRAL": [0.0, 0.0, 0.0], "LZEROZ": false, "LASPH": false, "LMETAGGA": false, "NELM": 100, "NELMDL": -5, "NELMIN": 6, "ENINI": 520.0, "LDIAG": true, "LSUBROT": false, "WEIMIN": 0.001, "EBREAK": 1e-08, "DEPER": 0.3, "NRMM": 4, "TIME": 0.4, "AMIX": 0.4, "BMIX": 1.0, "AMIN": 0.1, "AMIX_MAG": 1.6, "BMIX_MAG": 1.0, "IMIX": 4, "MIXFIRST": false, "MAXMIX": -45, "WC": 100.0, "INIMIX": 1, "MIXPRE": 1, "MREMOVE": 5, "LDIPOL": false, "LMONO": false, "IDIPOL": 0, "EPSILON": 1.0, "DIPOL": [-100.0, -100.0, -100.0], "EFIELD": 0.0, "NGX": 40, "NGY": 56, "NGZ": 240, "NGXF": 80, "NGYF": 112, "NGZF": 480, "ADDGRID": false, "NSW": 150, "IBRION": 2, "MDALGO": 0, "ISIF": 3, "PSTRESS": 0.0, "EDIFFG": -0.01, "NFREE": 1, "POTIM": 0.5, "SMASS": -3.0, "SCALEE": 1.0, "TEBEG": 0.0001, "TEEND": 0.0001, "NBLOCK": 1, "KBLOCK": 150, "NPACO": 256, "APACO": 10.0, "ISYM": 0, "SYMPREC": 1e-05, "LORBIT": 11, "RWIGS": [-1.0, -1.0, -1.0], "NEDOS": 301, "EMIN": 10.0, "EMAX": -10.0, "EFERMI": 0.0, "NWRITE": 2, "LWAVE": false, "LDOWNSAMPLE": false, "LCHARG": false, "LPARD": false, "LVTOT": false, "LVHAR": false, "LELF": false, "LOPTICS": false, "STM": [0.0, 0.0, 0.0, 0.0, 0.0, 0.0, 0.0], "NPAR": 1, "NSIM": 4, "NBLK": -1, "LPLANE": true, "LSCALAPACK": true, "LSCAAWARE": false, "LSCALU": false, "LASYNC": false, "LORBITALREAL": false, "IDIOT": 3, "PHON_NSTRUCT": -1, "LMUSIC": false, "POMASS": [22.99, 30.974, 32.066], "DARWINR": [0.0, 0.0, 0.0], "DARWINV": [1.0, 1.0, 1.0], "LCORR": true, "GGA_COMPAT": true, "LBERRY": false, "ICORELEVEL": 0, "LDAU": false, "I_CONSTRAINED_M": 0, "GGA": "--", "VOSKOWN": 0, "LHFCALC": false, "PRECFOCK": "", "LSYMGRAD": false, "LHFONE": false, "LRHFCALC": false, "LTHOMAS": false, "LMODELHF": false, "LFOCKACE": false, "ENCUT4O": -1.0, "EXXOEP": 0, "FOURORBIT": 0, "AEXX": 0.0, "HFALPHA": 0.0, "MCALPHA": 0.0, "ALDAX": 1.0, "AGGAX": 1.0, "ALDAC": 1.0, "AGGAC": 1.0, "NKREDX": 1, "NKREDY": 1, "NKREDZ": 1, "SHIFTRED": false, "ODDONLY": false, "EVENONLY": false, "LMAXFOCK": 0, "NMAXFOCKAE": 0, "LFOCKAEDFT": false, "HFSCREEN": 0.0, "HFSCREENC": 0.0, "NBANDSGWLOW": 0, "LUSE_VDW": false, "Zab_VDW": -0.8491, "PARAM1": 0.1234, "PARAM2": 1.0, "PARAM3": 0.0, "MODEL_GW": 0, "MODEL_EPS0": 13.39070154, "MODEL_ALPHA": 1.0, "LEPSILON": false, "LRPA": false, "LNABLA": false, "LVEL": false, "CSHIFT": 0.1, "OMEGAMAX": -1.0, "DEG_THRESHOLD": 0.002, "RTIME": -0.1, "WPLASMAI": 0.0, "DFIELD": [0.0, 0.0, 0.0], "WPLASMA": [0.0, 0.0, 0.0, 0.0, 0.0, 0.0, 0.0, 0.0, 0.0], "NUCIND": false, "MAGPOS": [0.0, 0.0, 0.0], "LNICSALL": true, "ORBITALMAG": false, "LMAGBLOCH": false, "LCHIMAG": false, "LGAUGE": true, "MAGATOM": 0, "MAGDIPOL": [0.0, 0.0, 0.0], "AVECCONST": [0.0, 0.0, 0.0], "LFINITE_TEMPERATURE": false, "LADDER": false, "LRPAFORCE": false, "LFXC": false, "LHARTREE": true, "IBSE": 0, "KPOINT": [-1, 0, 0, 0], "LTCTC": false, "LTCTE": false, "LTETE": false, "LTRIPLET": false, "LFXCEPS": false, "LFXHEG": false, "NATURALO": 2, "LHOLEGF": false, "L2ORDER": false, "LDMP1": false, "LMP2LT": false, "LSMP2LT": false, "LGWLF": false, "ENCUTGW": -2.0, "ENCUTGWSOFT": -2.0, "ENCUTLF": -1.0, "LESF_SPLINES": false, "LMAXMP2": -1, "SCISSOR": 0.0, "NOMEGA": 0, "NOMEGAR": 0, "NBANDSGW": -1, "NBANDSO": -1, "NBANDSV": -1, "NELMGW": 1, "NELMHF": 1, "DIM": 3, "IESPILON": 4, "ANTIRES": 0, "OMEGAMIN": -30.0, "OMEGATL": -200.0, "OMEGAGRID": 0, "LSELFENERGY": false, "LSPECTRAL": false, "LSPECTRALGW": false, "LSINGLES": false, "LFERMIGW": false, "ODDONLYGW": false, "EVENONLYGW": false, "NKREDLFX": 1, "NKREDLFY": 1, "NKREDLFZ": 1, "MAXMEM": 2800, "TELESCOPE": 0, "NTAUPAR": -1, "NOMEGAPAR": -1, "DAMP_NEWTON": 0.80000001, "LAMBDA": 1.0, "OFIELD_KAPPA": 0.0, "OFIELD_K": [0.0, 0.0, 0.0], "OFIELD_Q6_NEAR": 0.0, "OFIELD_Q6_FAR": 0.0, "OFIELD_A": 0.0, "KPOINTS_OPT_MODE": 1, "LKPOINTS_OPT": false, "@module": "pymatgen.io.vasp.inputs", "@class": "Incar"}, "relaxed_structures": {"@module": "pymatgen.core.structure", "@class": "Structure", "charge": 0, "lattice": {"matrix": [[7.00642, 0.0, 0.0], [-0.000714, 10.025156, 0.0], [0.0, 0.0, 40.67005341]], "a": 7.00642, "b": 10.02515602542584, "c": 40.67005341, "alpha": 90.0, "beta": 90.0, "gamma": 90.00408065335873, "volume": 2856.6829954494406}, "sites": [{"species": [{"element": "Na", "occu": 1}], "abc": [0.40110456, 0.93813459, 0.05547784], "xyz": [2.8096371831779403, 9.40494561374604, 2.2562867158714344], "label": "Na", "properties": {}}, {"species": [{"element": "Na", "occu": 1}], "abc": [0.04197565, 0.75771903, 0.00400802], "xyz": [0.29355802228558003, 7.59625147991868, 0.16300638746834822], "label": "Na", "properties": {}}, {"species": [{"element": "Na", "occu": 1}], "abc": [0.01320945, 0.19469896, 0.00154847], "xyz": [0.09241193961156, 1.9518874470377603, 0.0629763576037827], "label": "Na", "properties": {}}, {"species": [{"element": "Na", "occu": 1}], "abc": [0.39186617, 0.45539282, 0.17563181], "xyz": [2.74525382033792, 4.56538406177992, 7.142955093194972], "label": "Na", "properties": {}}, {"species": [{"element": "Na", "occu": 1}], "abc": [0.39411635, 0.19225676, 0.11623807], "xyz": [2.76120740564036, 1.92740401105456, 4.727408515175319], "label": "Na", "properties": {}}, {"species": [{"element": "Na", "occu": 1}], "abc": [0.89605889, 0.22744977, 0.12797162], "xyz": [6.27800252893802, 2.2802194264141202, 5.204612620364225], "label": "Na", "properties": {}}, {"species": [{"element": "Na", "occu": 1}], "abc": [0.36810302, 0.7377025, 0.12601846], "xyz": [2.5785576418034, 7.395582644090001, 5.125177498845948], "label": "Na", "properties": {}}, {"species": [{"element": "Na", "occu": 1}], "abc": [0.87483536, 0.76599672, 0.13677262], "xyz": [6.12891704135312, 7.67923661348832, 5.562549760425635], "label": "Na", "properties": {}}, {"species": [{"element": "Na", "occu": 1}], "abc": [0.90094811, 0.50743245, 0.06946181], "xyz": [6.3120585500969, 5.0870894707122005, 2.825015522655272], "label": "Na", "properties": {}}, {"species": [{"element": "Na", "occu": 1}], "abc": [0.39168195, 0.99912936, 0.30038111], "xyz": [2.74357486975596, 10.016427698180161, 12.216515787055085], "label": "Na", "properties": {}}, {"species": [{"element": "Na", "occu": 1}], "abc": [0.39313066, 0.70915357, 0.24202114], "xyz": [2.7539321831882204, 7.10937516720692, 9.843012690149088], "label": "Na", "properties": {}}, {"species": [{"element": "Na", "occu": 1}], "abc": [0.89333694, 0.71679413, 0.25601282], "xyz": [6.258582012145981, 7.185972973134281, 10.412055063044715], "label": "Na", "properties": {}}, {"species": [{"element": "Na", "occu": 1}], "abc": [0.38416904, 0.26438762, 0.24354185], "xyz": [2.6914608724761204, 2.65052713496872, 9.904860047070208], "label": "Na", "properties": {}}, {"species": [{"element": "Na", "occu": 1}], "abc": [0.88484627, 0.26998609, 0.25796068], "xyz": [6.199411832985141, 2.7066526700800404, 10.49127463327992], "label": "Na", "properties": {}}, {"species": [{"element": "Na", "occu": 1}], "abc": [0.89255243, 0.01254694, 0.19910037], "xyz": [6.25358823808544, 0.12578503082264, 8.097422681850762], "label": "Na", "properties": {}}, {"species": [{"element": "Na", "occu": 1}], "abc": [0.39986714, 0.50444141, 0.43080764], "xyz": [2.8012769558720603, 5.05710382810996, 17.520969728236054], "label": "Na", "properties": {}}, {"species": [{"element": "Na", "occu": 1}], "abc": [0.39309204, 0.22456357, 0.36977043], "xyz": [2.75400759250782, 2.2512848211669203, 15.038583137538666], "label": "Na", "properties": {}}, {"species": [{"element": "Na", "occu": 1}], "abc": [0.89147264, 0.20222697, 0.38269278], "xyz": [6.245887344292221, 2.0273569216573204, 15.564135802221381], "label": "Na", "properties": {}}, {"species": [{"element": "Na", "occu": 1}], "abc": [0.37104008, 0.76529295, 0.36431969], "xyz": [2.5991162181473, 7.6721812094502, 14.816901250614642], "label": "Na", "properties": {}}, {"species": [{"element": "Na", "occu": 1}], "abc": [0.86657769, 0.74926739, 0.37583414], "xyz": [6.07107228185334, 7.5115224704628405, 15.285194547101417], "label": "Na", "properties": {}}, {"species": [{"element": "Na", "occu": 1}], "abc": [0.89016384, 0.47306734, 0.32409425], "xyz": [6.236523961772041, 4.742573882005041, 13.180930457373892], "label": "Na", "properties": {}}, {"species": [{"element": "Na", "occu": 1}], "abc": [0.53934356, 0.76073218, 0.49585862], "xyz": [3.7783243428786806, 7.626458778720081, 20.166596559208894], "label": "Na", "properties": {}}, {"species": [{"element": "Na", "occu": 1}], "abc": [0.53776076, 0.19466807, 0.49906118], "xyz": [3.76763875107722, 1.95157776996892, 20.296844845457624], "label": "Na", "properties": {}}, {"species": [{"element": "Na", "occu": 1}], "abc": [0.90045809, 0.94879158, 0.44498858], "xyz": [6.30831013374968, 9.511783600986481, 18.09770931544006], "label": "Na", "properties": {}}, {"species": [{"element": "Na", "occu": 1}], "abc": [0.67455396, 0.48590454, 0.55518562], "xyz": [4.72586142058164, 4.87126881460824, 22.579428817863967], "label": "Na", "properties": {}}, {"species": [{"element": "Na", "occu": 1}], "abc": [0.03310745, 0.66907073, 0.50393752], "xyz": [0.23148698332777998, 6.70753844328388, 20.495165853702947], "label": "Na", "properties": {}}, {"species": [{"element": "Na", "occu": 1}], "abc": [0.05703201, 0.23202226, 0.50144186], "xyz": [0.39942455161056006, 2.3260593519725603, 20.393667228209743], "label": "Na", "properties": {}}, {"species": [{"element": "Na", "occu": 1}], "abc": [0.68479075, 0.96756734, 0.67560469], "xyz": [4.79724076353424, 9.70001352400504, 27.476878826346493], "label": "Na", "properties": {}}, {"species": [{"element": "Na", "occu": 1}], "abc": [0.68347382, 0.23244955, 0.61633563], "xyz": [4.7885386729457, 2.3303430008798003, 25.066402990586], "label": "Na", "properties": {}}, {"species": [{"element": "Na", "occu": 1}], "abc": [0.18248576, 0.19848727, 0.62826915], "xyz": [1.27843015866842, 1.98986584576412, 25.551739886355303], "label": "Na", "properties": {}}, {"species": [{"element": "Na", "occu": 1}], "abc": [0.70601755, 0.68594976, 0.62562001], "xyz": [4.94616571454236, 6.87675335216256, 25.443999221064736], "label": "Na", "properties": {}}, {"species": [{"element": "Na", "occu": 1}], "abc": [0.19966895, 0.6596103, 0.63682048], "xyz": [1.3984935629048, 6.6126961567068, 25.89952293418184], "label": "Na", "properties": {}}, {"species": [{"element": "Na", "occu": 1}], "abc": [0.17369633, 0.91919741, 0.56931743], "xyz": [1.2163331334878602, 9.21509743004596, 23.154170285343938], "label": "Na", "properties": {}}, {"species": [{"element": "Na", "occu": 1}], "abc": [0.68345154, 0.42094479, 0.8006572], "xyz": [4.788247984306739, 4.22003718713724, 32.56277108710105], "label": "Na", "properties": {}}, {"species": [{"element": "Na", "occu": 1}], "abc": [0.68140097, 0.71396628, 0.74244955], "xyz": [4.77367161230348, 7.157623335739681, 30.19546285273047], "label": "Na", "properties": {}}, {"species": [{"element": "Na", "occu": 1}], "abc": [0.18130544, 0.7093018, 0.75653237], "xyz": [1.2697956194396, 7.1108611960808, 30.76821189429388], "label": "Na", "properties": {}}, {"species": [{"element": "Na", "occu": 1}], "abc": [0.69358534, 0.15950206, 0.7431715], "xyz": [4.85943631341196, 1.59903303382136, 30.224824597789816], "label": "Na", "properties": {}}, {"species": [{"element": "Na", "occu": 1}], "abc": [0.19285112, 0.1553432, 0.75778433], "xyz": [1.3510850291456, 1.5573398135392, 30.819129174361066], "label": "Na", "properties": {}}, {"species": [{"element": "Na", "occu": 1}], "abc": [0.18433909, 0.41298666, 0.6992762], "xyz": [1.29126221448256, 4.14025569241896, 28.439600402341842], "label": "Na", "properties": {}}, {"species": [{"element": "Na", "occu": 1}], "abc": [0.67490039, 0.91937957, 0.93109357], "xyz": [4.72797915349082, 9.21692361246292, 37.867625221607575], "label": "Na", "properties": {}}, {"species": [{"element": "Na", "occu": 1}], "abc": [0.67981169, 0.19798237, 0.8704493], "xyz": [4.76290486163762, 1.98480414449972, 35.401219521697115], "label": "Na", "properties": {}}, {"species": [{"element": "Na", "occu": 1}], "abc": [0.18153152, 0.22402153, 0.88290503], "xyz": [1.27172612098598, 2.2458507856086802, 35.90779472605765], "label": "Na", "properties": {}}, {"species": [{"element": "Na", "occu": 1}], "abc": [0.70193412, 0.65898922, 0.86419203], "xyz": [4.917574738747319, 6.606469732818321, 35.14673601659632], "label": "Na", "properties": {}}, {"species": [{"element": "Na", "occu": 1}], "abc": [0.20740701, 0.67780132, 0.8755051], "xyz": [1.45269667286172, 6.795063970005921, 35.606839177727394], "label": "Na", "properties": {}}, {"species": [{"element": "Na", "occu": 1}], "abc": [0.18516471, 0.95586929, 0.82424345], "xyz": [1.2966592367651402, 9.58273874785924, 33.52202513434266], "label": "Na", "properties": {}}, {"species": [{"element": "Na", "occu": 1}], "abc": [0.53471295, 0.66269672, 0.99603953], "xyz": [3.7459503416809197, 6.6436379986883205, 40.5089808835713], "label": "Na", "properties": {}}, {"species": [{"element": "Na", "occu": 1}], "abc": [0.53198765, 0.2301567, 0.99916499], "xyz": [3.7271645788292007, 2.3073568219452003, 40.63609350870212], "label": "Na", "properties": {}}, {"species": [{"element": "Na", "occu": 1}], "abc": [0.17215906, 0.47712048, 0.94486536], "xyz": [1.20587801714248, 4.78320724279488, 38.42772465645888], "label": "Na", "properties": {}}, {"species": [{"element": "P", "occu": 1}], "abc": [0.89943196, 0.97223565, 0.06602914], "xyz": [6.3011038969291, 9.7468140600114, 2.6854086504163677], "label": "P", "properties": {}}, {"species": [{"element": "P", "occu": 1}], "abc": [0.40342253, 0.47694487, 0.06402256], "xyz": [2.8262071440054197, 4.781446725149721, 2.60380093464493], "label": "P", "properties": {}}, {"species": [{"element": "P", "occu": 1}], "abc": [0.89239812, 0.48578122, 0.18827418], "xyz": [6.2521691881393195, 4.8700325123703205, 7.657120956323954], "label": "P", "properties": {}}, {"species": [{"element": "P", "occu": 1}], "abc": [0.39283058, 0.99106848, 0.18779382], "xyz": [2.75162840942888, 9.935616118682882, 7.637584689467927], "label": "P", "properties": {}}, {"species": [{"element": "P", "occu": 1}], "abc": [0.89212155, 0.99301518, 0.31227658], "xyz": [6.24986925751248, 9.95513208986808, 12.70030518729214], "label": "P", "properties": {}}, {"species": [{"element": "P", "occu": 1}], "abc": [0.39165412, 0.4889475, 0.3113489], "xyz": [2.7437441509354, 4.90177496331, 12.662576392144748], "label": "P", "properties": {}}, {"species": [{"element": "P", "occu": 1}], "abc": [0.90216769, 0.48483172, 0.4360909], "xyz": [6.32061957672172, 4.860513626748321, 17.73584019461497], "label": "P", "properties": {}}, {"species": [{"element": "P", "occu": 1}], "abc": [0.39857311, 0.97913539, 0.43389803], "xyz": [2.79187150669774, 9.815985029870841, 17.646656054593784], "label": "P", "properties": {}}, {"species": [{"element": "P", "occu": 1}], "abc": [0.17633315, 0.45348996, 0.56600436], "xyz": [1.23514031699156, 4.5463075934337605, 23.019427551492868], "label": "P", "properties": {}}, {"species": [{"element": "P", "occu": 1}], "abc": [0.67104583, 0.94842115, 0.5640064], "xyz": [4.7009517515275, 9.5080699824494, 22.938170411581826], "label": "P", "properties": {}}, {"species": [{"element": "P", "occu": 1}], "abc": [0.18381283, 0.93912536, 0.68843175], "xyz": [1.2871993528615602, 9.414878237556161, 27.99855604163977], "label": "P", "properties": {}}, {"species": [{"element": "P", "occu": 1}], "abc": [0.68425688, 0.43367163, 0.68775083], "xyz": [4.79388144762578, 4.34762574352428, 27.970862988871833], "label": "P", "properties": {}}, {"species": [{"element": "P", "occu": 1}], "abc": [0.18320199, 0.43196716, 0.81231294], "xyz": [1.28328166222356, 4.330538165876961, 33.036810655434124], "label": "P", "properties": {}}, {"species": [{"element": "P", "occu": 1}], "abc": [0.68372352, 0.93673911, 0.81143486], "xyz": [4.78978531327386, 9.39095570905116, 33.001099094935874], "label": "P", "properties": {}}, {"species": [{"element": "P", "occu": 1}], "abc": [0.17275819, 0.94023552, 0.93631309], "xyz": [1.20974510941852, 9.42600776474112, 38.079903378782134], "label": "P", "properties": {}}, {"species": [{"element": "P", "occu": 1}], "abc": [0.67418719, 0.44481891, 0.93398944], "xyz": [4.723321011058061, 4.459378964499961, 37.98540040917599], "label": "P", "properties": {}}, {"species": [{"element": "S", "occu": 1}], "abc": [0.0556535, 0.7980993, 0.07168372], "xyz": [0.3893619525698, 8.0010699859908, 2.9153807210274856], "label": "S", "properties": {}}, {"species": [{"element": "S", "occu": 1}], "abc": [0.59003146, 0.31857657, 0.06342205], "xyz": [4.13378075830222, 3.1937798121949204, 2.5793781608716904], "label": "S", "properties": {}}, {"species": [{"element": "S", "occu": 1}], "abc": [0.08519171, 0.1321152, 0.06671471], "xyz": [0.5967945705254, 1.3244754899712, 2.713290818932661], "label": "S", "properties": {}}, {"species": [{"element": "S", "occu": 1}], "abc": [0.55534807, 0.65342021, 0.06451489], "xyz": [3.89053528257946, 6.55063953880276, 2.6238240220402753], "label": "S", "properties": {}}, {"species": [{"element": "S", "occu": 1}], "abc": [0.76092718, 0.96823584, 0.02099776], "xyz": [5.330684092105841, 9.70671534079104, 0.8539800206903616], "label": "S", "properties": {}}, {"species": [{"element": "S", "occu": 1}], "abc": [0.22921754, 0.4725755, 0.02227452], "xyz": [1.6056569376998, 4.737643109278, 0.9059059180821132], "label": "S", "properties": {}}, {"species": [{"element": "S", "occu": 1}], "abc": [0.05000658, 0.31151865, 0.19152185], "xyz": [0.35014467792750004, 3.1230230631594003, 7.789203868682009], "label": "S", "properties": {}}, {"species": [{"element": "S", "occu": 1}], "abc": [0.57074295, 0.82676074, 0.18595314], "xyz": [3.99827451257064, 8.28840539317544, 7.5627241355572075], "label": "S", "properties": {}}, {"species": [{"element": "S", "occu": 1}], "abc": [0.07482927, 0.64778285, 0.19083083], "xyz": [0.5238227769585001, 6.494124125374601, 7.76110004837463], "label": "S", "properties": {}}, {"species": [{"element": "S", "occu": 1}], "abc": [0.23609573, 0.46658443, 0.10581214], "xyz": [1.65385270330358, 4.67758169792108, 4.303385385226398], "label": "S", "properties": {}}, {"species": [{"element": "S", "occu": 1}], "abc": [0.70451595, 0.98689586, 0.10379012], "xyz": [4.93542999875496, 9.89378495225416, 4.221149723830309], "label": "S", "properties": {}}, {"species": [{"element": "S", "occu": 1}], "abc": [0.55365934, 0.16318566, 0.18344129], "xyz": [3.8790533584015603, 1.6359616984629601, 7.460567061899299], "label": "S", "properties": {}}, {"species": [{"element": "S", "occu": 1}], "abc": [0.7477404, 0.49107057, 0.14410219], "xyz": [5.23863266898102, 4.92305907125892, 5.860643763797968], "label": "S", "properties": {}}, {"species": [{"element": "S", "occu": 1}], "abc": [0.19779302, 0.98221527, 0.14967992], "xyz": [1.3851196694856203, 9.846861307332121, 6.0874903408045276], "label": "S", "properties": {}}, {"species": [{"element": "S", "occu": 1}], "abc": [0.06322521, 0.82508001, 0.31455029], "xyz": [0.44239326872106005, 8.27155581273156, 12.79277709443099], "label": "S", "properties": {}}, {"species": [{"element": "S", "occu": 1}], "abc": [0.55511346, 0.31729354, 0.30825838], "xyz": [3.88913150082564, 3.18091723629224, 12.536884778680076], "label": "S", "properties": {}}, {"species": [{"element": "S", "occu": 1}], "abc": [0.05908384, 0.16219604, 0.31647946], "xyz": [0.41385039028024, 1.6260406035822403, 12.871236541367958], "label": "S", "properties": {}}, {"species": [{"element": "S", "occu": 1}], "abc": [0.24723385, 0.99011448, 0.2319582], "xyz": [1.73151724957828, 9.92605211985888, 9.433752382887462], "label": "S", "properties": {}}, {"species": [{"element": "S", "occu": 1}], "abc": [0.69808272, 0.49175583, 0.22661911], "xyz": [4.89070961739978, 4.9299289096594805, 9.216611307426666], "label": "S", "properties": {}}, {"species": [{"element": "S", "occu": 1}], "abc": [0.56768026, 0.65416689, 0.30834053], "xyz": [3.9769392521097404, 6.55812512228484, 12.540225823567708], "label": "S", "properties": {}}, {"species": [{"element": "S", "occu": 1}], "abc": [0.74851773, 0.99421345, 0.26791375], "xyz": [5.243719725423301, 9.967144933548202, 10.896066521773388], "label": "S", "properties": {}}, {"species": [{"element": "S", "occu": 1}], "abc": [0.19587823, 0.49121729, 0.27309424], "xyz": [1.37205441909154, 4.92452996214724, 11.106757326763358], "label": "S", "properties": {}}, {"species": [{"element": "S", "occu": 1}], "abc": [0.08265679, 0.32311924, 0.4367084], "xyz": [0.57889747945444, 3.23932078760144, 17.760953952595646], "label": "S", "properties": {}}, {"species": [{"element": "S", "occu": 1}], "abc": [0.55641205, 0.80574138, 0.42848755], "xyz": [3.8978812160156804, 8.07768303015528, 17.426611544020044], "label": "S", "properties": {}}, {"species": [{"element": "S", "occu": 1}], "abc": [0.05998781, 0.65897193, 0.43583494], "xyz": [0.41982928578218004, 6.6062963978710805, 17.725430287744146], "label": "S", "properties": {}}, {"species": [{"element": "S", "occu": 1}], "abc": [0.24805154, 0.49133747, 0.35563437], "xyz": [1.73760245593322, 4.925734785395321, 14.463668822331702], "label": "S", "properties": {}}, {"species": [{"element": "S", "occu": 1}], "abc": [0.69517119, 0.9881267, 0.35016893], "xyz": [4.869955806576001, 9.9061243152652, 14.24138908562255], "label": "S", "properties": {}}, {"species": [{"element": "S", "occu": 1}], "abc": [0.58147263, 0.14042759, 0.43254536], "xyz": [4.073941198985341, 1.40780849645404, 17.591642893447677], "label": "S", "properties": {}}, {"species": [{"element": "S", "occu": 1}], "abc": [0.735974, 0.47763753, 0.39411647], "xyz": [5.15620191988358, 4.78839074970468, 16.028737884660664], "label": "S", "properties": {}}, {"species": [{"element": "S", "occu": 1}], "abc": [0.2012606, 0.99088564, 0.39640883], "xyz": [1.40940880070504, 9.933783119159841, 16.121968288295612], "label": "S", "properties": {}}, {"species": [{"element": "S", "occu": 1}], "abc": [0.2631753, 0.97529037, 0.47925415], "xyz": [1.84322032810182, 9.77743810454772, 19.491291877464153], "label": "S", "properties": {}}, {"species": [{"element": "S", "occu": 1}], "abc": [0.7266219, 0.48263021, 0.47771502], "xyz": [5.09067361462806, 4.838443145562761, 19.42869537815922], "label": "S", "properties": {}}, {"species": [{"element": "S", "occu": 1}], "abc": [0.01888708, 0.62711779, 0.5716045], "xyz": [0.13188305295154001, 6.286953675125241, 23.247185544396345], "label": "S", "properties": {}}, {"species": [{"element": "S", "occu": 1}], "abc": [0.48522918, 0.10729062, 0.5635645], "xyz": [3.39964282583292, 1.0756052028367202, 22.920198314979945], "label": "S", "properties": {}}, {"species": [{"element": "S", "occu": 1}], "abc": [0.99170584, 0.2930543, 0.56689584], "xyz": [6.9480983907226, 2.9379150739708, 23.055684090706816], "label": "S", "properties": {}}, {"species": [{"element": "S", "occu": 1}], "abc": [0.51854146, 0.77218743, 0.56431122], "xyz": [3.63256791434818, 7.741299446989081, 22.95056745726226], "label": "S", "properties": {}}, {"species": [{"element": "S", "occu": 1}], "abc": [0.31351295, 0.45709484, 0.52083396], "xyz": [2.19627703742324, 4.582447077795041, 21.182344970941806], "label": "S", "properties": {}}, {"species": [{"element": "S", "occu": 1}], "abc": [0.84501406, 0.9532793, 0.52220326], "xyz": [5.919842768845001, 9.5567736940708, 21.238034475076116], "label": "S", "properties": {}}, {"species": [{"element": "S", "occu": 1}], "abc": [0.02611082, 0.11346789, 0.69166291], "xyz": [0.18286235539094, 1.1375332982408402, 28.129967491416025], "label": "S", "properties": {}}, {"species": [{"element": "S", "occu": 1}], "abc": [0.50630205, 0.59796939, 0.68579534], "xyz": [3.54693785901654, 5.994736417974841, 27.89133310612911], "label": "S", "properties": {}}, {"species": [{"element": "S", "occu": 1}], "abc": [0.00135964, 0.77726461, 0.69115383], "xyz": [0.00897124195726, 7.792198968529161, 28.10926318062606], "label": "S", "properties": {}}, {"species": [{"element": "S", "occu": 1}], "abc": [0.83887075, 0.95788072, 0.60578788], "xyz": [5.87679687338092, 9.60290364739232, 24.63742543473067], "label": "S", "properties": {}}, {"species": [{"element": "S", "occu": 1}], "abc": [0.37222168, 0.43968563, 0.60364784], "xyz": [2.60762748764578, 4.407917031708281, 24.550389893631138], "label": "S", "properties": {}}, {"species": [{"element": "S", "occu": 1}], "abc": [0.52341138, 0.26145341, 0.68331431], "xyz": [3.6670532833248597, 2.6211112219819603, 27.790429483517297], "label": "S", "properties": {}}, {"species": [{"element": "S", "occu": 1}], "abc": [0.32792982, 0.93396902, 0.64419719], "xyz": [2.29694719556412, 9.36318512466712, 26.199534123871917], "label": "S", "properties": {}}, {"species": [{"element": "S", "occu": 1}], "abc": [0.87991657, 0.44239413, 0.64975323], "xyz": [6.164749184970581, 4.43507016673428, 26.425498567420014], "label": "S", "properties": {}}, {"species": [{"element": "S", "occu": 1}], "abc": [0.00908889, 0.59840678, 0.81451238], "xyz": [0.06325331823288, 5.999121320957681, 33.126261997706216], "label": "S", "properties": {}}, {"species": [{"element": "S", "occu": 1}], "abc": [0.52150569, 0.10908177, 0.80832445], "xyz": [3.65381001214602, 1.0935617610061201, 32.87459855410887], "label": "S", "properties": {}}, {"species": [{"element": "S", "occu": 1}], "abc": [0.0185044, 0.26160861, 0.81647807], "xyz": [0.12946280970046, 2.6226671261931602, 33.20620671499372], "label": "S", "properties": {}}, {"species": [{"element": "S", "occu": 1}], "abc": [0.82862715, 0.43465842, 0.73202257], "xyz": [5.80539949019112, 4.35751846721352, 29.771397019225468], "label": "S", "properties": {}}, {"species": [{"element": "S", "occu": 1}], "abc": [0.37877097, 0.93305419, 0.7267052], "xyz": [2.65316229893574, 9.354013811203641, 29.555139297324736], "label": "S", "properties": {}}, {"species": [{"element": "S", "occu": 1}], "abc": [0.50560822, 0.77264679, 0.80856705], "xyz": [3.5419518749643406, 7.745904602649241, 32.88446510906614], "label": "S", "properties": {}}, {"species": [{"element": "S", "occu": 1}], "abc": [0.32762602, 0.43213287, 0.76802426], "xyz": [2.2951769561792204, 4.332199434477721, 31.23558767437573], "label": "S", "properties": {}}, {"species": [{"element": "S", "occu": 1}], "abc": [0.87919065, 0.93344114, 0.77318084], "xyz": [6.15931247699904, 9.35789304531784, 31.445306058388663], "label": "S", "properties": {}}, {"species": [{"element": "S", "occu": 1}], "abc": [0.99174481, 0.10157202, 0.93695457], "xyz": [6.94850814925792, 1.0182753457351201, 38.10599240464359], "label": "S", "properties": {}}, {"species": [{"element": "S", "occu": 1}], "abc": [0.5175299, 0.61874159, 0.92867164], "xyz": [3.62559006046274, 6.20298096343804, 37.76912519915229], "label": "S", "properties": {}}, {"species": [{"element": "S", "occu": 1}], "abc": [0.01520724, 0.76589593, 0.93586362], "xyz": [0.10600146078678001, 7.6782261780150804, 38.06162340987595], "label": "S", "properties": {}}, {"species": [{"element": "S", "occu": 1}], "abc": [0.82747179, 0.93333864, 0.85569929], "xyz": [5.79694849510284, 9.356865466827841, 34.80133582719908], "label": "S", "properties": {}}, {"species": [{"element": "S", "occu": 1}], "abc": [0.37905936, 0.43776174, 0.85033487], "xyz": [2.6555365192088405, 4.388629734331441, 34.58316457928541], "label": "S", "properties": {}}, {"species": [{"element": "S", "occu": 1}], "abc": [0.49055919, 0.28402412, 0.93266993], "xyz": [3.43686092677812, 2.84738611076272, 37.93173586700096], "label": "S", "properties": {}}, {"species": [{"element": "S", "occu": 1}], "abc": [0.33921598, 0.9483538, 0.89435179], "xyz": [2.3760125019784, 9.507394788192801, 36.3733350666291], "label": "S", "properties": {}}, {"species": [{"element": "S", "occu": 1}], "abc": [0.87112105, 0.43317773, 0.89643052], "xyz": [6.10313065824178, 4.34267431897588, 36.45787712675408], "label": "S", "properties": {}}, {"species": [{"element": "S", "occu": 1}], "abc": [0.8097764, 0.44819488, 0.97933155], "xyz": [5.6733135533436805, 4.49322359040128, 39.82946644459809], "label": "S", "properties": {}}, {"species": [{"element": "S", "occu": 1}], "abc": [0.34802807, 0.94197491, 0.97791685], "xyz": [2.43775826012366, 9.44344542083596, 39.77193052003896], "label": "S", "properties": {}}]}, "formula": "", "bandgap": 2.3533}