{"miller": "101_0.33", "final_energy": -526.25165526, "sigma": 0.003750971368575855, "incar_parameters": {"SYSTEM": "unknown system", "LCOMPAT": false, "PREC": "normal", "ENMAX": 520.0, "ENAUG": 368.056, "EDIFF": 1e-05, "IALGO": 38, "IWAVPR": 11, "NBANDS": 480, "NBANDSLOW": -1, "NBANDSHIGH": -1, "NELECT": 800.0, "TURBO": 0, "IRESTART": 0, "NREBOOT": 0, "NMIN": 0, "EREF": 0.0, "ISMEAR": 0, "SIGMA": 0.05, "KSPACING": 0.5, "KGAMMA": true, "KBLOWUP": true, "LREAL": true, "ROPT": [-0.0005, -0.0005, -0.0005], "LMAXPAW": -100, "LMAXMIX": 2, "NLSPLINE": false, "ISTART": 0, "ICHARG": 2, "INIWAV": 1, "ISPIN": 1, "LNONCOLLINEAR": false, "MAGMOM": [0.6, 0.6, 0.6, 0.6, 0.6, 0.6, 0.6, 0.6, 0.6, 0.6, 0.6, 0.6, 0.6, 0.6, 0.6, 0.6, 0.6, 0.6, 0.6, 0.6, 0.6, 0.6, 0.6, 0.6, 0.6, 0.6, 0.6, 0.6, 0.6, 0.6, 0.6, 0.6, 0.6, 0.6, 0.6, 0.6, 0.6, 0.6, 0.6, 0.6, 0.6, 0.6, 0.6, 0.6, 0.6, 0.6, 0.6, 0.6, 0.6, 0.6, 0.6, 0.6, 0.6, 0.6, 0.6, 0.6, 0.6, 0.6, 0.6, 0.6, 0.6, 0.6, 0.6, 0.6, 0.6, 0.6, 0.6, 0.6, 0.6, 0.6, 0.6, 0.6, 0.6, 0.6, 0.6, 0.6, 0.6, 0.6, 0.6, 0.6, 0.6, 0.6, 0.6, 0.6, 0.6, 0.6, 0.6, 0.6, 0.6, 0.6, 0.6, 0.6, 0.6, 0.6, 0.6, 0.6, 0.6, 0.6, 0.6, 0.6, 0.6, 0.6, 0.6, 0.6, 0.6, 0.6, 0.6, 0.6, 0.6, 0.6, 0.6, 0.6, 0.6, 0.6, 0.6, 0.6, 0.6, 0.6, 0.6, 0.6, 0.6, 0.6, 0.6, 0.6, 0.6, 0.6, 0.6, 0.6], "NUPDOWN": -1.0, "LSORBIT": false, "SAXIS": [0.0, 0.0, 1.0], "LSPIRAL": false, "QSPIRAL": [0.0, 0.0, 0.0], "LZEROZ": false, "LASPH": false, "LMETAGGA": false, "NELM": 100, "NELMDL": -5, "NELMIN": 6, "ENINI": 520.0, "LDIAG": true, "LSUBROT": false, "WEIMIN": 0.001, "EBREAK": 1e-08, "DEPER": 0.3, "NRMM": 4, "TIME": 0.4, "AMIX": 0.4, "BMIX": 1.0, "AMIN": 0.1, "AMIX_MAG": 1.6, "BMIX_MAG": 1.0, "IMIX": 4, "MIXFIRST": false, "MAXMIX": -45, "WC": 100.0, "INIMIX": 1, "MIXPRE": 1, "MREMOVE": 5, "LDIPOL": false, "LMONO": false, "IDIPOL": 0, "EPSILON": 1.0, "DIPOL": [-100.0, -100.0, -100.0], "EFIELD": 0.0, "NGX": 40, "NGY": 56, "NGZ": 240, "NGXF": 80, "NGYF": 112, "NGZF": 480, "ADDGRID": false, "NSW": 150, "IBRION": 2, "MDALGO": 0, "ISIF": 3, "PSTRESS": 0.0, "EDIFFG": -0.01, "NFREE": 1, "POTIM": 0.5, "SMASS": -3.0, "SCALEE": 1.0, "TEBEG": 0.0001, "TEEND": 0.0001, "NBLOCK": 1, "KBLOCK": 150, "NPACO": 256, "APACO": 10.0, "ISYM": 0, "SYMPREC": 1e-05, "LORBIT": 11, "RWIGS": [-1.0, -1.0, -1.0], "NEDOS": 301, "EMIN": 10.0, "EMAX": -10.0, "EFERMI": 0.0, "NWRITE": 2, "LWAVE": false, "LDOWNSAMPLE": false, "LCHARG": false, "LPARD": false, "LVTOT": false, "LVHAR": false, "LELF": false, "LOPTICS": false, "STM": [0.0, 0.0, 0.0, 0.0, 0.0, 0.0, 0.0], "NPAR": 1, "NSIM": 4, "NBLK": -1, "LPLANE": true, "LSCALAPACK": true, "LSCAAWARE": false, "LSCALU": false, "LASYNC": false, "LORBITALREAL": false, "IDIOT": 3, "PHON_NSTRUCT": -1, "LMUSIC": false, "POMASS": [22.99, 30.974, 32.066], "DARWINR": [0.0, 0.0, 0.0], "DARWINV": [1.0, 1.0, 1.0], "LCORR": true, "GGA_COMPAT": true, "LBERRY": false, "ICORELEVEL": 0, "LDAU": false, "I_CONSTRAINED_M": 0, "GGA": "--", "VOSKOWN": 0, "LHFCALC": false, "PRECFOCK": "", "LSYMGRAD": false, "LHFONE": false, "LRHFCALC": false, "LTHOMAS": false, "LMODELHF": false, "LFOCKACE": false, "ENCUT4O": -1.0, "EXXOEP": 0, "FOURORBIT": 0, "AEXX": 0.0, "HFALPHA": 0.0, "MCALPHA": 0.0, "ALDAX": 1.0, "AGGAX": 1.0, "ALDAC": 1.0, "AGGAC": 1.0, "NKREDX": 1, "NKREDY": 1, "NKREDZ": 1, "SHIFTRED": false, "ODDONLY": false, "EVENONLY": false, "LMAXFOCK": 0, "NMAXFOCKAE": 0, "LFOCKAEDFT": false, "HFSCREEN": 0.0, "HFSCREENC": 0.0, "NBANDSGWLOW": 0, "LUSE_VDW": false, "Zab_VDW": -0.8491, "PARAM1": 0.1234, "PARAM2": 1.0, "PARAM3": 0.0, "MODEL_GW": 0, "MODEL_EPS0": 13.40364313, "MODEL_ALPHA": 1.0, "LEPSILON": false, "LRPA": false, "LNABLA": false, "LVEL": false, "CSHIFT": 0.1, "OMEGAMAX": -1.0, "DEG_THRESHOLD": 0.002, "RTIME": -0.1, "WPLASMAI": 0.0, "DFIELD": [0.0, 0.0, 0.0], "WPLASMA": [0.0, 0.0, 0.0, 0.0, 0.0, 0.0, 0.0, 0.0, 0.0], "NUCIND": false, "MAGPOS": [0.0, 0.0, 0.0], "LNICSALL": true, "ORBITALMAG": false, "LMAGBLOCH": false, "LCHIMAG": false, "LGAUGE": true, "MAGATOM": 0, "MAGDIPOL": [0.0, 0.0, 0.0], "AVECCONST": [0.0, 0.0, 0.0], "LFINITE_TEMPERATURE": false, "LADDER": false, "LRPAFORCE": false, "LFXC": false, "LHARTREE": true, "IBSE": 0, "KPOINT": [-1, 0, 0, 0], "LTCTC": false, "LTCTE": false, "LTETE": false, "LTRIPLET": false, "LFXCEPS": false, "LFXHEG": false, "NATURALO": 2, "LHOLEGF": false, "L2ORDER": false, "LDMP1": false, "LMP2LT": false, "LSMP2LT": false, "LGWLF": false, "ENCUTGW": -2.0, "ENCUTGWSOFT": -2.0, "ENCUTLF": -1.0, "LESF_SPLINES": false, "LMAXMP2": -1, "SCISSOR": 0.0, "NOMEGA": 0, "NOMEGAR": 0, "NBANDSGW": -1, "NBANDSO": -1, "NBANDSV": -1, "NELMGW": 1, "NELMHF": 1, "DIM": 3, "IESPILON": 4, "ANTIRES": 0, "OMEGAMIN": -30.0, "OMEGATL": -200.0, "OMEGAGRID": 0, "LSELFENERGY": false, "LSPECTRAL": false, "LSPECTRALGW": false, "LSINGLES": false, "LFERMIGW": false, "ODDONLYGW": false, "EVENONLYGW": false, "NKREDLFX": 1, "NKREDLFY": 1, "NKREDLFZ": 1, "MAXMEM": 2800, "TELESCOPE": 0, "NTAUPAR": -1, "NOMEGAPAR": -1, "DAMP_NEWTON": 0.80000001, "LAMBDA": 1.0, "OFIELD_KAPPA": 0.0, "OFIELD_K": [0.0, 0.0, 0.0], "OFIELD_Q6_NEAR": 0.0, "OFIELD_Q6_FAR": 0.0, "OFIELD_A": 0.0, "KPOINTS_OPT_MODE": 1, "LKPOINTS_OPT": false, "@module": "pymatgen.io.vasp.inputs", "@class": "Incar"}, "relaxed_structures": {"@module": "pymatgen.core.structure", "@class": "Structure", "charge": 0, "lattice": {"matrix": [[7.00642, 0.0, 0.0], [-0.000714, 10.025156, 0.0], [0.0, 0.0, 40.70935944]], "a": 7.00642, "b": 10.02515602542584, "c": 40.70935944, "alpha": 90.0, "beta": 90.0, "gamma": 90.00408065335873, "volume": 2859.443868821985}, "sites": [{"species": [{"element": "Na", "occu": 1}], "abc": [0.40122131, 0.08889695, 0.0551274], "xyz": [2.8110615383879, 0.8912057916742001, 2.244201141592656], "label": "Na", "properties": {}}, {"species": [{"element": "Na", "occu": 1}], "abc": [0.04194475, 0.90439176, 0.00462582], "xyz": [0.29323679957836, 9.066668479114561, 0.1883141690847408], "label": "Na", "properties": {}}, {"species": [{"element": "Na", "occu": 1}], "abc": [0.01206741, 0.34183661, 0.00161683], "xyz": [0.08430527143266, 3.4269653417611603, 0.0658201136233752], "label": "Na", "properties": {}}, {"species": [{"element": "Na", "occu": 1}], "abc": [0.90280401, 0.65708699, 0.06996661], "xyz": [6.3249549116333394, 6.587399580320441, 2.8482958752882985], "label": "Na", "properties": {}}, {"species": [{"element": "Na", "occu": 1}], "abc": [0.39377502, 0.60754275, 0.17549226], "xyz": [2.7585193901048997, 6.090710845419001, 7.144177491277935], "label": "Na", "properties": {}}, {"species": [{"element": "Na", "occu": 1}], "abc": [0.39224654, 0.34337773, 0.11609275], "xyz": [2.74799883108758, 3.44241531017588, 4.726061488128059], "label": "Na", "properties": {}}, {"species": [{"element": "Na", "occu": 1}], "abc": [0.89234187, 0.37739146, 0.12821638], "xyz": [6.25185246730296, 3.7834082595677603, 5.2196066995156265], "label": "Na", "properties": {}}, {"species": [{"element": "Na", "occu": 1}], "abc": [0.37605821, 0.89066915, 0.12558227], "xyz": [2.6341858259351003, 8.929097173137402, 5.112373768721128], "label": "Na", "properties": {}}, {"species": [{"element": "Na", "occu": 1}], "abc": [0.88071216, 0.91856568, 0.13732526], "xyz": [6.16998343617168, 9.208764238246081, 5.590423369531455], "label": "Na", "properties": {}}, {"species": [{"element": "Na", "occu": 1}], "abc": [0.89426771, 0.16788286, 0.19932895], "xyz": [6.265495300336161, 1.68305186122616, 8.114553872347788], "label": "Na", "properties": {}}, {"species": [{"element": "Na", "occu": 1}], "abc": [0.39456152, 0.15245112, 0.30010173], "xyz": [2.76435487485872, 1.52834626037472, 12.216949195135832], "label": "Na", "properties": {}}, {"species": [{"element": "Na", "occu": 1}], "abc": [0.39415163, 0.86256061, 0.24200659], "xyz": [2.76097599518906, 8.64730467470516, 9.85193325915871], "label": "Na", "properties": {}}, {"species": [{"element": "Na", "occu": 1}], "abc": [0.89439686, 0.8711057, 0.2558142], "xyz": [6.2658980783714, 8.732970534989201, 10.414032217656048], "label": "Na", "properties": {}}, {"species": [{"element": "Na", "occu": 1}], "abc": [0.38918377, 0.41800977, 0.24349771], "xyz": [2.72648649082762, 4.1906131537741205, 9.912635799206882], "label": "Na", "properties": {}}, {"species": [{"element": "Na", "occu": 1}], "abc": [0.8897857, 0.42540024, 0.25825542], "xyz": [6.23390858842264, 4.26470376843744, 10.513412720108166], "label": "Na", "properties": {}}, {"species": [{"element": "Na", "occu": 1}], "abc": [0.89376407, 0.62826869, 0.32435052], "xyz": [6.26163787148474, 6.298491627165641, 13.204101903230908], "label": "Na", "properties": {}}, {"species": [{"element": "Na", "occu": 1}], "abc": [0.40207086, 0.65533892, 0.43028164], "xyz": [2.81660940293232, 6.569874905871521, 17.51648994319268], "label": "Na", "properties": {}}, {"species": [{"element": "Na", "occu": 1}], "abc": [0.39296418, 0.37672054, 0.36914691], "xyz": [2.7530031115700404, 3.77668218190424, 15.02773424535533], "label": "Na", "properties": {}}, {"species": [{"element": "Na", "occu": 1}], "abc": [0.89288167, 0.3561193, 0.38275344], "xyz": [6.2556497211412, 3.5701515371108004, 15.581647365856474], "label": "Na", "properties": {}}, {"species": [{"element": "Na", "occu": 1}], "abc": [0.37914318, 0.91999182, 0.36391224], "xyz": [2.65577948505612, 9.223061514223922, 14.814634182775546], "label": "Na", "properties": {}}, {"species": [{"element": "Na", "occu": 1}], "abc": [0.87672053, 0.90503501, 0.37655321], "xyz": [6.142026060805461, 9.073117160711561, 15.329239974175804], "label": "Na", "properties": {}}, {"species": [{"element": "Na", "occu": 1}], "abc": [0.90293391, 0.10326492, 0.44544683], "xyz": [6.32626047454932, 1.03524693232752, 18.133855113878575], "label": "Na", "properties": {}}, {"species": [{"element": "Na", "occu": 1}], "abc": [0.54094702, 0.91149752, 0.49496042], "xyz": [3.78945121063912, 9.13790483161312, 20.149521646353364], "label": "Na", "properties": {}}, {"species": [{"element": "Na", "occu": 1}], "abc": [0.53742832, 0.34821195, 0.49849912], "xyz": [3.7651999064821, 3.4908791198142004, 20.293579856603692], "label": "Na", "properties": {}}, {"species": [{"element": "Na", "occu": 1}], "abc": [0.67397446, 0.63439122, 0.55500673], "xyz": [4.72169518070212, 6.359870945530321, 22.593968463189032], "label": "Na", "properties": {}}, {"species": [{"element": "Na", "occu": 1}], "abc": [0.03260291, 0.81986184, 0.50492935], "xyz": [0.22784429932844003, 8.21924284444704, 20.555350400955565], "label": "Na", "properties": {}}, {"species": [{"element": "Na", "occu": 1}], "abc": [0.05894728, 0.3818576, 0.50173142], "xyz": [0.4127367552112, 3.8281820097856003, 20.425164719121607], "label": "Na", "properties": {}}, {"species": [{"element": "Na", "occu": 1}], "abc": [0.17461699, 0.06868734, 0.56976595], "xyz": [1.2233909283150401, 0.6886012987250401, 23.194806855223067], "label": "Na", "properties": {}}, {"species": [{"element": "Na", "occu": 1}], "abc": [0.68208796, 0.1164115, 0.67540958], "xyz": [4.7789116068922, 1.1670434476940001, 27.495491361439434], "label": "Na", "properties": {}}, {"species": [{"element": "Na", "occu": 1}], "abc": [0.68222829, 0.38037123, 0.61611395], "xyz": [4.77970635056358, 3.8132809186618806, 25.08160424654819], "label": "Na", "properties": {}}, {"species": [{"element": "Na", "occu": 1}], "abc": [0.18181593, 0.34768054, 0.62865145], "xyz": [1.2736305243650399, 3.48555165166424, 25.59199784052719], "label": "Na", "properties": {}}, {"species": [{"element": "Na", "occu": 1}], "abc": [0.69891993, 0.83285677, 0.62515878], "xyz": [4.89633191621682, 8.34951904490612, 25.449813482091884], "label": "Na", "properties": {}}, {"species": [{"element": "Na", "occu": 1}], "abc": [0.19413626, 0.80612654, 0.6371968], "xyz": [1.3596246004396402, 8.08154431924024, 25.93987356521779], "label": "Na", "properties": {}}, {"species": [{"element": "Na", "occu": 1}], "abc": [0.1810785, 0.55979175, 0.69950567], "xyz": [1.2683123326605001, 5.611999621263001, 28.476427750348023], "label": "Na", "properties": {}}, {"species": [{"element": "Na", "occu": 1}], "abc": [0.68008597, 0.57324463, 0.80030433], "xyz": [4.76455864526158, 5.746866841912281, 32.579876631358374], "label": "Na", "properties": {}}, {"species": [{"element": "Na", "occu": 1}], "abc": [0.68060594, 0.86331667, 0.74196723], "xyz": [4.76799466203242, 8.65488429415052, 30.20501065877115], "label": "Na", "properties": {}}, {"species": [{"element": "Na", "occu": 1}], "abc": [0.18027978, 0.85569765, 0.75626897], "xyz": [1.2625048880655, 8.5785024300834, 30.78722533304858], "label": "Na", "properties": {}}, {"species": [{"element": "Na", "occu": 1}], "abc": [0.68739748, 0.3071257, 0.74353871], "xyz": [4.8159761640718, 3.0789830541092003, 30.268984602943924], "label": "Na", "properties": {}}, {"species": [{"element": "Na", "occu": 1}], "abc": [0.18671179, 0.30110054, 0.75822697], "xyz": [1.30796623390624, 3.0185798851842405, 30.866934258832096], "label": "Na", "properties": {}}, {"species": [{"element": "Na", "occu": 1}], "abc": [0.1817098, 0.09772573, 0.82443333], "xyz": [1.2730654007447801, 0.97971568846388, 33.562152765286136], "label": "Na", "properties": {}}, {"species": [{"element": "Na", "occu": 1}], "abc": [0.67186292, 0.06929271, 0.93072757], "xyz": [4.70730432495146, 0.69467022741276, 37.88932318784776], "label": "Na", "properties": {}}, {"species": [{"element": "Na", "occu": 1}], "abc": [0.67920984, 0.34786034, 0.86953305], "xyz": [4.75858103489004, 3.4873541747130403, 35.398133477409495], "label": "Na", "properties": {}}, {"species": [{"element": "Na", "occu": 1}], "abc": [0.18011241, 0.3692349, 0.88278903], "xyz": [1.2616795579536002, 3.7016374731444, 35.93777593195894], "label": "Na", "properties": {}}, {"species": [{"element": "Na", "occu": 1}], "abc": [0.69785645, 0.80587018, 0.86429443], "xyz": [4.88889999710048, 8.07897427024808, 35.18487261285992], "label": "Na", "properties": {}}, {"species": [{"element": "Na", "occu": 1}], "abc": [0.20106575, 0.82124896, 0.8763427], "xyz": [1.40816472035756, 8.233148938837761, 35.67534996692009], "label": "Na", "properties": {}}, {"species": [{"element": "Na", "occu": 1}], "abc": [0.17048947, 0.62336731, 0.9452595], "xyz": [1.1940757481380602, 6.24935452805036, 38.48090874957468], "label": "Na", "properties": {}}, {"species": [{"element": "Na", "occu": 1}], "abc": [0.53454254, 0.81268349, 0.99551667], "xyz": [3.74464928709494, 8.14727876587444, 40.526845947541865], "label": "Na", "properties": {}}, {"species": [{"element": "Na", "occu": 1}], "abc": [0.53186581, 0.38029258, 0.99920614], "xyz": [3.72620371959808, 3.8124924401424805, 40.67704190791496], "label": "Na", "properties": {}}, {"species": [{"element": "P", "occu": 1}], "abc": [0.89939668, 0.12195886, 0.06620633], "xyz": [6.301463808059561, 1.2226565970821601, 2.6952172851732548], "label": "P", "properties": {}}, {"species": [{"element": "P", "occu": 1}], "abc": [0.4056426, 0.62737683, 0.06389592], "xyz": [2.8416544784353803, 6.28955059153548, 2.6011619740294845], "label": "P", "properties": {}}, {"species": [{"element": "P", "occu": 1}], "abc": [0.8950109, 0.63758652, 0.1883582], "xyz": [6.270367033202721, 6.391904326497121, 7.667941667271408], "label": "P", "properties": {}}, {"species": [{"element": "P", "occu": 1}], "abc": [0.39422179, 0.14346725, 0.18780386], "xyz": [2.7619809982753005, 1.4382815621410001, 7.6453748409594375], "label": "P", "properties": {}}, {"species": [{"element": "P", "occu": 1}], "abc": [0.89527124, 0.1474848, 0.31215117], "xyz": [6.2725410172136, 1.4785581276288, 12.707474179146544], "label": "P", "properties": {}}, {"species": [{"element": "P", "occu": 1}], "abc": [0.39549083, 0.64312616, 0.31127182], "xyz": [2.77051566905036, 6.447440081680961, 12.67167640392298], "label": "P", "properties": {}}, {"species": [{"element": "P", "occu": 1}], "abc": [0.90488096, 0.63750369, 0.43668052], "xyz": [6.33952087812854, 6.39107394282564, 17.77698424912611], "label": "P", "properties": {}}, {"species": [{"element": "P", "occu": 1}], "abc": [0.40124025, 0.1331417, 0.43350343], "xyz": [2.8111626492312003, 1.3347663126052, 17.64764695034288], "label": "P", "properties": {}}, {"species": [{"element": "P", "occu": 1}], "abc": [0.17568534, 0.60103662, 0.56635681], "xyz": [1.23049613973612, 6.025485877212721, 23.056022949581788], "label": "P", "properties": {}}, {"species": [{"element": "P", "occu": 1}], "abc": [0.67156213, 0.09702352, 0.56333578], "xyz": [4.705177064081321, 0.9726759236691201, 22.93303875343276], "label": "P", "properties": {}}, {"species": [{"element": "P", "occu": 1}], "abc": [0.18086179, 0.08678293, 0.6884416], "xyz": [1.2671316996797801, 0.87001241138708, 28.026016547848702], "label": "P", "properties": {}}, {"species": [{"element": "P", "occu": 1}], "abc": [0.68085784, 0.58109172, 0.68779051], "xyz": [4.769961087844721, 5.82553514330832, 27.999511091010916], "label": "P", "properties": {}}, {"species": [{"element": "P", "occu": 1}], "abc": [0.17919068, 0.57862035, 0.81230453], "xyz": [1.2550720292357, 5.8007592735246005, 33.06839708651027], "label": "P", "properties": {}}, {"species": [{"element": "P", "occu": 1}], "abc": [0.68020002, 0.08231764, 0.81145683], "xyz": [4.76570824933344, 0.82524718255184, 33.033887762512975], "label": "P", "properties": {}}, {"species": [{"element": "P", "occu": 1}], "abc": [0.16949197, 0.08711586, 0.93650503], "xyz": [1.18746972772336, 0.8733500865741601, 38.12451988363798], "label": "P", "properties": {}}, {"species": [{"element": "P", "occu": 1}], "abc": [0.67223852, 0.5924303, 0.93380883], "xyz": [4.709562416064199, 5.9392061766268, 38.01475930871586], "label": "P", "properties": {}}, {"species": [{"element": "S", "occu": 1}], "abc": [0.05750188, 0.94878334, 0.07208576], "xyz": [0.40220489076484, 9.51170099370104, 2.9345651143455744], "label": "S", "properties": {}}, {"species": [{"element": "S", "occu": 1}], "abc": [0.59151534, 0.4684283, 0.06351118], "xyz": [4.1440704506766, 4.696066782314801, 2.5854994550785393], "label": "S", "properties": {}}, {"species": [{"element": "S", "occu": 1}], "abc": [0.08344868, 0.28288571, 0.06699647], "xyz": [0.5844745201286601, 2.8359733729207606, 2.7273833784411767], "label": "S", "properties": {}}, {"species": [{"element": "S", "occu": 1}], "abc": [0.70319555, 0.13588582, 0.10378569], "xyz": [4.92678634295552, 1.36227654368792, 4.225048958938413], "label": "S", "properties": {}}, {"species": [{"element": "S", "occu": 1}], "abc": [0.55833775, 0.80351275, 0.06381395], "xyz": [3.9113750702514998, 8.055340666739001, 2.597825027836188], "label": "S", "properties": {}}, {"species": [{"element": "S", "occu": 1}], "abc": [0.76230576, 0.11724556, 0.02109055], "xyz": [5.340950609649361, 1.1754050293073601, 0.858582780737292], "label": "S", "properties": {}}, {"species": [{"element": "S", "occu": 1}], "abc": [0.22982935, 0.62170941, 0.02234213], "xyz": [1.60983705390826, 6.232733821917961, 0.9095338008252073], "label": "S", "properties": {}}, {"species": [{"element": "S", "occu": 1}], "abc": [0.05202466, 0.4631297, 0.19152782], "xyz": [0.3641759437114, 4.6429474907332, 7.79697486713962], "label": "S", "properties": {}}, {"species": [{"element": "S", "occu": 1}], "abc": [0.57316839, 0.97963563, 0.18616076], "xyz": [4.015159011223981, 9.82100001390828, 7.578485292463575], "label": "S", "properties": {}}, {"species": [{"element": "S", "occu": 1}], "abc": [0.07844619, 0.7988239, 0.19107742], "xyz": [0.5490565942752, 8.008334214028402, 7.778639371647845], "label": "S", "properties": {}}, {"species": [{"element": "S", "occu": 1}], "abc": [0.23952764, 0.61906577, 0.10582609], "xyz": [1.6777892344890202, 6.20623091851012, 4.308112335939789], "label": "S", "properties": {}}, {"species": [{"element": "S", "occu": 1}], "abc": [0.70015597, 0.64445292, 0.226576], "xyz": [4.90512665194252, 6.46074105765552, 9.22376382447744], "label": "S", "properties": {}}, {"species": [{"element": "S", "occu": 1}], "abc": [0.55419881, 0.3159475, 0.18308935], "xyz": [3.8827240398452005, 3.16742297531, 7.453450158785964], "label": "S", "properties": {}}, {"species": [{"element": "S", "occu": 1}], "abc": [0.75041881, 0.6435675, 0.14420709], "xyz": [5.2572898515652, 6.45186458403, 5.87057826060643], "label": "S", "properties": {}}, {"species": [{"element": "S", "occu": 1}], "abc": [0.19890234, 0.13331964, 0.14980517], "xyz": [1.39349814279984, 1.33655018886384, 6.0984725115003044], "label": "S", "properties": {}}, {"species": [{"element": "S", "occu": 1}], "abc": [0.06598887, 0.97935969, 0.31429402], "xyz": [0.46164647572674006, 9.818233672361641, 12.794708230022549], "label": "S", "properties": {}}, {"species": [{"element": "S", "occu": 1}], "abc": [0.55959693, 0.47190959, 0.308351], "xyz": [3.92043417884334, 4.73096725764604, 12.55277169268344], "label": "S", "properties": {}}, {"species": [{"element": "S", "occu": 1}], "abc": [0.06249507, 0.31657834, 0.31647153], "xyz": [0.43764067141464, 3.1737472447210404, 12.883353267296743], "label": "S", "properties": {}}, {"species": [{"element": "S", "occu": 1}], "abc": [0.24952946, 0.14310422, 0.23197903], "xyz": [1.7482060227201202, 1.43464212975832, 9.443717714812543], "label": "S", "properties": {}}, {"species": [{"element": "S", "occu": 1}], "abc": [0.69848455, 0.14213362, 0.3500025], "xyz": [4.89377463740632, 1.42491171334472, 14.2483775773986], "label": "S", "properties": {}}, {"species": [{"element": "S", "occu": 1}], "abc": [0.57081017, 0.808563, 0.30800526], "xyz": [3.9987584773094005, 8.105970210828001, 12.538696838750655], "label": "S", "properties": {}}, {"species": [{"element": "S", "occu": 1}], "abc": [0.7515885, 0.14948303, 0.26783167], "xyz": [5.26583796728658, 1.49859069510268, 10.903255723445465], "label": "S", "properties": {}}, {"species": [{"element": "S", "occu": 1}], "abc": [0.19921621, 0.64469028, 0.27316914], "xyz": [1.39533212920828, 6.46312062868368, 11.12054070817568], "label": "S", "properties": {}}, {"species": [{"element": "S", "occu": 1}], "abc": [0.08388019, 0.47507957, 0.43716993], "xyz": [0.5873606340068199, 4.762746801662921, 17.79690781672964], "label": "S", "properties": {}}, {"species": [{"element": "S", "occu": 1}], "abc": [0.56053223, 0.96045654, 0.42796518], "xyz": [3.9266384609470397, 9.62872664472024, 17.4221883404243], "label": "S", "properties": {}}, {"species": [{"element": "S", "occu": 1}], "abc": [0.06349119, 0.8112531, 0.4371055], "xyz": [0.44426670872640006, 8.1329388829836, 17.79428491270092], "label": "S", "properties": {}}, {"species": [{"element": "S", "occu": 1}], "abc": [0.25229873, 0.6461768, 0.35559575], "xyz": [1.7672494976114002, 6.4780232235808, 14.47607520208638], "label": "S", "properties": {}}, {"species": [{"element": "S", "occu": 1}], "abc": [0.72618547, 0.63436767, 0.47788282], "xyz": [5.08750746220102, 6.359634853106521, 19.45430348958082], "label": "S", "properties": {}}, {"species": [{"element": "S", "occu": 1}], "abc": [0.58171112, 0.29565546, 0.43188068], "xyz": [4.075501327391961, 2.9639921087517602, 17.58158583731162], "label": "S", "properties": {}}, {"species": [{"element": "S", "occu": 1}], "abc": [0.7416199, 0.63234485, 0.39439372], "xyz": [5.1956490055351, 6.3393557670466, 16.055515708358715], "label": "S", "properties": {}}, {"species": [{"element": "S", "occu": 1}], "abc": [0.20214766, 0.14306398, 0.39626307], "xyz": [1.41622926029548, 1.4342387174808802, 16.13161574942788], "label": "S", "properties": {}}, {"species": [{"element": "S", "occu": 1}], "abc": [0.26821045, 0.12919953, 0.47896969], "xyz": [1.8791028126245801, 1.2952454433766802, 19.498549271075373], "label": "S", "properties": {}}, {"species": [{"element": "S", "occu": 1}], "abc": [0.01822221, 0.77456305, 0.57216576], "xyz": [0.1271194185705, 7.765115408085801, 23.292501583100773], "label": "S", "properties": {}}, {"species": [{"element": "S", "occu": 1}], "abc": [0.48706013, 0.25655618, 0.5628306], "xyz": [3.4123646549220803, 2.5720157272640805, 22.912473199230863], "label": "S", "properties": {}}, {"species": [{"element": "S", "occu": 1}], "abc": [0.99178403, 0.44026158, 0.5672261], "xyz": [6.94854111670448, 4.41369102030648, 23.09141118864938], "label": "S", "properties": {}}, {"species": [{"element": "S", "occu": 1}], "abc": [0.37215256, 0.58801696, 0.60389482], "xyz": [2.6070372953257603, 5.89496175464576, 24.5841712913341], "label": "S", "properties": {}}, {"species": [{"element": "S", "occu": 1}], "abc": [0.51802754, 0.92111748, 0.56318961], "xyz": [3.62886083892608, 9.23434643132688, 22.92708826636342], "label": "S", "properties": {}}, {"species": [{"element": "S", "occu": 1}], "abc": [0.3119774, 0.60559632, 0.52119786], "xyz": [2.1854122991355203, 6.07119758102592, 21.2176310220988], "label": "S", "properties": {}}, {"species": [{"element": "S", "occu": 1}], "abc": [0.84860634, 0.10173451, 0.52194992], "xyz": [5.94561979426266, 1.01990433333356, 21.24824690295924], "label": "S", "properties": {}}, {"species": [{"element": "S", "occu": 1}], "abc": [0.02351003, 0.26109607, 0.69166894], "xyz": [0.16453472179862003, 2.6175288327369204, 28.157399491943796], "label": "S", "properties": {}}, {"species": [{"element": "S", "occu": 1}], "abc": [0.50283965, 0.74542012, 0.68602181], "xyz": [3.52257355058732, 7.4729529885387205, 27.927508446969384], "label": "S", "properties": {}}, {"species": [{"element": "S", "occu": 1}], "abc": [0.99796225, 0.92516936, 0.69120493], "xyz": [6.991482096721961, 9.274967160420161, 28.13850994207004], "label": "S", "properties": {}}, {"species": [{"element": "S", "occu": 1}], "abc": [0.83641752, 0.10468564, 0.60542336], "xyz": [5.860217694931441, 1.04948987195984, 24.646397175612517], "label": "S", "properties": {}}, {"species": [{"element": "S", "occu": 1}], "abc": [0.37587764, 0.08064253, 0.72663801], "xyz": [2.63349903568238, 0.8084539434846801, 29.58096793185631], "label": "S", "properties": {}}, {"species": [{"element": "S", "occu": 1}], "abc": [0.52020501, 0.40887859, 0.68323171], "xyz": [3.64448284685094, 4.09907164981004, 27.813925263195845], "label": "S", "properties": {}}, {"species": [{"element": "S", "occu": 1}], "abc": [0.32507665, 0.08106436, 0.64423512], "xyz": [2.2775656621399603, 0.8126828550401601, 26.226399063951536], "label": "S", "properties": {}}, {"species": [{"element": "S", "occu": 1}], "abc": [0.87657722, 0.59027001, 0.64982887], "xyz": [6.141246712965261, 5.91754893237156, 26.454117043319034], "label": "S", "properties": {}}, {"species": [{"element": "S", "occu": 1}], "abc": [0.00847304, 0.74669332, 0.81456717], "xyz": [0.058832537886319994, 7.485717017157921, 33.160507711553585], "label": "S", "properties": {}}, {"species": [{"element": "S", "occu": 1}], "abc": [0.51625607, 0.25366602, 0.80838046], "xyz": [3.61692573643112, 2.5430414223991202, 32.908650710412545], "label": "S", "properties": {}}, {"species": [{"element": "S", "occu": 1}], "abc": [0.01196092, 0.4094984, 0.81643024], "xyz": [0.08351084724880001, 4.1052853417504, 33.23635209784546], "label": "S", "properties": {}}, {"species": [{"element": "S", "occu": 1}], "abc": [0.82527105, 0.58152317, 0.73200818], "xyz": [5.781780382597621, 5.82986049686452, 29.79958411264022], "label": "S", "properties": {}}, {"species": [{"element": "S", "occu": 1}], "abc": [0.37582509, 0.58322226, 0.8502001], "xyz": [2.63277200638416, 5.84689413917256, 34.611101466823946], "label": "S", "properties": {}}, {"species": [{"element": "S", "occu": 1}], "abc": [0.50474808, 0.9169125, 0.80825636], "xyz": [3.5358223671486004, 9.19219085085, 32.903598678906036], "label": "S", "properties": {}}, {"species": [{"element": "S", "occu": 1}], "abc": [0.32342183, 0.57747449, 0.76803159], "xyz": [2.2656168613627403, 5.78927184827044, 31.26607405858471], "label": "S", "properties": {}}, {"species": [{"element": "S", "occu": 1}], "abc": [0.87669798, 0.08066955, 0.77336692], "xyz": [6.1424566629729, 0.8087248231998001, 31.483271925285724], "label": "S", "properties": {}}, {"species": [{"element": "S", "occu": 1}], "abc": [0.98989145, 0.24926303, 0.93698632], "xyz": [6.935417279305581, 2.4989007607826803, 38.14411289124286], "label": "S", "properties": {}}, {"species": [{"element": "S", "occu": 1}], "abc": [0.51437563, 0.76578787, 0.9284088], "xyz": [3.60338492900542, 7.677142859657721, 37.79492754645907], "label": "S", "properties": {}}, {"species": [{"element": "S", "occu": 1}], "abc": [0.01072724, 0.91339034, 0.93660355], "xyz": [0.07450738817804001, 9.15688064739304, 38.12853056973001], "label": "S", "properties": {}}, {"species": [{"element": "S", "occu": 1}], "abc": [0.8231747, 0.07987007, 0.85577934], "xyz": [5.767450654344021, 0.8007099114809201, 34.83822875338597], "label": "S", "properties": {}}, {"species": [{"element": "S", "occu": 1}], "abc": [0.34645473, 0.09001623, 0.97790906], "xyz": [2.42734307777838, 0.9024267482818801, 39.810051423172524], "label": "S", "properties": {}}, {"species": [{"element": "S", "occu": 1}], "abc": [0.49008545, 0.43077552, 0.9324192], "xyz": [3.43343692486772, 4.318591788981121, 37.95818836155725], "label": "S", "properties": {}}, {"species": [{"element": "S", "occu": 1}], "abc": [0.33446828, 0.09337418, 0.89442632], "xyz": [2.34335857719308, 0.9360907208720801, 36.41152255347646], "label": "S", "properties": {}}, {"species": [{"element": "S", "occu": 1}], "abc": [0.87027884, 0.58124723, 0.89642058], "xyz": [6.0971240596305805, 5.82709415531788, 36.492707600633274], "label": "S", "properties": {}}, {"species": [{"element": "S", "occu": 1}], "abc": [0.8070084, 0.59595085, 0.97917448], "xyz": [5.653814285021101, 5.974500239582601, 39.86156586079509], "label": "S", "properties": {}}]}, "formula": "", "bandgap": 2.3585}