{"miller": "101_0.46", "final_energy": -526.26022398, "sigma": 0.003689975748724214, "incar_parameters": {"SYSTEM": "unknown system", "LCOMPAT": false, "PREC": "normal", "ENMAX": 520.0, "ENAUG": 368.056, "EDIFF": 1e-05, "IALGO": 38, "IWAVPR": 11, "NBANDS": 480, "NBANDSLOW": -1, "NBANDSHIGH": -1, "NELECT": 800.0, "TURBO": 0, "IRESTART": 0, "NREBOOT": 0, "NMIN": 0, "EREF": 0.0, "ISMEAR": 0, "SIGMA": 0.05, "KSPACING": 0.5, "KGAMMA": true, "KBLOWUP": true, "LREAL": true, "ROPT": [-0.0005, -0.0005, -0.0005], "LMAXPAW": -100, "LMAXMIX": 2, "NLSPLINE": false, "ISTART": 0, "ICHARG": 2, "INIWAV": 1, "ISPIN": 1, "LNONCOLLINEAR": false, "MAGMOM": [0.6, 0.6, 0.6, 0.6, 0.6, 0.6, 0.6, 0.6, 0.6, 0.6, 0.6, 0.6, 0.6, 0.6, 0.6, 0.6, 0.6, 0.6, 0.6, 0.6, 0.6, 0.6, 0.6, 0.6, 0.6, 0.6, 0.6, 0.6, 0.6, 0.6, 0.6, 0.6, 0.6, 0.6, 0.6, 0.6, 0.6, 0.6, 0.6, 0.6, 0.6, 0.6, 0.6, 0.6, 0.6, 0.6, 0.6, 0.6, 0.6, 0.6, 0.6, 0.6, 0.6, 0.6, 0.6, 0.6, 0.6, 0.6, 0.6, 0.6, 0.6, 0.6, 0.6, 0.6, 0.6, 0.6, 0.6, 0.6, 0.6, 0.6, 0.6, 0.6, 0.6, 0.6, 0.6, 0.6, 0.6, 0.6, 0.6, 0.6, 0.6, 0.6, 0.6, 0.6, 0.6, 0.6, 0.6, 0.6, 0.6, 0.6, 0.6, 0.6, 0.6, 0.6, 0.6, 0.6, 0.6, 0.6, 0.6, 0.6, 0.6, 0.6, 0.6, 0.6, 0.6, 0.6, 0.6, 0.6, 0.6, 0.6, 0.6, 0.6, 0.6, 0.6, 0.6, 0.6, 0.6, 0.6, 0.6, 0.6, 0.6, 0.6, 0.6, 0.6, 0.6, 0.6, 0.6, 0.6], "NUPDOWN": -1.0, "LSORBIT": false, "SAXIS": [0.0, 0.0, 1.0], "LSPIRAL": false, "QSPIRAL": [0.0, 0.0, 0.0], "LZEROZ": false, "LASPH": false, "LMETAGGA": false, "NELM": 100, "NELMDL": -5, "NELMIN": 6, "ENINI": 520.0, "LDIAG": true, "LSUBROT": false, "WEIMIN": 0.001, "EBREAK": 1e-08, "DEPER": 0.3, "NRMM": 4, "TIME": 0.4, "AMIX": 0.4, "BMIX": 1.0, "AMIN": 0.1, "AMIX_MAG": 1.6, "BMIX_MAG": 1.0, "IMIX": 4, "MIXFIRST": false, "MAXMIX": -45, "WC": 100.0, "INIMIX": 1, "MIXPRE": 1, "MREMOVE": 5, "LDIPOL": false, "LMONO": false, "IDIPOL": 0, "EPSILON": 1.0, "DIPOL": [-100.0, -100.0, -100.0], "EFIELD": 0.0, "NGX": 40, "NGY": 56, "NGZ": 240, "NGXF": 80, "NGYF": 112, "NGZF": 480, "ADDGRID": false, "NSW": 150, "IBRION": 2, "MDALGO": 0, "ISIF": 3, "PSTRESS": 0.0, "EDIFFG": -0.01, "NFREE": 1, "POTIM": 0.5, "SMASS": -3.0, "SCALEE": 1.0, "TEBEG": 0.0001, "TEEND": 0.0001, "NBLOCK": 1, "KBLOCK": 150, "NPACO": 256, "APACO": 10.0, "ISYM": 0, "SYMPREC": 1e-05, "LORBIT": 11, "RWIGS": [-1.0, -1.0, -1.0], "NEDOS": 301, "EMIN": 10.0, "EMAX": -10.0, "EFERMI": 0.0, "NWRITE": 2, "LWAVE": false, "LDOWNSAMPLE": false, "LCHARG": false, "LPARD": false, "LVTOT": false, "LVHAR": false, "LELF": false, "LOPTICS": false, "STM": [0.0, 0.0, 0.0, 0.0, 0.0, 0.0, 0.0], "NPAR": 1, "NSIM": 4, "NBLK": -1, "LPLANE": true, "LSCALAPACK": true, "LSCAAWARE": false, "LSCALU": false, "LASYNC": false, "LORBITALREAL": false, "IDIOT": 3, "PHON_NSTRUCT": -1, "LMUSIC": false, "POMASS": [22.99, 30.974, 32.066], "DARWINR": [0.0, 0.0, 0.0], "DARWINV": [1.0, 1.0, 1.0], "LCORR": true, "GGA_COMPAT": true, "LBERRY": false, "ICORELEVEL": 0, "LDAU": false, "I_CONSTRAINED_M": 0, "GGA": "--", "VOSKOWN": 0, "LHFCALC": false, "PRECFOCK": "", "LSYMGRAD": false, "LHFONE": false, "LRHFCALC": false, "LTHOMAS": false, "LMODELHF": false, "LFOCKACE": false, "ENCUT4O": -1.0, "EXXOEP": 0, "FOURORBIT": 0, "AEXX": 0.0, "HFALPHA": 0.0, "MCALPHA": 0.0, "ALDAX": 1.0, "AGGAX": 1.0, "ALDAC": 1.0, "AGGAC": 1.0, "NKREDX": 1, "NKREDY": 1, "NKREDZ": 1, "SHIFTRED": false, "ODDONLY": false, "EVENONLY": false, "LMAXFOCK": 0, "NMAXFOCKAE": 0, "LFOCKAEDFT": false, "HFSCREEN": 0.0, "HFSCREENC": 0.0, "NBANDSGWLOW": 0, "LUSE_VDW": false, "Zab_VDW": -0.8491, "PARAM1": 0.1234, "PARAM2": 1.0, "PARAM3": 0.0, "MODEL_GW": 0, "MODEL_EPS0": 13.39257743, "MODEL_ALPHA": 1.0, "LEPSILON": false, "LRPA": false, "LNABLA": false, "LVEL": false, "CSHIFT": 0.1, "OMEGAMAX": -1.0, "DEG_THRESHOLD": 0.002, "RTIME": -0.1, "WPLASMAI": 0.0, "DFIELD": [0.0, 0.0, 0.0], "WPLASMA": [0.0, 0.0, 0.0, 0.0, 0.0, 0.0, 0.0, 0.0, 0.0], "NUCIND": false, "MAGPOS": [0.0, 0.0, 0.0], "LNICSALL": true, "ORBITALMAG": false, "LMAGBLOCH": false, "LCHIMAG": false, "LGAUGE": true, "MAGATOM": 0, "MAGDIPOL": [0.0, 0.0, 0.0], "AVECCONST": [0.0, 0.0, 0.0], "LFINITE_TEMPERATURE": false, "LADDER": false, "LRPAFORCE": false, "LFXC": false, "LHARTREE": true, "IBSE": 0, "KPOINT": [-1, 0, 0, 0], "LTCTC": false, "LTCTE": false, "LTETE": false, "LTRIPLET": false, "LFXCEPS": false, "LFXHEG": false, "NATURALO": 2, "LHOLEGF": false, "L2ORDER": false, "LDMP1": false, "LMP2LT": false, "LSMP2LT": false, "LGWLF": false, "ENCUTGW": -2.0, "ENCUTGWSOFT": -2.0, "ENCUTLF": -1.0, "LESF_SPLINES": false, "LMAXMP2": -1, "SCISSOR": 0.0, "NOMEGA": 0, "NOMEGAR": 0, "NBANDSGW": -1, "NBANDSO": -1, "NBANDSV": -1, "NELMGW": 1, "NELMHF": 1, "DIM": 3, "IESPILON": 4, "ANTIRES": 0, "OMEGAMIN": -30.0, "OMEGATL": -200.0, "OMEGAGRID": 0, "LSELFENERGY": false, "LSPECTRAL": false, "LSPECTRALGW": false, "LSINGLES": false, "LFERMIGW": false, "ODDONLYGW": false, "EVENONLYGW": false, "NKREDLFX": 1, "NKREDLFY": 1, "NKREDLFZ": 1, "MAXMEM": 2800, "TELESCOPE": 0, "NTAUPAR": -1, "NOMEGAPAR": -1, "DAMP_NEWTON": 0.80000001, "LAMBDA": 1.0, "OFIELD_KAPPA": 0.0, "OFIELD_K": [0.0, 0.0, 0.0], "OFIELD_Q6_NEAR": 0.0, "OFIELD_Q6_FAR": 0.0, "OFIELD_A": 0.0, "KPOINTS_OPT_MODE": 1, "LKPOINTS_OPT": false, "@module": "pymatgen.io.vasp.inputs", "@class": "Incar"}, "relaxed_structures": {"@module": "pymatgen.core.structure", "@class": "Structure", "charge": 0, "lattice": {"matrix": [[7.00642, 0.0, 0.0], [-0.000714, 10.025156, 0.0], [0.0, 0.0, 40.67391925]], "a": 7.00642, "b": 10.02515602542584, "c": 40.67391925, "alpha": 90.0, "beta": 90.0, "gamma": 90.00408065335873, "volume": 2856.9545338042044}, "sites": [{"species": [{"element": "Na", "occu": 1}], "abc": [0.40058101, 0.15033345, 0.05536526], "xyz": [2.8065314620009003, 1.5071162882682, 2.251922114495255], "label": "Na", "properties": {}}, {"species": [{"element": "Na", "occu": 1}], "abc": [0.39414082, 0.40478033, 0.1161187], "xyz": [2.76122711090878, 4.057985953981481, 4.723002627214975], "label": "Na", "properties": {}}, {"species": [{"element": "Na", "occu": 1}], "abc": [0.0408499, 0.96804155, 0.00447441], "xyz": [0.2855203746913, 9.7047675532318, 0.18199179103139249], "label": "Na", "properties": {}}, {"species": [{"element": "Na", "occu": 1}], "abc": [0.01048481, 0.40796003, 0.00199752], "xyz": [0.07316969901878001, 4.08986294251468, 0.08124696718025999], "label": "Na", "properties": {}}, {"species": [{"element": "Na", "occu": 1}], "abc": [0.89980625, 0.71902106, 0.06981587], "xyz": [6.303907125088161, 7.208298293785361, 2.8396850587484974], "label": "Na", "properties": {}}, {"species": [{"element": "Na", "occu": 1}], "abc": [0.39185625, 0.66797949, 0.17563937], "xyz": [2.7450325297691403, 6.6965985920504405, 7.143941552500872], "label": "Na", "properties": {}}, {"species": [{"element": "Na", "occu": 1}], "abc": [0.39309666, 0.92156659, 0.24188021], "xyz": [2.75354230201194, 9.23884882913804, 9.838216129713043], "label": "Na", "properties": {}}, {"species": [{"element": "Na", "occu": 1}], "abc": [0.89540613, 0.43875932, 0.12835443], "xyz": [6.273278143200121, 4.398630629453921, 5.220677721199777], "label": "Na", "properties": {}}, {"species": [{"element": "Na", "occu": 1}], "abc": [0.36826503, 0.95042103, 0.12579502], "xyz": [2.5795408708771803, 9.52811909143068, 5.116576485532135], "label": "Na", "properties": {}}, {"species": [{"element": "Na", "occu": 1}], "abc": [0.87493116, 0.97876173, 0.13693923], "xyz": [6.129436342171981, 9.812239030079882, 5.569855183177177], "label": "Na", "properties": {}}, {"species": [{"element": "Na", "occu": 1}], "abc": [0.89232113, 0.22456678, 0.19927899], "xyz": [6.251816270973681, 2.25131700191768, 8.105457547481556], "label": "Na", "properties": {}}, {"species": [{"element": "Na", "occu": 1}], "abc": [0.39167788, 0.20858852, 0.30046139], "xyz": [2.74411079978632, 2.09113245280912, 12.220942314602757], "label": "Na", "properties": {}}, {"species": [{"element": "Na", "occu": 1}], "abc": [0.39464468, 0.43740828, 0.36957963], "xyz": [2.76473406933368, 4.38508624269168, 15.032252027064876], "label": "Na", "properties": {}}, {"species": [{"element": "Na", "occu": 1}], "abc": [0.89381582, 0.929316, 0.25597063], "xyz": [6.2617855059404, 9.316537873296001, 10.411328734991626], "label": "Na", "properties": {}}, {"species": [{"element": "Na", "occu": 1}], "abc": [0.38470294, 0.47626636, 0.24374971], "xyz": [2.69505031869376, 4.77464455655216, 9.914256021750917], "label": "Na", "properties": {}}, {"species": [{"element": "Na", "occu": 1}], "abc": [0.88509549, 0.48265366, 0.25797466], "xyz": [6.20100612833256, 4.83867823547096, 10.492840489386206], "label": "Na", "properties": {}}, {"species": [{"element": "Na", "occu": 1}], "abc": [0.89051713, 0.68772668, 0.32401417], "xyz": [6.23884599312508, 6.894567252362081, 13.17892618643577], "label": "Na", "properties": {}}, {"species": [{"element": "Na", "occu": 1}], "abc": [0.4004368, 0.71620618, 0.43093114], "xyz": [2.8051170330434796, 7.180078682664081, 17.527658390670442], "label": "Na", "properties": {}}, {"species": [{"element": "Na", "occu": 1}], "abc": [0.53972838, 0.97439223, 0.49592808], "xyz": [3.7808680001473802, 9.76843411093788, 20.171338679727537], "label": "Na", "properties": {}}, {"species": [{"element": "Na", "occu": 1}], "abc": [0.89290851, 0.41579918, 0.3824263], "xyz": [6.255795162019681, 4.16845164417208, 15.554776445276273], "label": "Na", "properties": {}}, {"species": [{"element": "Na", "occu": 1}], "abc": [0.37129108, 0.97700093, 0.36461759], "xyz": [2.60072367006958, 9.79458673539508, 14.830426412789606], "label": "Na", "properties": {}}, {"species": [{"element": "Na", "occu": 1}], "abc": [0.86652597, 0.96295778, 0.3760456], "xyz": [6.07055733487248, 9.653801965913681, 15.295248368717798], "label": "Na", "properties": {}}, {"species": [{"element": "Na", "occu": 1}], "abc": [0.90210071, 0.16273098, 0.44490816], "xyz": [6.32038026663848, 1.6314034605328802, 18.096158573506077], "label": "Na", "properties": {}}, {"species": [{"element": "Na", "occu": 1}], "abc": [0.54135769, 0.40837587, 0.49900035], "xyz": [3.7926877659986205, 4.09403180338572, 20.296299941621736], "label": "Na", "properties": {}}, {"species": [{"element": "Na", "occu": 1}], "abc": [0.67314337, 0.70065233, 0.55531565], "xyz": [4.715824904671781, 7.024148910013481, 22.586863906361263], "label": "Na", "properties": {}}, {"species": [{"element": "Na", "occu": 1}], "abc": [0.68148066, 0.44696998, 0.61616445], "xyz": [4.77442058927148, 4.48094377681688, 25.06182308402066], "label": "Na", "properties": {}}, {"species": [{"element": "Na", "occu": 1}], "abc": [0.03324986, 0.88270965, 0.50394009], "xyz": [0.23233222941110002, 8.849301943955401, 20.49721852749773], "label": "Na", "properties": {}}, {"species": [{"element": "Na", "occu": 1}], "abc": [0.0597813, 0.44525346, 0.5015155], "xyz": [0.4185349849755601, 4.46373539603976, 20.398600949623372], "label": "Na", "properties": {}}, {"species": [{"element": "Na", "occu": 1}], "abc": [0.17332186, 0.13270011, 0.56941519], "xyz": [1.21427099846266, 1.3303393039671603, 23.160347457783406], "label": "Na", "properties": {}}, {"species": [{"element": "Na", "occu": 1}], "abc": [0.68316054, 0.18362678, 0.67557414], "xyz": [4.786378561145881, 1.84088711527768, 27.478248017748196], "label": "Na", "properties": {}}, {"species": [{"element": "Na", "occu": 1}], "abc": [0.68202332, 0.92873366, 0.74199573], "xyz": [4.77787871388116, 9.31069982395096, 30.179874405864798], "label": "Na", "properties": {}}, {"species": [{"element": "Na", "occu": 1}], "abc": [0.17955675, 0.41198436, 0.62811863], "xyz": [1.2577558475019601, 4.13020747856016, 25.548046436040625], "label": "Na", "properties": {}}, {"species": [{"element": "Na", "occu": 1}], "abc": [0.70718265, 0.90125157, 0.62590732], "xyz": [4.954175168992021, 9.03518758449492, 25.45810379166391], "label": "Na", "properties": {}}, {"species": [{"element": "Na", "occu": 1}], "abc": [0.20017577, 0.87308764, 0.63680935], "xyz": [1.4018921338684402, 8.75283979267184, 25.90153207954499], "label": "Na", "properties": {}}, {"species": [{"element": "Na", "occu": 1}], "abc": [0.18412156, 0.62460104, 0.69920819], "xyz": [1.28958701527264, 6.261722863762241, 28.439537458998657], "label": "Na", "properties": {}}, {"species": [{"element": "Na", "occu": 1}], "abc": [0.68465839, 0.63816731, 0.80044345], "xyz": [4.79654858540446, 6.397726836850361, 32.55717224949141], "label": "Na", "properties": {}}, {"species": [{"element": "Na", "occu": 1}], "abc": [0.68064508, 0.41165388, 0.86960054], "xyz": [4.76859138054328, 4.12689436500528, 35.37006214371639], "label": "Na", "properties": {}}, {"species": [{"element": "Na", "occu": 1}], "abc": [0.18162613, 0.91973051, 0.75603935], "xyz": [1.27189226217046, 9.22044184070956, 30.751083471722485], "label": "Na", "properties": {}}, {"species": [{"element": "Na", "occu": 1}], "abc": [0.69092584, 0.37370872, 0.74366793], "xyz": [4.840649795866721, 3.74648821656032, 30.24788933363465], "label": "Na", "properties": {}}, {"species": [{"element": "Na", "occu": 1}], "abc": [0.18993056, 0.36598799, 0.75824768], "xyz": [1.33047195877034, 3.6690866938764404, 30.840904907819837], "label": "Na", "properties": {}}, {"species": [{"element": "Na", "occu": 1}], "abc": [0.18536552, 0.16225278, 0.82434169], "xyz": [1.2986328381534802, 1.6266094309336803, 33.529207333468534], "label": "Na", "properties": {}}, {"species": [{"element": "Na", "occu": 1}], "abc": [0.67491962, 0.13289483, 0.93087253], "xyz": [4.7286754370517805, 1.33229140234348, 37.8622341172632], "label": "Na", "properties": {}}, {"species": [{"element": "Na", "occu": 1}], "abc": [0.53365952, 0.87495367, 0.9955229], "xyz": [3.7384180171980206, 8.771547034522522, 40.49181804612582], "label": "Na", "properties": {}}, {"species": [{"element": "Na", "occu": 1}], "abc": [0.18207601, 0.43385875, 0.882945], "xyz": [1.2753912228367001, 4.349501650715, 35.912833632191244], "label": "Na", "properties": {}}, {"species": [{"element": "Na", "occu": 1}], "abc": [0.70332556, 0.87074656, 0.86444176], "xyz": [4.92717255705136, 8.72937010046336, 35.160234342567875], "label": "Na", "properties": {}}, {"species": [{"element": "Na", "occu": 1}], "abc": [0.20733101, 0.88573949, 0.87626495], "xyz": [1.4520157170883403, 8.87967656261044, 35.64112981790529], "label": "Na", "properties": {}}, {"species": [{"element": "Na", "occu": 1}], "abc": [0.1725931, 0.6867886, 0.94528616], "xyz": [1.2087693806416, 6.8851628540216, 38.44849293998258], "label": "Na", "properties": {}}, {"species": [{"element": "Na", "occu": 1}], "abc": [0.53083236, 0.43888786, 0.99888995], "xyz": [3.7189210978191602, 4.3999192630061605, 40.62876916593654], "label": "Na", "properties": {}}, {"species": [{"element": "P", "occu": 1}], "abc": [0.8990893, 0.18464844, 0.06627764], "xyz": [6.29926541431984, 1.85112941615664, 2.6957713774405696], "label": "P", "properties": {}}, {"species": [{"element": "P", "occu": 1}], "abc": [0.40302056, 0.68883528, 0.06363907], "xyz": [2.8232394836052803, 6.905681140303681, 2.5884503943250974], "label": "P", "properties": {}}, {"species": [{"element": "P", "occu": 1}], "abc": [0.89263315, 0.69838721, 0.18825545], "xyz": [6.25366410635506, 7.001440728654761, 7.6570869716724115], "label": "P", "properties": {}}, {"species": [{"element": "P", "occu": 1}], "abc": [0.39274431, 0.20416691, 0.18781994], "xyz": [2.75158581329646, 2.0468051227879602, 7.639373073099844], "label": "P", "properties": {}}, {"species": [{"element": "P", "occu": 1}], "abc": [0.89243999, 0.20530877, 0.31220949], "xyz": [6.25266280427402, 2.0582524474181203, 12.69878358534368], "label": "P", "properties": {}}, {"species": [{"element": "P", "occu": 1}], "abc": [0.39183579, 0.70201186, 0.31128504], "xyz": [2.74486487930376, 7.037778410350161, 12.66118258069302], "label": "P", "properties": {}}, {"species": [{"element": "P", "occu": 1}], "abc": [0.90252944, 0.69819624, 0.43607528], "xyz": [6.32300180688944, 6.999526224613441, 17.73689072564114], "label": "P", "properties": {}}, {"species": [{"element": "P", "occu": 1}], "abc": [0.40022499, 0.19229639, 0.43386719], "xyz": [2.8040070748133403, 1.9278013079868404, 17.647079051284408], "label": "P", "properties": {}}, {"species": [{"element": "P", "occu": 1}], "abc": [0.17476048, 0.66705831, 0.56599849], "xyz": [1.2239690426482601, 6.687363618846361, 23.02137687788193], "label": "P", "properties": {}}, {"species": [{"element": "P", "occu": 1}], "abc": [0.6708281, 0.16241401, 0.5639535], "xyz": [4.699987452798861, 1.62822578683556, 22.938199119754874], "label": "P", "properties": {}}, {"species": [{"element": "P", "occu": 1}], "abc": [0.18274866, 0.15288883, 0.68832995], "xyz": [1.28030470377258, 1.5327343714074801, 27.997076803656533], "label": "P", "properties": {}}, {"species": [{"element": "P", "occu": 1}], "abc": [0.6841774, 0.64765514, 0.68772145], "xyz": [4.79317179313804, 6.492843812701841, 27.972326723792907], "label": "P", "properties": {}}, {"species": [{"element": "P", "occu": 1}], "abc": [0.18423736, 0.64272189, 0.8123266], "xyz": [1.29038542042174, 6.443387211864841, 33.04050653302705], "label": "P", "properties": {}}, {"species": [{"element": "P", "occu": 1}], "abc": [0.68363509, 0.1475636, 0.81149267], "xyz": [4.789729206867401, 1.4793481099216, 33.006587331546896], "label": "P", "properties": {}}, {"species": [{"element": "P", "occu": 1}], "abc": [0.17242633, 0.15099799, 0.9366026], "xyz": [1.20798347447374, 1.51377840543644, 38.09529852174005], "label": "P", "properties": {}}, {"species": [{"element": "P", "occu": 1}], "abc": [0.67479576, 0.65526877, 0.93378197], "xyz": [4.727434646877421, 6.56917164117812, 37.980572444885915], "label": "P", "properties": {}}, {"species": [{"element": "S", "occu": 1}], "abc": [0.05538724, 0.01055489, 0.07203049], "xyz": [0.38805872988934, 0.10581441881284001, 2.9297623337979326], "label": "S", "properties": {}}, {"species": [{"element": "S", "occu": 1}], "abc": [0.58910894, 0.53021167, 0.06305146], "xyz": [4.12716608826242, 5.315454704770521, 2.564549992634605], "label": "S", "properties": {}}, {"species": [{"element": "S", "occu": 1}], "abc": [0.08467085, 0.34447258, 0.06701346], "xyz": [0.5929935834348801, 3.45339135222248, 2.7257000607031046], "label": "S", "properties": {}}, {"species": [{"element": "S", "occu": 1}], "abc": [0.23696758, 0.67916244, 0.10559927], "xyz": [1.65980946988144, 6.808709410340641, 4.295136180838947], "label": "S", "properties": {}}, {"species": [{"element": "S", "occu": 1}], "abc": [0.7036372, 0.19896445, 0.10396082], "xyz": [4.9298356902067, 1.9946496497042001, 4.228493997843785], "label": "S", "properties": {}}, {"species": [{"element": "S", "occu": 1}], "abc": [0.55493618, 0.86532686, 0.06395325], "xyz": [3.88749810689756, 8.67503676249016, 2.6012293262750625], "label": "S", "properties": {}}, {"species": [{"element": "S", "occu": 1}], "abc": [0.76121703, 0.18033499, 0.02121461], "xyz": [5.33327746414974, 1.8078864070084402, 0.8628813340602424], "label": "S", "properties": {}}, {"species": [{"element": "S", "occu": 1}], "abc": [0.22731117, 0.68428393, 0.02206283], "xyz": [1.5921489489853802, 6.8600531465430805, 0.8973817658464773], "label": "S", "properties": {}}, {"species": [{"element": "S", "occu": 1}], "abc": [0.0501967, 0.52423784, 0.19158434], "xyz": [0.35132485699624, 5.25556612710304, 7.792485974724544], "label": "S", "properties": {}}, {"species": [{"element": "S", "occu": 1}], "abc": [0.57041612, 0.03968212, 0.18597342], "xyz": [3.99654657845672, 0.39781944341072006, 7.564267867726334], "label": "S", "properties": {}}, {"species": [{"element": "S", "occu": 1}], "abc": [0.07533026, 0.86017797, 0.19073722], "xyz": [0.52718127319862, 8.62341833701332, 7.758030284249485], "label": "S", "properties": {}}, {"species": [{"element": "S", "occu": 1}], "abc": [0.24727177, 0.20289552, 0.23198932], "xyz": [1.73234500736212, 2.0340592397011203, 9.43591486854241], "label": "S", "properties": {}}, {"species": [{"element": "S", "occu": 1}], "abc": [0.69825412, 0.70472346, 0.22659113], "xyz": [4.89175845889996, 7.064962623359761, 9.216349324386252], "label": "S", "properties": {}}, {"species": [{"element": "S", "occu": 1}], "abc": [0.55386196, 0.37618428, 0.18346867], "xyz": [3.88032091820728, 3.77130609174768, 7.462389868484897], "label": "S", "properties": {}}, {"species": [{"element": "S", "occu": 1}], "abc": [0.74759281, 0.70347392, 0.14408916], "xyz": [5.23744693546132, 7.05243578993152, 5.860670858640329], "label": "S", "properties": {}}, {"species": [{"element": "S", "occu": 1}], "abc": [0.19760385, 0.19541915, 0.14973553], "xyz": [1.3843560374439001, 1.9591074641374002, 6.090330856075952], "label": "S", "properties": {}}, {"species": [{"element": "S", "occu": 1}], "abc": [0.06267272, 0.03696973, 0.31464296], "xyz": [0.43908500247518, 0.37062731052788, 12.79776234762098], "label": "S", "properties": {}}, {"species": [{"element": "S", "occu": 1}], "abc": [0.55624369, 0.53082579, 0.3082734], "xyz": [3.89689790487574, 5.32161135357324, 12.538687378522948], "label": "S", "properties": {}}, {"species": [{"element": "S", "occu": 1}], "abc": [0.05992242, 0.37426515, 0.31623229], "xyz": [0.4195744166193, 3.7520665141134004, 12.862406627702583], "label": "S", "properties": {}}, {"species": [{"element": "S", "occu": 1}], "abc": [0.24829713, 0.70404114, 0.35556899], "xyz": [1.7391712922006402, 7.05812225891784, 14.462384387064056], "label": "S", "properties": {}}, {"species": [{"element": "S", "occu": 1}], "abc": [0.69547339, 0.20135296, 0.3501119], "xyz": [4.87263490315036, 2.01859483506176, 14.240423149064073], "label": "S", "properties": {}}, {"species": [{"element": "S", "occu": 1}], "abc": [0.56686693, 0.8676094, 0.30821673], "xyz": [3.971088322579, 8.697919582066401, 12.536382387519051], "label": "S", "properties": {}}, {"species": [{"element": "S", "occu": 1}], "abc": [0.74871002, 0.20591776, 0.26786752], "xyz": [5.24562983304776, 2.0643576671705604, 10.895221878177761], "label": "S", "properties": {}}, {"species": [{"element": "S", "occu": 1}], "abc": [0.19592026, 0.70368168, 0.27305282], "xyz": [1.37219719934968, 7.05451861634208, 11.106128351664783], "label": "S", "properties": {}}, {"species": [{"element": "S", "occu": 1}], "abc": [0.08263611, 0.53623081, 0.43667507], "xyz": [0.57860042502786, 5.37579752225636, 17.761286535668095], "label": "S", "properties": {}}, {"species": [{"element": "S", "occu": 1}], "abc": [0.55816256, 0.01888826, 0.42860992], "xyz": [3.91070783741756, 0.18935775306856, 17.43324527582896], "label": "S", "properties": {}}, {"species": [{"element": "S", "occu": 1}], "abc": [0.06097487, 0.87206879, 0.43585433], "xyz": [0.42659289154934, 8.742625662481242, 17.727903823182853], "label": "S", "properties": {}}, {"species": [{"element": "S", "occu": 1}], "abc": [0.26484695, 0.18889394, 0.47921328], "xyz": [1.8554940971458402, 1.8936912159546402, 19.49148225424764], "label": "S", "properties": {}}, {"species": [{"element": "S", "occu": 1}], "abc": [0.72693262, 0.69592871, 0.47768017], "xyz": [5.092698354321461, 6.976793882628761, 19.429124661906272], "label": "S", "properties": {}}, {"species": [{"element": "S", "occu": 1}], "abc": [0.58268605, 0.35385153, 0.43241125], "xyz": [4.08229054444858, 3.5474167890886807, 17.587860265291564], "label": "S", "properties": {}}, {"species": [{"element": "S", "occu": 1}], "abc": [0.73645782, 0.69122374, 0.39408434], "xyz": [5.159439265454041, 6.92962582440344, 16.028954622849543], "label": "S", "properties": {}}, {"species": [{"element": "S", "occu": 1}], "abc": [0.20297696, 0.2038172, 0.39635858], "xyz": [1.4219963066024002, 2.0432992254832003, 16.121456876964665], "label": "S", "properties": {}}, {"species": [{"element": "S", "occu": 1}], "abc": [0.01839621, 0.84112652, 0.57162493], "xyz": [0.12829100933292, 8.432424578737121, 23.2502262441069], "label": "S", "properties": {}}, {"species": [{"element": "S", "occu": 1}], "abc": [0.48483027, 0.32112313, 0.56343203], "xyz": [3.3966952184185804, 3.21930947345828, 22.916988891083577], "label": "S", "properties": {}}, {"species": [{"element": "S", "occu": 1}], "abc": [0.98916785, 0.50719931, 0.56674331], "xyz": [6.93016326728966, 5.08475220584236, 23.051671626417715], "label": "S", "properties": {}}, {"species": [{"element": "S", "occu": 1}], "abc": [0.83820881, 0.17224594, 0.60577145], "xyz": [5.872719986959041, 1.72679241886664, 24.63909904125541], "label": "S", "properties": {}}, {"species": [{"element": "S", "occu": 1}], "abc": [0.37025154, 0.65248753, 0.60367266], "xyz": [2.59367191879038, 6.541289276304681, 24.553733026272702], "label": "S", "properties": {}}, {"species": [{"element": "S", "occu": 1}], "abc": [0.51849101, 0.98607001, 0.56433344], "xyz": [3.63206172829706, 9.885505677171562, 22.95365276863472], "label": "S", "properties": {}}, {"species": [{"element": "S", "occu": 1}], "abc": [0.31285466, 0.67065665, 0.52091307], "xyz": [2.1915122980691, 6.7234375386874, 21.187576145449594], "label": "S", "properties": {}}, {"species": [{"element": "S", "occu": 1}], "abc": [0.84515731, 0.1670032, 0.52220651], "xyz": [5.921407839645401, 1.6742331324992001, 21.240185419564316], "label": "S", "properties": {}}, {"species": [{"element": "S", "occu": 1}], "abc": [0.0252754, 0.32720355, 0.69172367], "xyz": [0.1768564447333, 3.2802666325038006, 28.135112696893646], "label": "S", "properties": {}}, {"species": [{"element": "S", "occu": 1}], "abc": [0.50546956, 0.81158672, 0.68580503], "xyz": [3.5409525616571202, 8.136283475528321, 27.894378411463826], "label": "S", "properties": {}}, {"species": [{"element": "S", "occu": 1}], "abc": [0.99998174, 0.99121108, 0.69086466], "xyz": [7.0055843380596805, 9.937045705928481, 28.100173393518705], "label": "S", "properties": {}}, {"species": [{"element": "S", "occu": 1}], "abc": [0.82925229, 0.64926037, 0.73192671], "xyz": [5.80962625779762, 6.508936493867721, 29.770327899458163], "label": "S", "properties": {}}, {"species": [{"element": "S", "occu": 1}], "abc": [0.37755156, 0.14594565, 0.72659762], "xyz": [2.6451805958211003, 1.4631279087714002, 29.553572923122186], "label": "S", "properties": {}}, {"species": [{"element": "S", "occu": 1}], "abc": [0.52367392, 0.47528417, 0.68337393], "xyz": [3.6687400736690203, 4.7647979485805205, 27.795496046375153], "label": "S", "properties": {}}, {"species": [{"element": "S", "occu": 1}], "abc": [0.32708141, 0.14833024, 0.64411777], "xyz": [2.2915638248608405, 1.4870337955174402, 26.198794164470073], "label": "S", "properties": {}}, {"species": [{"element": "S", "occu": 1}], "abc": [0.87923915, 0.65624268, 0.64964406], "xyz": [6.1598502080694795, 6.578935240858081, 26.42357003768215], "label": "S", "properties": {}}, {"species": [{"element": "S", "occu": 1}], "abc": [0.0131241, 0.81065757, 0.8146628], "xyz": [0.09137414721702, 8.12696860183092, 33.1355289431789], "label": "S", "properties": {}}, {"species": [{"element": "S", "occu": 1}], "abc": [0.51975669, 0.31891257, 0.80841353], "xyz": [3.6414059643748207, 3.19714826461092, 32.881346639827456], "label": "S", "properties": {}}, {"species": [{"element": "S", "occu": 1}], "abc": [0.01696961, 0.47367813, 0.81656315], "xyz": [0.11855800871138, 4.74869714703828, 33.21282362562564], "label": "S", "properties": {}}, {"species": [{"element": "S", "occu": 1}], "abc": [0.82678478, 0.14482569, 0.85582315], "xyz": [5.79269801274494, 1.4519001350576402, 34.80968169538063], "label": "S", "properties": {}}, {"species": [{"element": "S", "occu": 1}], "abc": [0.38072632, 0.64766237, 0.85024432], "xyz": [2.6670660720422203, 6.492916294579721, 34.58276881445116], "label": "S", "properties": {}}, {"species": [{"element": "S", "occu": 1}], "abc": [0.50819972, 0.98210717, 0.80834286], "xyz": [3.5599594576830205, 9.845777587968522, 32.878472213954055], "label": "S", "properties": {}}, {"species": [{"element": "S", "occu": 1}], "abc": [0.32761783, 0.64170303, 0.7679553], "xyz": [2.29496994050518, 6.43317298142268, 31.235751859809522], "label": "S", "properties": {}}, {"species": [{"element": "S", "occu": 1}], "abc": [0.87979058, 0.14574436, 0.77331877], "xyz": [6.16407825405056, 1.4611099451201601, 31.45390520548932], "label": "S", "properties": {}}, {"species": [{"element": "S", "occu": 1}], "abc": [0.99274287, 0.313002, 0.93737451], "xyz": [6.955350015797401, 3.1378938783120005, 38.12669512674832], "label": "S", "properties": {}}, {"species": [{"element": "S", "occu": 1}], "abc": [0.51712791, 0.82872895, 0.92830937], "xyz": [3.6226236187119003, 8.3081370054662, 37.75798035439837], "label": "S", "properties": {}}, {"species": [{"element": "S", "occu": 1}], "abc": [0.01371408, 0.97725477, 0.93638143], "xyz": [0.09538884448782001, 9.797131520994121, 38.086302671019524], "label": "S", "properties": {}}, {"species": [{"element": "S", "occu": 1}], "abc": [0.80837517, 0.65969957, 0.97924695], "xyz": [5.66334493309842, 6.61359110238292, 39.829811370108786], "label": "S", "properties": {}}, {"species": [{"element": "S", "occu": 1}], "abc": [0.34935799, 0.1523701, 0.97802551], "xyz": [2.4476400160444003, 1.5275340222356002, 39.78013061818007], "label": "S", "properties": {}}, {"species": [{"element": "S", "occu": 1}], "abc": [0.49269481, 0.49374571, 0.93231685], "xyz": [3.45167423624326, 4.9498777670807605, 37.92098027231436], "label": "S", "properties": {}}, {"species": [{"element": "S", "occu": 1}], "abc": [0.33754436, 0.15815088, 0.89449066], "xyz": [2.3648646350628804, 1.58548724353728, 36.3824408747192], "label": "S", "properties": {}}, {"species": [{"element": "S", "occu": 1}], "abc": [0.87329097, 0.64413353, 0.89644659], "xyz": [6.11818340668698, 6.4575391230806805, 36.46199621359786], "label": "S", "properties": {}}]}, "formula": "", "bandgap": 2.3536}