{"miller": "110_0.25", "final_energy": -455.66019082, "gamma": 0.05665592750760637, "work_function": 4.460732134750299, "ionization_potentail": -4.812932134750299, "electron_affinity": -1.3675321347502987, "is_stochiometric": true, "incar_parameters": {"SYSTEM": "unknown system", "LCOMPAT": false, "PREC": "normal", "ENMAX": 520.0, "ENAUG": 628.945, "EDIFF": 1e-05, "IALGO": 38, "IWAVPR": 11, "NBANDS": 241, "NBANDSLOW": -1, "NBANDSHIGH": -1, "NELECT": 384.0, "TURBO": 0, "IRESTART": 0, "NREBOOT": 0, "NMIN": 0, "EREF": 0.0, "ISMEAR": 0, "SIGMA": 0.05, "KSPACING": 0.5, "KGAMMA": true, "KBLOWUP": true, "LREAL": true, "ROPT": [-0.0005, -0.0005], "LMAXPAW": -100, "LMAXMIX": 2, "NLSPLINE": false, "ISTART": 0, "ICHARG": 2, "INIWAV": 1, "ISPIN": 1, "LNONCOLLINEAR": false, "MAGMOM": [0.6, 0.6, 0.6, 0.6, 0.6, 0.6, 0.6, 0.6, 0.6, 0.6, 0.6, 0.6, 0.6, 0.6, 0.6, 0.6, 0.6, 0.6, 0.6, 0.6, 0.6, 0.6, 0.6, 0.6, 0.6, 0.6, 0.6, 0.6, 0.6, 0.6, 0.6, 0.6, 0.6, 0.6, 0.6, 0.6, 0.6, 0.6, 0.6, 0.6, 0.6, 0.6, 0.6, 0.6, 0.6, 0.6, 0.6, 0.6, 0.6, 0.6, 0.6, 0.6, 0.6, 0.6, 0.6, 0.6, 0.6, 0.6, 0.6, 0.6, 0.6, 0.6, 0.6, 0.6, 0.6, 0.6, 0.6, 0.6, 0.6, 0.6, 0.6, 0.6, 0.6, 0.6, 0.6, 0.6, 0.6, 0.6, 0.6, 0.6, 0.6, 0.6, 0.6, 0.6, 0.6, 0.6, 0.6, 0.6, 0.6, 0.6, 0.6, 0.6, 0.6, 0.6, 0.6, 0.6], "NUPDOWN": -1.0, "LSORBIT": false, "SAXIS": [0.0, 0.0, 1.0], "LSPIRAL": false, "QSPIRAL": [0.0, 0.0, 0.0], "LZEROZ": false, "LASPH": false, "LMETAGGA": false, "NELM": 100, "NELMDL": -5, "NELMIN": 6, "ENINI": 520.0, "LDIAG": true, "LSUBROT": false, "WEIMIN": 0.001, "EBREAK": 1e-08, "DEPER": 0.3, "NRMM": 4, "TIME": 0.4, "AMIX": 0.4, "BMIX": 1.0, "AMIN": 0.1, "AMIX_MAG": 1.6, "BMIX_MAG": 1.0, "IMIX": 4, "MIXFIRST": false, "MAXMIX": -45, "WC": 100.0, "INIMIX": 1, "MIXPRE": 1, "MREMOVE": 5, "LDIPOL": false, "LMONO": false, "IDIPOL": 0, "EPSILON": 1.0, "DIPOL": [-100.0, -100.0, -100.0], "EFIELD": 0.0, "NGX": 28, "NGY": 36, "NGZ": 240, "NGXF": 56, "NGYF": 72, "NGZF": 480, "ADDGRID": false, "NSW": 150, "IBRION": 2, "MDALGO": 0, "ISIF": 2, "PSTRESS": 0.0, "EDIFFG": -0.01, "NFREE": 1, "POTIM": 0.5, "SMASS": -3.0, "SCALEE": 1.0, "TEBEG": 0.0001, "TEEND": 0.0001, "NBLOCK": 1, "KBLOCK": 150, "NPACO": 256, "APACO": 10.0, "ISYM": 0, "SYMPREC": 1e-05, "LORBIT": 11, "RWIGS": [-1.0, -1.0], "NEDOS": 301, "EMIN": 10.0, "EMAX": -10.0, "EFERMI": 0.0, "NWRITE": 2, "LWAVE": false, "LDOWNSAMPLE": false, "LCHARG": false, "LPARD": false, "LVTOT": false, "LVHAR": false, "LELF": false, "LOPTICS": false, "STM": [0.0, 0.0, 0.0, 0.0, 0.0, 0.0, 0.0], "NPAR": 1, "NSIM": 4, "NBLK": -1, "LPLANE": true, "LSCALAPACK": true, "LSCAAWARE": false, "LSCALU": false, "LASYNC": false, "LORBITALREAL": false, "IDIOT": 3, "PHON_NSTRUCT": -1, "LMUSIC": false, "POMASS": [7.01, 16.0], "DARWINR": [0.0, 0.0], "DARWINV": [1.0, 1.0], "LCORR": true, "GGA_COMPAT": true, "LBERRY": false, "ICORELEVEL": 0, "LDAU": false, "I_CONSTRAINED_M": 0, "GGA": "--", "VOSKOWN": 0, "LHFCALC": false, "PRECFOCK": "", "LSYMGRAD": false, "LHFONE": false, "LRHFCALC": false, "LTHOMAS": false, "LMODELHF": false, "LFOCKACE": false, "ENCUT4O": -1.0, "EXXOEP": 0, "FOURORBIT": 0, "AEXX": 0.0, "HFALPHA": 0.0, "MCALPHA": 0.0, "ALDAX": 1.0, "AGGAX": 1.0, "ALDAC": 1.0, "AGGAC": 1.0, "NKREDX": 1, "NKREDY": 1, "NKREDZ": 1, "SHIFTRED": false, "ODDONLY": false, "EVENONLY": false, "LMAXFOCK": 0, "NMAXFOCKAE": 0, "LFOCKAEDFT": false, "HFSCREEN": 0.0, "HFSCREENC": 0.0, "NBANDSGWLOW": 0, "LUSE_VDW": false, "Zab_VDW": -0.8491, "PARAM1": 0.1234, "PARAM2": 1.0, "PARAM3": 0.0, "MODEL_GW": 0, "MODEL_EPS0": 8.0181911, "MODEL_ALPHA": 1.0, "LEPSILON": false, "LRPA": false, "LNABLA": false, "LVEL": false, "CSHIFT": 0.1, "OMEGAMAX": -1.0, "DEG_THRESHOLD": 0.002, "RTIME": -0.1, "WPLASMAI": 0.0, "DFIELD": [0.0, 0.0, 0.0], "WPLASMA": [0.0, 0.0, 0.0, 0.0, 0.0, 0.0, 0.0, 0.0, 0.0], "NUCIND": false, "MAGPOS": [0.0, 0.0, 0.0], "LNICSALL": true, "ORBITALMAG": false, "LMAGBLOCH": false, "LCHIMAG": false, "LGAUGE": true, "MAGATOM": 0, "MAGDIPOL": [0.0, 0.0, 0.0], "AVECCONST": [0.0, 0.0, 0.0], "LFINITE_TEMPERATURE": false, "LADDER": false, "LRPAFORCE": false, "LFXC": false, "LHARTREE": true, "IBSE": 0, "KPOINT": [-1, 0, 0, 0], "LTCTC": false, "LTCTE": false, "LTETE": false, "LTRIPLET": false, "LFXCEPS": false, "LFXHEG": false, "NATURALO": 2, "LHOLEGF": false, "L2ORDER": false, "LDMP1": false, "LMP2LT": false, "LSMP2LT": false, "LGWLF": false, "ENCUTGW": -2.0, "ENCUTGWSOFT": -2.0, "ENCUTLF": -1.0, "LESF_SPLINES": false, "LMAXMP2": -1, "SCISSOR": 0.0, "NOMEGA": 0, "NOMEGAR": 0, "NBANDSGW": -1, "NBANDSO": -1, "NBANDSV": -1, "NELMGW": 1, "NELMHF": 1, "DIM": 3, "IESPILON": 4, "ANTIRES": 0, "OMEGAMIN": -30.0, "OMEGATL": -200.0, "OMEGAGRID": 0, "LSELFENERGY": false, "LSPECTRAL": false, "LSPECTRALGW": false, "LSINGLES": false, "LFERMIGW": false, "ODDONLYGW": false, "EVENONLYGW": false, "NKREDLFX": 1, "NKREDLFY": 1, "NKREDLFZ": 1, "MAXMEM": 2800, "TELESCOPE": 0, "NTAUPAR": -1, "NOMEGAPAR": -1, "DAMP_NEWTON": 0.80000001, "LAMBDA": 1.0, "OFIELD_KAPPA": 0.0, "OFIELD_K": [0.0, 0.0, 0.0], "OFIELD_Q6_NEAR": 0.0, "OFIELD_Q6_FAR": 0.0, "OFIELD_A": 0.0, "KPOINTS_OPT_MODE": 1, "LKPOINTS_OPT": false, "@module": "pymatgen.io.vasp.inputs", "@class": "Incar"}, "relaxed_structures": {"@module": "pymatgen.core.structure", "@class": "Structure", "charge": 0, "lattice": {"matrix": [[4.62116, 0.0, 0.0], [0.0, 6.535307, 0.0], [0.0, 0.0, 42.479499]], "a": 4.62116, "b": 6.535307, "c": 42.479499, "alpha": 90.0, "beta": 90.0, "gamma": 90.0, "volume": 1282.9105755488301}, "sites": [{"species": [{"element": "Li", "occu": 1}], "abc": [0.77342279, 0.37499999, 9.99999999999994e-05], "xyz": [3.5741104602363998, 2.45074005964693, 0.004247949899999974], "label": "Li", "properties": {}}, {"species": [{"element": "Li", "occu": 1}], "abc": [0.2265772, 0.875, 0.00010003999999999916], "xyz": [1.047049493552, 5.718393625, 0.004249649079959964], "label": "Li", "properties": {}}, {"species": [{"element": "Li", "occu": 1}], "abc": [0.74972545, 0.12500002, 0.037995020000000004], "xyz": [3.464601260522, 0.81691350570614, 1.61400941409498], "label": "Li", "properties": {}}, {"species": [{"element": "Li", "occu": 1}], "abc": [0.25027449, 0.62499999, 0.03799503], "xyz": [1.1565584622084, 4.08456680964693, 1.6140098388899697], "label": "Li", "properties": {}}, {"species": [{"element": "Li", "occu": 1}], "abc": [0.7734228, 0.87500002, 9.99999999999994e-05], "xyz": [3.5741105064479997, 5.71839375570614, 0.004247949899999974], "label": "Li", "properties": {}}, {"species": [{"element": "Li", "occu": 1}], "abc": [0.22657718, 0.37499998, 0.00010003999999999916], "xyz": [1.0470494011287999, 2.45073999429386, 0.004249649079959964], "label": "Li", "properties": {}}, {"species": [{"element": "Li", "occu": 1}], "abc": [0.74972548, 0.62499999, 0.037995020000000004], "xyz": [3.4646013991568, 4.08456680964693, 1.61400941409498], "label": "Li", "properties": {}}, {"species": [{"element": "Li", "occu": 1}], "abc": [0.25027442, 0.125, 0.037995020000000004], "xyz": [1.1565581387272, 0.816913375, 1.61400941409498], "label": "Li", "properties": {}}, {"species": [{"element": "Li", "occu": 1}], "abc": [0.75097686, 0.87500001, 0.07636556], "xyz": [3.4703842263575995, 5.7183936903530705, 3.2439707296544396], "label": "Li", "properties": {}}, {"species": [{"element": "Li", "occu": 1}], "abc": [0.24902315, 0.37499998, 0.07636557], "xyz": [1.150775819854, 2.45073999429386, 3.2439711544494294], "label": "Li", "properties": {}}, {"species": [{"element": "Li", "occu": 1}], "abc": [0.74864828, 0.62499999, 0.11506702], "xyz": [3.4596234856048, 4.08456680964693, 4.88798936102298], "label": "Li", "properties": {}}, {"species": [{"element": "Li", "occu": 1}], "abc": [0.25135172, 0.125, 0.11506700999999998], "xyz": [1.1615365143952, 0.816913375, 4.887988936227989], "label": "Li", "properties": {}}, {"species": [{"element": "Li", "occu": 1}], "abc": [0.75097684, 0.375, 0.07636556], "xyz": [3.4703841339343997, 2.4507401250000003, 3.2439707296544396], "label": "Li", "properties": {}}, {"species": [{"element": "Li", "occu": 1}], "abc": [0.24902315, 0.875, 0.07636557], "xyz": [1.150775819854, 5.718393625, 3.2439711544494294], "label": "Li", "properties": {}}, {"species": [{"element": "Li", "occu": 1}], "abc": [0.74864829, 0.125, 0.11506702], "xyz": [3.4596235318164, 0.816913375, 4.88798936102298], "label": "Li", "properties": {}}, {"species": [{"element": "Li", "occu": 1}], "abc": [0.25135173, 0.62499999, 0.11506700999999998], "xyz": [1.1615365606068, 4.08456680964693, 4.887988936227989], "label": "Li", "properties": {}}, {"species": [{"element": "Li", "occu": 1}], "abc": [0.7511872, 0.375, 0.15358018], "xyz": [3.4713562411520003, 2.4507401250000003, 6.52400910272982], "label": "Li", "properties": {}}, {"species": [{"element": "Li", "occu": 1}], "abc": [0.24881279, 0.875, 0.1535802], "xyz": [1.1498037126364, 5.718393625, 6.524009952319799], "label": "Li", "properties": {}}, {"species": [{"element": "Li", "occu": 1}], "abc": [0.75008572, 0.125, 0.19196219], "xyz": [3.4662661258351997, 0.816913375, 8.15445765814281], "label": "Li", "properties": {}}, {"species": [{"element": "Li", "occu": 1}], "abc": [0.24991429, 0.625, 0.1919622], "xyz": [1.1548939203764, 4.084566875, 8.154458082937799], "label": "Li", "properties": {}}, {"species": [{"element": "Li", "occu": 1}], "abc": [0.7511872, 0.875, 0.15358018], "xyz": [3.4713562411520003, 5.718393625, 6.52400910272982], "label": "Li", "properties": {}}, {"species": [{"element": "Li", "occu": 1}], "abc": [0.24881279, 0.375, 0.1535802], "xyz": [1.1498037126364, 2.4507401250000003, 6.524009952319799], "label": "Li", "properties": {}}, {"species": [{"element": "Li", "occu": 1}], "abc": [0.75008572, 0.625, 0.19196219], "xyz": [3.4662661258351997, 4.084566875, 8.15445765814281], "label": "Li", "properties": {}}, {"species": [{"element": "Li", "occu": 1}], "abc": [0.24991429, 0.125, 0.1919622], "xyz": [1.1548939203764, 0.816913375, 8.154458082937799], "label": "Li", "properties": {}}, {"species": [{"element": "Li", "occu": 1}], "abc": [0.74986298, 0.875, 0.22987074000000002], "xyz": [3.4652368086567997, 5.718393625, 9.76479386995926], "label": "Li", "properties": {}}, {"species": [{"element": "Li", "occu": 1}], "abc": [0.25013701, 0.375, 0.22987074000000002], "xyz": [1.1559231451315999, 2.4507401250000003, 9.76479386995926], "label": "Li", "properties": {}}, {"species": [{"element": "Li", "occu": 1}], "abc": [0.74969497, 0.625, 0.26812771], "xyz": [3.4644604075651997, 4.084566875, 11.38993078881729], "label": "Li", "properties": {}}, {"species": [{"element": "Li", "occu": 1}], "abc": [0.25030503, 0.125, 0.26812771], "xyz": [1.1566995924347998, 0.816913375, 11.38993078881729], "label": "Li", "properties": {}}, {"species": [{"element": "Li", "occu": 1}], "abc": [0.74986299, 0.375, 0.22987074000000002], "xyz": [3.4652368548683996, 2.4507401250000003, 9.76479386995926], "label": "Li", "properties": {}}, {"species": [{"element": "Li", "occu": 1}], "abc": [0.250137, 0.875, 0.22987074000000002], "xyz": [1.15592309892, 5.718393625, 9.76479386995926], "label": "Li", "properties": {}}, {"species": [{"element": "Li", "occu": 1}], "abc": [0.74969497, 0.125, 0.26812771], "xyz": [3.4644604075651997, 0.816913375, 11.38993078881729], "label": "Li", "properties": {}}, {"species": [{"element": "Li", "occu": 1}], "abc": [0.25030503, 0.625, 0.26812771], "xyz": [1.1566995924347998, 4.084566875, 11.38993078881729], "label": "Li", "properties": {}}, {"species": [{"element": "Li", "occu": 1}], "abc": [0.75123102, 0.375, 0.30653477], "xyz": [3.4715587403831996, 2.4507401250000003, 13.02144345568023], "label": "Li", "properties": {}}, {"species": [{"element": "Li", "occu": 1}], "abc": [0.24876897, 0.875, 0.30653478], "xyz": [1.1496012134052, 5.718393625, 13.02144388047522], "label": "Li", "properties": {}}, {"species": [{"element": "Li", "occu": 1}], "abc": [0.74941825, 0.125, 0.34511677], "xyz": [3.4631816401699997, 0.816913375, 14.66038748609823], "label": "Li", "properties": {}}, {"species": [{"element": "Li", "occu": 1}], "abc": [0.25058174, 0.625, 0.34511677], "xyz": [1.1579783136183999, 4.084566875, 14.66038748609823], "label": "Li", "properties": {}}, {"species": [{"element": "Li", "occu": 1}], "abc": [0.75123102, 0.875, 0.30653477], "xyz": [3.4715587403831996, 5.718393625, 13.02144345568023], "label": "Li", "properties": {}}, {"species": [{"element": "Li", "occu": 1}], "abc": [0.24876897, 0.375, 0.30653478], "xyz": [1.1496012134052, 2.4507401250000003, 13.02144388047522], "label": "Li", "properties": {}}, {"species": [{"element": "Li", "occu": 1}], "abc": [0.74941825, 0.625, 0.34511677], "xyz": [3.4631816401699997, 4.084566875, 14.66038748609823], "label": "Li", "properties": {}}, {"species": [{"element": "Li", "occu": 1}], "abc": [0.25058174, 0.125, 0.34511677], "xyz": [1.1579783136183999, 0.816913375, 14.66038748609823], "label": "Li", "properties": {}}, {"species": [{"element": "Li", "occu": 1}], "abc": [0.74996737, 0.875, 0.38340902], "xyz": [3.4657192115492, 5.718393625, 16.287023081680978], "label": "Li", "properties": {}}, {"species": [{"element": "Li", "occu": 1}], "abc": [0.25003262, 0.375, 0.38340901], "xyz": [1.1554407422392, 2.4507401250000003, 16.287022656885988], "label": "Li", "properties": {}}, {"species": [{"element": "Li", "occu": 1}], "abc": [0.75009348, 0.625, 0.42139903], "xyz": [3.4663019860368, 4.084566875, 17.90081967348597], "label": "Li", "properties": {}}, {"species": [{"element": "Li", "occu": 1}], "abc": [0.24990653, 0.125, 0.42139904], "xyz": [1.1548580601748, 0.816913375, 17.90082009828096], "label": "Li", "properties": {}}, {"species": [{"element": "Li", "occu": 1}], "abc": [0.74996737, 0.375, 0.38340902], "xyz": [3.4657192115492, 2.4507401250000003, 16.287023081680978], "label": "Li", "properties": {}}, {"species": [{"element": "Li", "occu": 1}], "abc": [0.25003263, 0.875, 0.38340901], "xyz": [1.1554407884507998, 5.718393625, 16.287022656885988], "label": "Li", "properties": {}}, {"species": [{"element": "Li", "occu": 1}], "abc": [0.75009348, 0.125, 0.42139903], "xyz": [3.4663019860368, 0.816913375, 17.90081967348597], "label": "Li", "properties": {}}, {"species": [{"element": "Li", "occu": 1}], "abc": [0.24990652, 0.625, 0.42139904], "xyz": [1.1548580139631999, 4.084566875, 17.90082009828096], "label": "Li", "properties": {}}, {"species": [{"element": "Li", "occu": 1}], "abc": [0.7498923, 0.375, 0.45949229], "xyz": [3.4653723010679998, 2.4507401250000003, 19.51900227356271], "label": "Li", "properties": {}}, {"species": [{"element": "Li", "occu": 1}], "abc": [0.25010771, 0.875, 0.45949229], "xyz": [1.1557877451435998, 5.718393625, 19.51900227356271], "label": "Li", "properties": {}}, {"species": [{"element": "Li", "occu": 1}], "abc": [0.7486706, 0.125, 0.49782535000000006], "xyz": [3.4597266298959997, 0.816913375, 21.147371457499652], "label": "Li", "properties": {}}, {"species": [{"element": "Li", "occu": 1}], "abc": [0.2513294, 0.625, 0.49782534], "xyz": [1.1614333701039998, 4.084566875, 21.14737103270466], "label": "Li", "properties": {}}, {"species": [{"element": "Li", "occu": 1}], "abc": [0.7498923, 0.875, 0.45949229], "xyz": [3.4653723010679998, 5.718393625, 19.51900227356271], "label": "Li", "properties": {}}, {"species": [{"element": "Li", "occu": 1}], "abc": [0.25010771, 0.375, 0.45949229], "xyz": [1.1557877451435998, 2.4507401250000003, 19.51900227356271], "label": "Li", "properties": {}}, {"species": [{"element": "Li", "occu": 1}], "abc": [0.7486706, 0.625, 0.49782535000000006], "xyz": [3.4597266298959997, 4.084566875, 21.147371457499652], "label": "Li", "properties": {}}, {"species": [{"element": "Li", "occu": 1}], "abc": [0.2513294, 0.125, 0.49782534], "xyz": [1.1614333701039998, 0.816913375, 21.14737103270466], "label": "Li", "properties": {}}, {"species": [{"element": "Li", "occu": 1}], "abc": [0.75128774, 0.875, 0.53661634], "xyz": [3.4718208525783996, 5.718393625, 22.79519327841366], "label": "Li", "properties": {}}, {"species": [{"element": "Li", "occu": 1}], "abc": [0.24871225, 0.37499999, 0.53661635], "xyz": [1.1493391012099998, 2.45074005964693, 22.795193703208646], "label": "Li", "properties": {}}, {"species": [{"element": "Li", "occu": 1}], "abc": [0.72633901, 0.625, 0.5741376300000001], "xyz": [3.3565287794515997, 4.084566875, 24.38907887944737], "label": "Li", "properties": {}}, {"species": [{"element": "Li", "occu": 1}], "abc": [0.27366108, 0.125, 0.57413758], "xyz": [1.2646316364527999, 0.816913375, 24.38907675547242], "label": "Li", "properties": {}}, {"species": [{"element": "Li", "occu": 1}], "abc": [0.75128774, 0.375, 0.53661634], "xyz": [3.4718208525783996, 2.4507401250000003, 22.79519327841366], "label": "Li", "properties": {}}, {"species": [{"element": "Li", "occu": 1}], "abc": [0.24871225, 0.87500001, 0.53661635], "xyz": [1.1493391012099998, 5.7183936903530705, 22.795193703208646], "label": "Li", "properties": {}}, {"species": [{"element": "Li", "occu": 1}], "abc": [0.72633901, 0.125, 0.5741376300000001], "xyz": [3.3565287794515997, 0.816913375, 24.38907887944737], "label": "Li", "properties": {}}, {"species": [{"element": "Li", "occu": 1}], "abc": [0.27366108, 0.625, 0.57413757], "xyz": [1.2646316364527999, 4.084566875, 24.389076330677426], "label": "Li", "properties": {}}, {"species": [{"element": "O", "occu": 1}], "abc": [0.50000004, 0.37500001, 0.036698610000000007], "xyz": [2.3105801848464, 2.4507401903530703, 1.5589385667963902], "label": "O", "properties": {}}, {"species": [{"element": "O", "occu": 1}], "abc": [0.99999995, 0.62500001, 0.0017541400000000013], "xyz": [4.621159768941999, 4.084566940353071, 0.07451498837586004], "label": "O", "properties": {}}, {"species": [{"element": "O", "occu": 1}], "abc": [0.99999996, 0.12499999, 0.0017541400000000013], "xyz": [4.6211598151536, 0.8169133096469301, 0.07451498837586004], "label": "O", "properties": {}}, {"species": [{"element": "O", "occu": 1}], "abc": [0.50000002, 0.875, 0.036698610000000007], "xyz": [2.3105800924231996, 5.718393625, 1.5589385667963902], "label": "O", "properties": {}}, {"species": [{"element": "O", "occu": 1}], "abc": [0.49999999, 0.87500001, 0.11490751], "xyz": [2.3105799537884, 5.7183936903530705, 4.88121345613749], "label": "O", "properties": {}}, {"species": [{"element": "O", "occu": 1}], "abc": [2e-08, 0.125, 0.07687648999999999], "xyz": [9.242319999999999e-08, 0.816913375, 3.2656747800785095], "label": "O", "properties": {}}, {"species": [{"element": "O", "occu": 1}], "abc": [0.0, 0.62500001, 0.0768765], "xyz": [0.0, 4.084566940353071, 3.2656752048735], "label": "O", "properties": {}}, {"species": [{"element": "O", "occu": 1}], "abc": [0.5, 0.375, 0.11490751], "xyz": [2.31058, 2.4507401250000003, 4.88121345613749], "label": "O", "properties": {}}, {"species": [{"element": "O", "occu": 1}], "abc": [0.49999998, 0.375, 0.1917895], "xyz": [2.3105799075768, 2.4507401250000003, 8.147121873460499], "label": "O", "properties": {}}, {"species": [{"element": "O", "occu": 1}], "abc": [0.0, 0.625, 0.15361487000000001], "xyz": [0.0, 4.084566875, 6.525482716550131], "label": "O", "properties": {}}, {"species": [{"element": "O", "occu": 1}], "abc": [0.0, 0.125, 0.15361487000000001], "xyz": [0.0, 0.816913375, 6.525482716550131], "label": "O", "properties": {}}, {"species": [{"element": "O", "occu": 1}], "abc": [0.49999999, 0.875, 0.1917895], "xyz": [2.3105799537884, 5.718393625, 8.147121873460499], "label": "O", "properties": {}}, {"species": [{"element": "O", "occu": 1}], "abc": [0.49999998, 0.875, 0.26818606], "xyz": [2.3105799075768, 5.718393625, 11.39240946758394], "label": "O", "properties": {}}, {"species": [{"element": "O", "occu": 1}], "abc": [0.99999998, 0.125, 0.23001619], "xyz": [4.6211599075768, 0.816913375, 9.77097251308881], "label": "O", "properties": {}}, {"species": [{"element": "O", "occu": 1}], "abc": [0.99999998, 0.62499999, 0.23001619], "xyz": [4.6211599075768, 4.08456680964693, 9.77097251308881], "label": "O", "properties": {}}, {"species": [{"element": "O", "occu": 1}], "abc": [0.49999997, 0.375, 0.26818606], "xyz": [2.3105798613651998, 2.4507401250000003, 11.39240946758394], "label": "O", "properties": {}}, {"species": [{"element": "O", "occu": 1}], "abc": [0.49999999, 0.375, 0.34502769], "xyz": [2.3105799537884, 2.4507401250000003, 14.656603412327309], "label": "O", "properties": {}}, {"species": [{"element": "O", "occu": 1}], "abc": [0.99999998, 0.62499999, 0.30662402], "xyz": [4.6211599075768, 4.08456680964693, 13.025234750965978], "label": "O", "properties": {}}, {"species": [{"element": "O", "occu": 1}], "abc": [0.99999999, 0.12500001, 0.30662402], "xyz": [4.6211599537884, 0.81691344035307, 13.025234750965978], "label": "O", "properties": {}}, {"species": [{"element": "O", "occu": 1}], "abc": [0.49999999, 0.875, 0.34502769], "xyz": [2.3105799537884, 5.718393625, 14.656603412327309], "label": "O", "properties": {}}, {"species": [{"element": "O", "occu": 1}], "abc": [0.50000001, 0.875, 0.42138537000000004], "xyz": [2.3105800462116, 5.718393625, 17.900239403529632], "label": "O", "properties": {}}, {"species": [{"element": "O", "occu": 1}], "abc": [0.0, 0.125, 0.38336023], "xyz": [0.0, 0.816913375, 16.28495050692477], "label": "O", "properties": {}}, {"species": [{"element": "O", "occu": 1}], "abc": [0.0, 0.625, 0.38336023], "xyz": [0.0, 4.084566875, 16.28495050692477], "label": "O", "properties": {}}, {"species": [{"element": "O", "occu": 1}], "abc": [0.50000001, 0.375, 0.42138537000000004], "xyz": [2.3105800462116, 2.4507401250000003, 17.900239403529632], "label": "O", "properties": {}}, {"species": [{"element": "O", "occu": 1}], "abc": [0.50000002, 0.375, 0.49757461000000003], "xyz": [2.3105800924231996, 2.4507401250000003, 21.13672014792039], "label": "O", "properties": {}}, {"species": [{"element": "O", "occu": 1}], "abc": [2e-08, 0.625, 0.45973231000000003], "xyz": [9.242319999999999e-08, 4.084566875, 19.52919820291269], "label": "O", "properties": {}}, {"species": [{"element": "O", "occu": 1}], "abc": [2e-08, 0.125, 0.45973231000000003], "xyz": [9.242319999999999e-08, 0.816913375, 19.52919820291269], "label": "O", "properties": {}}, {"species": [{"element": "O", "occu": 1}], "abc": [0.50000003, 0.875, 0.49757461000000003], "xyz": [2.3105801386348, 5.718393625, 21.13672014792039], "label": "O", "properties": {}}, {"species": [{"element": "O", "occu": 1}], "abc": [0.50000004, 0.87500001, 0.57270611], "xyz": [2.3105801848464, 5.7183936903530705, 24.32826862703889], "label": "O", "properties": {}}, {"species": [{"element": "O", "occu": 1}], "abc": [3e-08, 0.125, 0.53775852], "xyz": [1.3863479999999999e-07, 0.816913375, 22.84371251258148], "label": "O", "properties": {}}, {"species": [{"element": "O", "occu": 1}], "abc": [2e-08, 0.625, 0.53775852], "xyz": [9.242319999999999e-08, 4.084566875, 22.84371251258148], "label": "O", "properties": {}}, {"species": [{"element": "O", "occu": 1}], "abc": [0.50000004, 0.37499999, 0.57270611], "xyz": [2.3105801848464, 2.45074005964693, 24.32826862703889], "label": "O", "properties": {}}]}, "formula": "(Li2O)32.0", "bandgap": 3.4454000000000002, "slab_thickness": 24.38483092954737}