{"miller": "111_1.00", "final_energy": -571.56290727, "gamma": 0.030955221286630124, "work_function": 3.57829015084649, "ionization_potentail": -3.8912901508464897, "electron_affinity": -0.8773901508464896, "is_stochiometric": true, "incar_parameters": {"SYSTEM": "unknown system", "LCOMPAT": false, "PREC": "normal", "ENMAX": 520.0, "ENAUG": 628.945, "EDIFF": 1e-05, "IALGO": 38, "IWAVPR": 11, "NBANDS": 301, "NBANDSLOW": -1, "NBANDSHIGH": -1, "NELECT": 480.0, "TURBO": 0, "IRESTART": 0, "NREBOOT": 0, "NMIN": 0, "EREF": 0.0, "ISMEAR": 0, "SIGMA": 0.05, "KSPACING": 0.5, "KGAMMA": true, "KBLOWUP": true, "LREAL": true, "ROPT": [-0.0005, -0.0005], "LMAXPAW": -100, "LMAXMIX": 2, "NLSPLINE": false, "ISTART": 0, "ICHARG": 2, "INIWAV": 1, "ISPIN": 1, "LNONCOLLINEAR": false, "MAGMOM": [0.6, 0.6, 0.6, 0.6, 0.6, 0.6, 0.6, 0.6, 0.6, 0.6, 0.6, 0.6, 0.6, 0.6, 0.6, 0.6, 0.6, 0.6, 0.6, 0.6, 0.6, 0.6, 0.6, 0.6, 0.6, 0.6, 0.6, 0.6, 0.6, 0.6, 0.6, 0.6, 0.6, 0.6, 0.6, 0.6, 0.6, 0.6, 0.6, 0.6, 0.6, 0.6, 0.6, 0.6, 0.6, 0.6, 0.6, 0.6, 0.6, 0.6, 0.6, 0.6, 0.6, 0.6, 0.6, 0.6, 0.6, 0.6, 0.6, 0.6, 0.6, 0.6, 0.6, 0.6, 0.6, 0.6, 0.6, 0.6, 0.6, 0.6, 0.6, 0.6, 0.6, 0.6, 0.6, 0.6, 0.6, 0.6, 0.6, 0.6, 0.6, 0.6, 0.6, 0.6, 0.6, 0.6, 0.6, 0.6, 0.6, 0.6, 0.6, 0.6, 0.6, 0.6, 0.6, 0.6, 0.6, 0.6, 0.6, 0.6, 0.6, 0.6, 0.6, 0.6, 0.6, 0.6, 0.6, 0.6, 0.6, 0.6, 0.6, 0.6, 0.6, 0.6, 0.6, 0.6, 0.6, 0.6, 0.6, 0.6], "NUPDOWN": -1.0, "LSORBIT": false, "SAXIS": [0.0, 0.0, 1.0], "LSPIRAL": false, "QSPIRAL": [0.0, 0.0, 0.0], "LZEROZ": false, "LASPH": false, "LMETAGGA": false, "NELM": 100, "NELMDL": -5, "NELMIN": 6, "ENINI": 520.0, "LDIAG": true, "LSUBROT": false, "WEIMIN": 0.001, "EBREAK": 1e-08, "DEPER": 0.3, "NRMM": 4, "TIME": 0.4, "AMIX": 0.4, "BMIX": 1.0, "AMIN": 0.1, "AMIX_MAG": 1.6, "BMIX_MAG": 1.0, "IMIX": 4, "MIXFIRST": false, "MAXMIX": -45, "WC": 100.0, "INIMIX": 1, "MIXPRE": 1, "MREMOVE": 5, "LDIPOL": false, "LMONO": false, "IDIPOL": 0, "EPSILON": 1.0, "DIPOL": [-100.0, -100.0, -100.0], "EFIELD": 0.0, "NGX": 36, "NGY": 36, "NGZ": 240, "NGXF": 72, "NGYF": 72, "NGZF": 480, "ADDGRID": false, "NSW": 150, "IBRION": 2, "MDALGO": 0, "ISIF": 2, "PSTRESS": 0.0, "EDIFFG": -0.01, "NFREE": 1, "POTIM": 0.5, "SMASS": -3.0, "SCALEE": 1.0, "TEBEG": 0.0001, "TEEND": 0.0001, "NBLOCK": 1, "KBLOCK": 150, "NPACO": 256, "APACO": 10.0, "ISYM": 0, "SYMPREC": 1e-05, "LORBIT": 11, "RWIGS": [-1.0, -1.0], "NEDOS": 301, "EMIN": 10.0, "EMAX": -10.0, "EFERMI": 0.0, "NWRITE": 2, "LWAVE": false, "LDOWNSAMPLE": false, "LCHARG": false, "LPARD": false, "LVTOT": false, "LVHAR": false, "LELF": false, "LOPTICS": false, "STM": [0.0, 0.0, 0.0, 0.0, 0.0, 0.0, 0.0], "NPAR": 1, "NSIM": 4, "NBLK": -1, "LPLANE": true, "LSCALAPACK": true, "LSCAAWARE": false, "LSCALU": false, "LASYNC": false, "LORBITALREAL": false, "IDIOT": 3, "PHON_NSTRUCT": -1, "LMUSIC": false, "POMASS": [7.01, 16.0], "DARWINR": [0.0, 0.0], "DARWINV": [1.0, 1.0], "LCORR": true, "GGA_COMPAT": true, "LBERRY": false, "ICORELEVEL": 0, "LDAU": false, "I_CONSTRAINED_M": 0, "GGA": "--", "VOSKOWN": 0, "LHFCALC": false, "PRECFOCK": "", "LSYMGRAD": false, "LHFONE": false, "LRHFCALC": false, "LTHOMAS": false, "LMODELHF": false, "LFOCKACE": false, "ENCUT4O": -1.0, "EXXOEP": 0, "FOURORBIT": 0, "AEXX": 0.0, "HFALPHA": 0.0, "MCALPHA": 0.0, "ALDAX": 1.0, "AGGAX": 1.0, "ALDAC": 1.0, "AGGAC": 1.0, "NKREDX": 1, "NKREDY": 1, "NKREDZ": 1, "SHIFTRED": false, "ODDONLY": false, "EVENONLY": false, "LMAXFOCK": 0, "NMAXFOCKAE": 0, "LFOCKAEDFT": false, "HFSCREEN": 0.0, "HFSCREENC": 0.0, "NBANDSGWLOW": 0, "LUSE_VDW": false, "Zab_VDW": -0.8491, "PARAM1": 0.1234, "PARAM2": 1.0, "PARAM3": 0.0, "MODEL_GW": 0, "MODEL_EPS0": 7.89483428, "MODEL_ALPHA": 1.0, "LEPSILON": false, "LRPA": false, "LNABLA": false, "LVEL": false, "CSHIFT": 0.1, "OMEGAMAX": -1.0, "DEG_THRESHOLD": 0.002, "RTIME": -0.1, "WPLASMAI": 0.0, "DFIELD": [0.0, 0.0, 0.0], "WPLASMA": [0.0, 0.0, 0.0, 0.0, 0.0, 0.0, 0.0, 0.0, 0.0], "NUCIND": false, "MAGPOS": [0.0, 0.0, 0.0], "LNICSALL": true, "ORBITALMAG": false, "LMAGBLOCH": false, "LCHIMAG": false, "LGAUGE": true, "MAGATOM": 0, "MAGDIPOL": [0.0, 0.0, 0.0], "AVECCONST": [0.0, 0.0, 0.0], "LFINITE_TEMPERATURE": false, "LADDER": false, "LRPAFORCE": false, "LFXC": false, "LHARTREE": true, "IBSE": 0, "KPOINT": [-1, 0, 0, 0], "LTCTC": false, "LTCTE": false, "LTETE": false, "LTRIPLET": false, "LFXCEPS": false, "LFXHEG": false, "NATURALO": 2, "LHOLEGF": false, "L2ORDER": false, "LDMP1": false, "LMP2LT": false, "LSMP2LT": false, "LGWLF": false, "ENCUTGW": -2.0, "ENCUTGWSOFT": -2.0, "ENCUTLF": -1.0, "LESF_SPLINES": false, "LMAXMP2": -1, "SCISSOR": 0.0, "NOMEGA": 0, "NOMEGAR": 0, "NBANDSGW": -1, "NBANDSO": -1, "NBANDSV": -1, "NELMGW": 1, "NELMHF": 1, "DIM": 3, "IESPILON": 4, "ANTIRES": 0, "OMEGAMIN": -30.0, "OMEGATL": -200.0, "OMEGAGRID": 0, "LSELFENERGY": false, "LSPECTRAL": false, "LSPECTRALGW": false, "LSINGLES": false, "LFERMIGW": false, "ODDONLYGW": false, "EVENONLYGW": false, "NKREDLFX": 1, "NKREDLFY": 1, "NKREDLFZ": 1, "MAXMEM": 2800, "TELESCOPE": 0, "NTAUPAR": -1, "NOMEGAPAR": -1, "DAMP_NEWTON": 0.80000001, "LAMBDA": 1.0, "OFIELD_KAPPA": 0.0, "OFIELD_K": [0.0, 0.0, 0.0], "OFIELD_Q6_NEAR": 0.0, "OFIELD_Q6_FAR": 0.0, "OFIELD_A": 0.0, "KPOINTS_OPT_MODE": 1, "LKPOINTS_OPT": false, "@module": "pymatgen.io.vasp.inputs", "@class": "Incar"}, "relaxed_structures": {"@module": "pymatgen.core.structure", "@class": "Structure", "charge": 0, "lattice": {"matrix": [[6.535307, 0.0, 0.0], [3.267654, 5.659742, 0.0], [0.0, 0.0, 42.68845]], "a": 6.535307, "b": 6.535307350865757, "c": 42.68845, "alpha": 90.0, "beta": 90.0, "gamma": 59.99999671428027, "volume": 1578.9668563609541}, "sites": [{"species": [{"element": "Li", "occu": 1}], "abc": [0.99995295, 0.99995275, 0.030472579999999996], "xyz": [9.80249911715415, 5.659474577190499, 1.300827207701], "label": "Li", "properties": {}}, {"species": [{"element": "Li", "occu": 1}], "abc": [0.66660876, 0.66660855, 0.00010048999999999822], "xyz": [6.53473899033102, 3.7728324079940996, 0.004289762340499924], "label": "Li", "properties": {}}, {"species": [{"element": "Li", "occu": 1}], "abc": [0.16660876, 0.16660855, 0.00010048999999999822], "xyz": [1.6332584903310199, 0.9429614079940999, 0.004289762340499924], "label": "Li", "properties": {}}, {"species": [{"element": "Li", "occu": 1}], "abc": [0.49995294, 0.49995276, 0.030472579999999996], "xyz": [4.901018584477621, 2.8296036337879196, 1.300827207701], "label": "Li", "properties": {}}, {"species": [{"element": "Li", "occu": 1}], "abc": [0.49994862, 0.99994844, 0.03047256], "xyz": [6.5348032356861, 5.6594501837024795, 1.300826353932], "label": "Li", "properties": {}}, {"species": [{"element": "Li", "occu": 1}], "abc": [0.16660752, 0.6666073, 9.99999999999994e-05], "xyz": [3.26707330198284, 3.7728253333165997, 0.004268844999999974], "label": "Li", "properties": {}}, {"species": [{"element": "Li", "occu": 1}], "abc": [0.66660751, 0.1666073, 9.99999999999994e-05], "xyz": [4.90089973662977, 0.9429543333166001, 0.004268844999999974], "label": "Li", "properties": {}}, {"species": [{"element": "Li", "occu": 1}], "abc": [0.99994863, 0.49994844, 0.030472549999999998], "xyz": [8.16862980103917, 2.8295791837024797, 1.3008259270475], "label": "Li", "properties": {}}, {"species": [{"element": "Li", "occu": 1}], "abc": [0.66663509, 0.66663496, 0.09307506], "xyz": [6.53499736370647, 3.7729818817803196, 3.9732300450570004], "label": "Li", "properties": {}}, {"species": [{"element": "Li", "occu": 1}], "abc": [0.33329522, 0.33329497, 0.06216473], "xyz": [3.2672792262329207, 1.88636354009774, 2.6537159683685], "label": "Li", "properties": {}}, {"species": [{"element": "Li", "occu": 1}], "abc": [0.83329517, 0.83329501, 0.06216473], "xyz": [8.16875953017373, 4.716234766487419, 2.6537159683685], "label": "Li", "properties": {}}, {"species": [{"element": "Li", "occu": 1}], "abc": [0.16663515, 0.1666349, 0.09307506], "xyz": [1.63351705976565, 0.9431105421957999, 3.9732300450570004], "label": "Li", "properties": {}}, {"species": [{"element": "Li", "occu": 1}], "abc": [0.16664293, 0.66664274, 0.0930753], "xyz": [3.26742052286147, 3.77302591457308, 3.973240290285], "label": "Li", "properties": {}}, {"species": [{"element": "Li", "occu": 1}], "abc": [0.83330076, 0.33330054, 0.062164269999999994], "xyz": [6.53498713266648, 1.8863950648606798, 2.6536963316815], "label": "Li", "properties": {}}, {"species": [{"element": "Li", "occu": 1}], "abc": [0.33330076, 0.83330057, 0.062164269999999994], "xyz": [4.9011607306961, 4.71626623465294, 2.6536963316815], "label": "Li", "properties": {}}, {"species": [{"element": "Li", "occu": 1}], "abc": [0.66664294, 0.16664276, 0.0930753], "xyz": [4.9012471535676205, 0.9431550277679199, 3.973240290285], "label": "Li", "properties": {}}, {"species": [{"element": "Li", "occu": 1}], "abc": [0.33329961, 0.33329931, 0.15558393], "xyz": [3.2673220978490103, 1.8863881033780199, 6.641636816608501], "label": "Li", "properties": {}}, {"species": [{"element": "Li", "occu": 1}], "abc": [0.9999674, 0.99996716, 0.12469017], "xyz": [9.80264063923444, 5.659556134072719, 5.3228300875365], "label": "Li", "properties": {}}, {"species": [{"element": "Li", "occu": 1}], "abc": [0.49996736, 0.49996721, 0.12469017], "xyz": [4.901160041204861, 2.8296854170598196, 5.3228300875365], "label": "Li", "properties": {}}, {"species": [{"element": "Li", "occu": 1}], "abc": [0.83329951, 0.83329942, 0.15558394], "xyz": [8.16880230376025, 4.71625972594964, 6.641637243493], "label": "Li", "properties": {}}, {"species": [{"element": "Li", "occu": 1}], "abc": [0.83329074, 0.33329054, 0.15557801000000002], "xyz": [6.534888972350341, 1.88633846744068, 6.641384100984501], "label": "Li", "properties": {}}, {"species": [{"element": "Li", "occu": 1}], "abc": [0.49997688, 0.99997669, 0.12469016000000001], "xyz": [6.53508023468742, 5.659610071413979, 5.322829660652001], "label": "Li", "properties": {}}, {"species": [{"element": "Li", "occu": 1}], "abc": [0.9999769, 0.4999767, 0.12469019999999999], "xyz": [8.1689068980701, 2.8297391280113997, 5.32283136819], "label": "Li", "properties": {}}, {"species": [{"element": "Li", "occu": 1}], "abc": [0.33329079, 0.83329061, 0.15557806000000002], "xyz": [4.90106302785147, 4.71620986362262, 6.641386235407001], "label": "Li", "properties": {}}, {"species": [{"element": "Li", "occu": 1}], "abc": [7.2e-07, 3.9e-07, 0.21805133000000002], "xyz": [5.9798061e-06, 2.20729938e-06, 9.308273298138502], "label": "Li", "properties": {}}, {"species": [{"element": "Li", "occu": 1}], "abc": [0.66661253, 0.66661283, 0.18715579000000002], "xyz": [6.53477761399753, 3.77285663168986, 7.989390583625501], "label": "Li", "properties": {}}, {"species": [{"element": "Li", "occu": 1}], "abc": [0.16661302, 0.16661234, 0.18715579000000002], "xyz": [1.6332987151475, 0.9429828584162799, 7.989390583625501], "label": "Li", "properties": {}}, {"species": [{"element": "Li", "occu": 1}], "abc": [0.50000057, 0.50000053, 0.21805133000000002], "xyz": [4.90148595698161, 2.82987399966326, 9.308273298138502], "label": "Li", "properties": {}}, {"species": [{"element": "Li", "occu": 1}], "abc": [0.49984747, 0.99984727, 0.218005], "xyz": [6.53381160082787, 5.65887758760434, 9.30629554225], "label": "Li", "properties": {}}, {"species": [{"element": "Li", "occu": 1}], "abc": [0.16666364, 0.66666345, 0.18717098000000001], "xyz": [3.26762354218378, 3.7731431278299, 7.990039021181001], "label": "Li", "properties": {}}, {"species": [{"element": "Li", "occu": 1}], "abc": [0.66666348, 0.16666326, 0.18717096], "xyz": [4.901448375680401, 0.94327105247892, 7.990038167412001], "label": "Li", "properties": {}}, {"species": [{"element": "Li", "occu": 1}], "abc": [0.99984733, 0.49984715, 0.21800501], "xyz": [8.16763679376641, 2.8290059084353, 9.306295969134501], "label": "Li", "properties": {}}, {"species": [{"element": "Li", "occu": 1}], "abc": [0.66668707, 0.66668713, 0.28042858], "xyz": [6.5355075424735105, 3.77327715052046, 11.971061415901], "label": "Li", "properties": {}}, {"species": [{"element": "Li", "occu": 1}], "abc": [0.33260944, 0.33260933, 0.24928503999999999], "xyz": [3.2605570091099, 1.8824829945928598, 10.641591965788], "label": "Li", "properties": {}}, {"species": [{"element": "Li", "occu": 1}], "abc": [0.83260953, 0.83260924, 0.24928503999999999], "xyz": [8.162037803198672, 4.71235348521608, 10.641591965788], "label": "Li", "properties": {}}, {"species": [{"element": "Li", "occu": 1}], "abc": [0.16668731, 0.16668687, 0.28042857], "xyz": [1.63402776135715, 0.9434046789875399, 11.9710609890165], "label": "Li", "properties": {}}, {"species": [{"element": "Li", "occu": 1}], "abc": [0.16657684, 0.66657665, 0.28037646], "xyz": [3.26677264516898, 3.7726518622242997, 11.968836493887], "label": "Li", "properties": {}}, {"species": [{"element": "Li", "occu": 1}], "abc": [0.8332714, 0.33327119, 0.24961009000000003], "xyz": [6.534699350408061, 1.8862289514329798, 10.655467846460501], "label": "Li", "properties": {}}, {"species": [{"element": "Li", "occu": 1}], "abc": [0.33327161, 0.8332714, 0.24961011000000002], "xyz": [4.90087490902987, 4.716101139978799, 10.655468700229502], "label": "Li", "properties": {}}, {"species": [{"element": "Li", "occu": 1}], "abc": [0.66657673, 0.16657655, 0.28037636], "xyz": [4.90059809951981, 0.9427802962500998, 11.968832225042], "label": "Li", "properties": {}}, {"species": [{"element": "Li", "occu": 1}], "abc": [0.33410195, 0.33410252, 0.34244207], "xyz": [3.27519024843673, 1.89093406474984, 14.618321183091501], "label": "Li", "properties": {}}, {"species": [{"element": "Li", "occu": 1}], "abc": [0.00010893, 0.00010783, 0.31135478], "xyz": [0.00106424212233, 0.00061028997986, 13.291252958291], "label": "Li", "properties": {}}, {"species": [{"element": "Li", "occu": 1}], "abc": [0.50010805, 0.50010878, 0.31135477], "xyz": [4.90254209532347, 2.83048666673476, 13.291252531406501], "label": "Li", "properties": {}}, {"species": [{"element": "Li", "occu": 1}], "abc": [0.83410269, 0.83410177, 0.34244209], "xyz": [8.17667313382341, 4.7208008199433396, 14.6183220368605], "label": "Li", "properties": {}}, {"species": [{"element": "Li", "occu": 1}], "abc": [0.83412371, 0.33412351, 0.34242944], "xyz": [6.54305454477451, 1.8910528627344199, 14.617782027968], "label": "Li", "properties": {}}, {"species": [{"element": "Li", "occu": 1}], "abc": [0.50023851, 0.00023829, 0.31136886999999996], "xyz": [3.26999088534423, 0.0013486599211799998, 13.2918544385515], "label": "Li", "properties": {}}, {"species": [{"element": "Li", "occu": 1}], "abc": [0.0002386, 0.50023845, 0.31136902], "xyz": [1.6361654963464998, 2.8312205654799, 13.291860841819], "label": "Li", "properties": {}}, {"species": [{"element": "Li", "occu": 1}], "abc": [0.33412346, 0.8341233, 0.34242975999999997], "xyz": [4.90922572474042, 4.7209226741886, 14.617795688272], "label": "Li", "properties": {}}, {"species": [{"element": "Li", "occu": 1}], "abc": [2.294e-05, 1.617e-05, 0.40456118999999996], "xyz": [0.00020275790776, 9.151802813999999e-05, 17.2700901312555], "label": "Li", "properties": {}}, {"species": [{"element": "Li", "occu": 1}], "abc": [0.66677521, 0.66677861, 0.37370644999999997], "xyz": [6.53638248942041, 3.77379490371862, 15.9529491055025], "label": "Li", "properties": {}}, {"species": [{"element": "Li", "occu": 1}], "abc": [0.16677863, 0.16677483, 0.37370641], "xyz": [1.6349119884382302, 0.94390250989386, 15.9529473979645], "label": "Li", "properties": {}}, {"species": [{"element": "Li", "occu": 1}], "abc": [0.50001597, 0.50002332, 0.40456121], "xyz": [4.90166107054407, 2.83000298518344, 17.270090985024503], "label": "Li", "properties": {}}, {"species": [{"element": "Li", "occu": 1}], "abc": [0.50001294, 1.216e-05, 0.40455872], "xyz": [3.26777780154522, 6.882246272e-05, 17.269984690784], "label": "Li", "properties": {}}, {"species": [{"element": "Li", "occu": 1}], "abc": [0.1667565, 0.66675683, 0.37371566], "xyz": [3.2685355443223196, 3.7736716345378594, 15.953342266127], "label": "Li", "properties": {}}, {"species": [{"element": "Li", "occu": 1}], "abc": [0.66675615, 0.1667555, 0.37371488999999997], "xyz": [4.9023554109850505, 0.943793107081, 15.953309396020499], "label": "Li", "properties": {}}, {"species": [{"element": "Li", "occu": 1}], "abc": [1.408e-05, 0.5000145, 0.40455886999999996], "xyz": [1.63396639810556, 2.829953066259, 17.2699910940515], "label": "Li", "properties": {}}, {"species": [{"element": "Li", "occu": 1}], "abc": [0.66663988, 0.66664929, 0.4670276], "xyz": [6.53507549330882, 3.7730629858831795, 19.936684351220002], "label": "Li", "properties": {}}, {"species": [{"element": "Li", "occu": 1}], "abc": [0.33332405, 0.33332625, 0.43614424999999996], "xyz": [3.2675698513508498, 1.8865405768274999, 18.6183220089125], "label": "Li", "properties": {}}, {"species": [{"element": "Li", "occu": 1}], "abc": [0.83332695, 0.83332519, 0.43614432], "xyz": [8.16906584002791, 4.71640557750098, 18.618324997104], "label": "Li", "properties": {}}, {"species": [{"element": "Li", "occu": 1}], "abc": [0.16664744, 0.16663964, 0.46702748], "xyz": [1.63361286736864, 0.94313736937288, 19.936679228606], "label": "Li", "properties": {}}, {"species": [{"element": "Li", "occu": 1}], "abc": [0.16664361, 0.66664904, 0.4670278], "xyz": [3.26744555309043, 3.77306157094768, 19.936692888910002], "label": "Li", "properties": {}}, {"species": [{"element": "Li", "occu": 1}], "abc": [0.83332242, 0.33332333, 0.43614474], "xyz": [6.535203157250761, 1.8865240503808598, 18.618342926253], "label": "Li", "properties": {}}, {"species": [{"element": "Li", "occu": 1}], "abc": [0.33332299, 0.83332435, 0.43614498999999995], "xyz": [4.9013837153828295, 4.7164008233176995, 18.6183535983655], "label": "Li", "properties": {}}, {"species": [{"element": "Li", "occu": 1}], "abc": [0.66664571, 0.16664205, 0.46702732999999996], "xyz": [4.90126293633367, 0.9431510093511, 19.9366728253385], "label": "Li", "properties": {}}, {"species": [{"element": "Li", "occu": 1}], "abc": [0.33329778, 0.33329687, 0.52954506], "xyz": [3.26730216516144, 1.88637429360754, 22.605457816557003], "label": "Li", "properties": {}}, {"species": [{"element": "Li", "occu": 1}], "abc": [0.99997949, 0.99996847, 0.49863809], "xyz": [9.80272393172281, 5.65956354833474, 21.2860871730605], "label": "Li", "properties": {}}, {"species": [{"element": "Li", "occu": 1}], "abc": [0.49996778, 0.49997889, 0.49863830000000003], "xyz": [4.90120095223252, 2.82975152284638, 21.286096137635003], "label": "Li", "properties": {}}, {"species": [{"element": "Li", "occu": 1}], "abc": [0.83329715, 0.83329729, 0.5295452500000001], "xyz": [8.16877992033271, 4.71624767069918, 22.605465927362506], "label": "Li", "properties": {}}, {"species": [{"element": "Li", "occu": 1}], "abc": [0.83330018, 0.33329762, 0.5295447000000001], "xyz": [6.53497380063874, 1.88637853841404, 22.605442448715007], "label": "Li", "properties": {}}, {"species": [{"element": "Li", "occu": 1}], "abc": [0.49997499, 0.99997225, 0.49863799999999997], "xyz": [6.53505337457343, 5.6595849421594995, 21.2860833311], "label": "Li", "properties": {}}, {"species": [{"element": "Li", "occu": 1}], "abc": [0.99997134, 0.49997759, 0.4986386], "xyz": [8.16887346997524, 2.82974416518178, 21.28610894417], "label": "Li", "properties": {}}, {"species": [{"element": "Li", "occu": 1}], "abc": [0.3332945, 0.83330066, 0.52954468], "xyz": [4.90112011376314, 4.71626674402972, 22.605441594946], "label": "Li", "properties": {}}, {"species": [{"element": "Li", "occu": 1}], "abc": [0.9999424, 0.99993684, 0.5915912], "xyz": [9.80237818129016, 5.65938453069528, 25.25411136164], "label": "Li", "properties": {}}, {"species": [{"element": "Li", "occu": 1}], "abc": [0.66661658, 0.66662298, 0.56122671], "xyz": [6.53483724867898, 3.7729140780711594, 23.9578983484995], "label": "Li", "properties": {}}, {"species": [{"element": "Li", "occu": 1}], "abc": [0.16662158, 0.16661595, 0.5612265700000001], "xyz": [1.6333664536063601, 0.9430032900849, 23.957892372116504], "label": "Li", "properties": {}}, {"species": [{"element": "Li", "occu": 1}], "abc": [0.49993823, 0.49994326, 0.59159136], "xyz": [4.90089140739865, 2.82954986623892, 25.254118191792003], "label": "Li", "properties": {}}, {"species": [{"element": "Li", "occu": 1}], "abc": [0.49993924, 0.99993782, 0.59159092], "xyz": [6.53470723202096, 5.659390077242439, 25.254099408874], "label": "Li", "properties": {}}, {"species": [{"element": "Li", "occu": 1}], "abc": [0.16661604, 0.66662071, 0.56122717], "xyz": [3.26717280203862, 3.77290123045682, 23.9579179851865], "label": "Li", "properties": {}}, {"species": [{"element": "Li", "occu": 1}], "abc": [0.66661931, 0.16661417, 0.5612270500000001], "xyz": [4.90099930203535, 0.94299321574414, 23.957912862572503], "label": "Li", "properties": {}}, {"species": [{"element": "Li", "occu": 1}], "abc": [0.99994055, 0.49994174, 0.5915915500000001], "xyz": [8.16855510247681, 2.82954126343108, 25.254126302597506], "label": "Li", "properties": {}}, {"species": [{"element": "O", "occu": 1}], "abc": [0.83319455, 0.33319413, 0.0146799], "xyz": [6.53394530664787, 1.8857928117144598, 0.626662177155], "label": "O", "properties": {}}, {"species": [{"element": "O", "occu": 1}], "abc": [0.83319525, 0.83319479, 0.014678719999999996], "xyz": [8.16777903801441, 4.71566754714418, 0.6266118047839999], "label": "O", "properties": {}}, {"species": [{"element": "O", "occu": 1}], "abc": [0.33319455, 0.83319412, 0.014679889999999998], "xyz": [4.9001187739713306, 4.71566375511704, 0.6266617502705], "label": "O", "properties": {}}, {"species": [{"element": "O", "occu": 1}], "abc": [0.33319522, 0.33319483, 0.014678719999999996], "xyz": [3.2662984726613598, 1.8857967735338599, 0.6266118047839999], "label": "O", "properties": {}}, {"species": [{"element": "O", "occu": 1}], "abc": [0.49996941, 0.99996897, 0.07759171999999999], "xyz": [6.535006189655251, 5.6595663782057395, 3.312270259634], "label": "O", "properties": {}}, {"species": [{"element": "O", "occu": 1}], "abc": [0.49996851, 0.49996823, 0.07758975], "xyz": [4.90117088981499, 2.8296911899966597, 3.3121861633875], "label": "O", "properties": {}}, {"species": [{"element": "O", "occu": 1}], "abc": [0.99996946, 0.49996903, 0.07759176999999999], "xyz": [8.16883321247984, 2.8296957177902597, 3.3122723940565], "label": "O", "properties": {}}, {"species": [{"element": "O", "occu": 1}], "abc": [0.99996867, 0.99996807, 0.07758975], "xyz": [9.80265191263947, 5.65956128443794, 3.3121861633875], "label": "O", "properties": {}}, {"species": [{"element": "O", "occu": 1}], "abc": [0.16664189, 0.66664147, 0.14010140000000001], "xyz": [3.2674095762216098, 3.7730187267007396, 5.980711608830001], "label": "O", "properties": {}}, {"species": [{"element": "O", "occu": 1}], "abc": [0.16662877, 0.16662788, 0.14008951], "xyz": [1.6334524255759102, 0.94307081080696, 5.9802040431595005], "label": "O", "properties": {}}, {"species": [{"element": "O", "occu": 1}], "abc": [0.66664176, 0.16664131, 0.14010116], "xyz": [4.90123470380706, 0.9431468211420199, 5.980701363602001], "label": "O", "properties": {}}, {"species": [{"element": "O", "occu": 1}], "abc": [0.66662832, 0.66662835, 0.14008951], "xyz": [6.53493152048514, 3.7729444708856996, 5.9802040431595005], "label": "O", "properties": {}}, {"species": [{"element": "O", "occu": 1}], "abc": [0.83321687, 0.33321642, 0.20256235], "xyz": [6.53416401070777, 1.8859189673636398, 8.6470727498575], "label": "O", "properties": {}}, {"species": [{"element": "O", "occu": 1}], "abc": [0.83316926, 0.83316917, 0.20252129000000002], "xyz": [8.16752546809, 4.7155225445541396, 8.645319962100501], "label": "O", "properties": {}}, {"species": [{"element": "O", "occu": 1}], "abc": [0.33321743, 0.83321698, 0.20256276], "xyz": [4.90034300036593, 4.715793136819159, 8.647090252122], "label": "O", "properties": {}}, {"species": [{"element": "O", "occu": 1}], "abc": [0.33316959, 0.33316882, 0.20252129000000002], "xyz": [3.26604598106241, 1.8856495636444397, 8.645319962100501], "label": "O", "properties": {}}, {"species": [{"element": "O", "occu": 1}], "abc": [0.49993184, 0.99993142, 0.26479946], "xyz": [6.53463795776356, 5.65935385489364, 11.303878508237], "label": "O", "properties": {}}, {"species": [{"element": "O", "occu": 1}], "abc": [0.49989115, 0.49989057, 0.26482424], "xyz": [4.90041155245583, 2.8292516544329396, 11.304936328028], "label": "O", "properties": {}}, {"species": [{"element": "O", "occu": 1}], "abc": [0.99993119, 0.49993073, 0.26479897999999996], "xyz": [8.16845795513275, 2.82947894967166, 11.303858017781], "label": "O", "properties": {}}, {"species": [{"element": "O", "occu": 1}], "abc": [0.99989099, 0.99989073, 0.26482425], "xyz": [9.801891529631352, 5.659123559991659, 11.3049367549125], "label": "O", "properties": {}}, {"species": [{"element": "O", "occu": 1}], "abc": [0.16701252, 0.66701202, 0.32697241], "xyz": [3.2710425862447203, 3.77511594409884, 13.9579453756645], "label": "O", "properties": {}}, {"species": [{"element": "O", "occu": 1}], "abc": [0.16706444, 0.16706322, 0.32697454], "xyz": [1.63772220326896, 0.94553472288924, 13.958036302063], "label": "O", "properties": {}}, {"species": [{"element": "O", "occu": 1}], "abc": [0.66701247, 0.16701221, 0.32697252], "xyz": [4.90486938033363, 0.9452460194498199, 13.957950071394], "label": "O", "properties": {}}, {"species": [{"element": "O", "occu": 1}], "abc": [0.66706361, 0.66706398, 0.32697452], "xyz": [6.539199762381191, 3.77541002429316, 13.958035448294], "label": "O", "properties": {}}, {"species": [{"element": "O", "occu": 1}], "abc": [0.83346597, 0.33346583, 0.38920783], "xyz": [6.53660694126561, 1.88733056361586, 16.6146789905635], "label": "O", "properties": {}}, {"species": [{"element": "O", "occu": 1}], "abc": [0.83348166, 0.8334841, 0.38920833], "xyz": [8.17059618027102, 4.7173049671022, 16.614700334788502], "label": "O", "properties": {}}, {"species": [{"element": "O", "occu": 1}], "abc": [0.33346872, 0.83346849, 0.38920889], "xyz": [4.9028071053195, 4.71721661852958, 16.6147242403205], "label": "O", "properties": {}}, {"species": [{"element": "O", "occu": 1}], "abc": [0.33348449, 0.33348124, 0.3892083], "xyz": [3.2691248296993902, 1.88741778024008, 16.614699054135002], "label": "O", "properties": {}}, {"species": [{"element": "O", "occu": 1}], "abc": [0.49998204, 0.99998343, 0.45161851], "xyz": [6.535135980859501, 5.65964821807506, 19.278894183209502], "label": "O", "properties": {}}, {"species": [{"element": "O", "occu": 1}], "abc": [0.50000455, 0.49997384, 0.45161711], "xyz": [4.90142475381821, 2.8297229411492797, 19.2788344193795], "label": "O", "properties": {}}, {"species": [{"element": "O", "occu": 1}], "abc": [0.99998066, 0.4999808, 0.45161727999999995], "xyz": [8.16894486820582, 2.8297623329536, 19.278841676416], "label": "O", "properties": {}}, {"species": [{"element": "O", "occu": 1}], "abc": [0.99997119, 4.42e-06, 0.45161665], "xyz": [6.53513316083601, 2.501605964e-05, 19.278814782692503], "label": "O", "properties": {}}, {"species": [{"element": "O", "occu": 1}], "abc": [0.16661127, 0.66665385, 0.51411755], "xyz": [3.2672499186777904, 3.7730887943066995, 21.946881327297504], "label": "O", "properties": {}}, {"species": [{"element": "O", "occu": 1}], "abc": [0.16663931, 0.16663385, 0.5141162100000001], "xyz": [1.63354081560607, 0.9431045994666999, 21.946824124774505], "label": "O", "properties": {}}, {"species": [{"element": "O", "occu": 1}], "abc": [0.66663719, 0.16664642, 0.51411711], "xyz": [4.901221535166011, 0.9431757424236399, 21.946862544379503], "label": "O", "properties": {}}, {"species": [{"element": "O", "occu": 1}], "abc": [0.66664856, 0.66660866, 0.51411838], "xyz": [6.53499945499156, 3.7728330305657196, 21.946916758711], "label": "O", "properties": {}}, {"species": [{"element": "O", "occu": 1}], "abc": [0.83319742, 0.33319867, 0.576986], "xyz": [6.53397889812812, 1.8858185069431397, 24.6306380117], "label": "O", "properties": {}}, {"species": [{"element": "O", "occu": 1}], "abc": [0.83320158, 0.83319787, 0.5769859300000001], "xyz": [8.16783047088204, 4.71568497914954, 24.630635023508507], "label": "O", "properties": {}}, {"species": [{"element": "O", "occu": 1}], "abc": [0.33320076, 0.83319948, 0.5769845600000001], "xyz": [4.90017687285324, 4.71569409133416, 24.630576540332004], "label": "O", "properties": {}}, {"species": [{"element": "O", "occu": 1}], "abc": [0.33319685, 0.33319927, 0.5769856200000001], "xyz": [3.2663236335955297, 1.8858219027883398, 24.630621790089005], "label": "O", "properties": {}}]}, "formula": "(Li2O)40.0", "bandgap": 3.0139, "slab_thickness": 25.249857457597507}