{"miller": "210_0.06", "final_energy": -768.05533351, "gamma": 0.06958972637817161, "work_function": 3.72734199318557, "ionization_potentail": -4.06604199318557, "electron_affinity": -1.1170419931855697, "is_stochiometric": true, "incar_parameters": {"SYSTEM": "unknown system", "LCOMPAT": false, "PREC": "normal", "ENMAX": 520.0, "ENAUG": 628.945, "EDIFF": 1e-05, "IALGO": 38, "IWAVPR": 11, "NBANDS": 406, "NBANDSLOW": -1, "NBANDSHIGH": -1, "NELECT": 648.0, "TURBO": 0, "IRESTART": 0, "NREBOOT": 0, "NMIN": 0, "EREF": 0.0, "ISMEAR": 0, "SIGMA": 0.05, "KSPACING": 0.5, "KGAMMA": true, "KBLOWUP": true, "LREAL": true, "ROPT": [-0.0005, -0.0005], "LMAXPAW": -100, "LMAXMIX": 2, "NLSPLINE": false, "ISTART": 0, "ICHARG": 2, "INIWAV": 1, "ISPIN": 1, "LNONCOLLINEAR": false, "MAGMOM": [0.6, 0.6, 0.6, 0.6, 0.6, 0.6, 0.6, 0.6, 0.6, 0.6, 0.6, 0.6, 0.6, 0.6, 0.6, 0.6, 0.6, 0.6, 0.6, 0.6, 0.6, 0.6, 0.6, 0.6, 0.6, 0.6, 0.6, 0.6, 0.6, 0.6, 0.6, 0.6, 0.6, 0.6, 0.6, 0.6, 0.6, 0.6, 0.6, 0.6, 0.6, 0.6, 0.6, 0.6, 0.6, 0.6, 0.6, 0.6, 0.6, 0.6, 0.6, 0.6, 0.6, 0.6, 0.6, 0.6, 0.6, 0.6, 0.6, 0.6, 0.6, 0.6, 0.6, 0.6, 0.6, 0.6, 0.6, 0.6, 0.6, 0.6, 0.6, 0.6, 0.6, 0.6, 0.6, 0.6, 0.6, 0.6, 0.6, 0.6, 0.6, 0.6, 0.6, 0.6, 0.6, 0.6, 0.6, 0.6, 0.6, 0.6, 0.6, 0.6, 0.6, 0.6, 0.6, 0.6, 0.6, 0.6, 0.6, 0.6, 0.6, 0.6, 0.6, 0.6, 0.6, 0.6, 0.6, 0.6, 0.6, 0.6, 0.6, 0.6, 0.6, 0.6, 0.6, 0.6, 0.6, 0.6, 0.6, 0.6, 0.6, 0.6, 0.6, 0.6, 0.6, 0.6, 0.6, 0.6, 0.6, 0.6, 0.6, 0.6, 0.6, 0.6, 0.6, 0.6, 0.6, 0.6, 0.6, 0.6, 0.6, 0.6, 0.6, 0.6, 0.6, 0.6, 0.6, 0.6, 0.6, 0.6, 0.6, 0.6, 0.6, 0.6, 0.6, 0.6, 0.6, 0.6, 0.6, 0.6, 0.6, 0.6], "NUPDOWN": -1.0, "LSORBIT": false, "SAXIS": [0.0, 0.0, 1.0], "LSPIRAL": false, "QSPIRAL": [0.0, 0.0, 0.0], "LZEROZ": false, "LASPH": false, "LMETAGGA": false, "NELM": 100, "NELMDL": -5, "NELMIN": 6, "ENINI": 520.0, "LDIAG": true, "LSUBROT": false, "WEIMIN": 0.001, "EBREAK": 1e-08, "DEPER": 0.3, "NRMM": 4, "TIME": 0.4, "AMIX": 0.4, "BMIX": 1.0, "AMIN": 0.1, "AMIX_MAG": 1.6, "BMIX_MAG": 1.0, "IMIX": 4, "MIXFIRST": false, "MAXMIX": -45, "WC": 100.0, "INIMIX": 1, "MIXPRE": 1, "MREMOVE": 5, "LDIPOL": false, "LMONO": false, "IDIPOL": 0, "EPSILON": 1.0, "DIPOL": [-100.0, -100.0, -100.0], "EFIELD": 0.0, "NGX": 28, "NGY": 60, "NGZ": 256, "NGXF": 56, "NGYF": 120, "NGZF": 512, "ADDGRID": false, "NSW": 150, "IBRION": 2, "MDALGO": 0, "ISIF": 2, "PSTRESS": 0.0, "EDIFFG": -0.01, "NFREE": 1, "POTIM": 0.5, "SMASS": -3.0, "SCALEE": 1.0, "TEBEG": 0.0001, "TEEND": 0.0001, "NBLOCK": 1, "KBLOCK": 150, "NPACO": 256, "APACO": 10.0, "ISYM": 0, "SYMPREC": 1e-05, "LORBIT": 11, "RWIGS": [-1.0, -1.0], "NEDOS": 301, "EMIN": 10.0, "EMAX": -10.0, "EFERMI": 0.0, "NWRITE": 2, "LWAVE": false, "LDOWNSAMPLE": false, "LCHARG": false, "LPARD": false, "LVTOT": false, "LVHAR": false, "LELF": false, "LOPTICS": false, "STM": [0.0, 0.0, 0.0, 0.0, 0.0, 0.0, 0.0], "NPAR": 1, "NSIM": 4, "NBLK": -1, "LPLANE": true, "LSCALAPACK": true, "LSCAAWARE": false, "LSCALU": false, "LASYNC": false, "LORBITALREAL": false, "IDIOT": 3, "PHON_NSTRUCT": -1, "LMUSIC": false, "POMASS": [7.01, 16.0], "DARWINR": [0.0, 0.0], "DARWINV": [1.0, 1.0], "LCORR": true, "GGA_COMPAT": true, "LBERRY": false, "ICORELEVEL": 0, "LDAU": false, "I_CONSTRAINED_M": 0, "GGA": "--", "VOSKOWN": 0, "LHFCALC": false, "PRECFOCK": "", "LSYMGRAD": false, "LHFONE": false, "LRHFCALC": false, "LTHOMAS": false, "LMODELHF": false, "LFOCKACE": false, "ENCUT4O": -1.0, "EXXOEP": 0, "FOURORBIT": 0, "AEXX": 0.0, "HFALPHA": 0.0, "MCALPHA": 0.0, "ALDAX": 1.0, "AGGAX": 1.0, "ALDAC": 1.0, "AGGAC": 1.0, "NKREDX": 1, "NKREDY": 1, "NKREDZ": 1, "SHIFTRED": false, "ODDONLY": false, "EVENONLY": false, "LMAXFOCK": 0, "NMAXFOCKAE": 0, "LFOCKAEDFT": false, "HFSCREEN": 0.0, "HFSCREENC": 0.0, "NBANDSGWLOW": 0, "LUSE_VDW": false, "Zab_VDW": -0.8491, "PARAM1": 0.1234, "PARAM2": 1.0, "PARAM3": 0.0, "MODEL_GW": 0, "MODEL_EPS0": 8.04103512, "MODEL_ALPHA": 1.0, "LEPSILON": false, "LRPA": false, "LNABLA": false, "LVEL": false, "CSHIFT": 0.1, "OMEGAMAX": -1.0, "DEG_THRESHOLD": 0.002, "RTIME": -0.1, "WPLASMAI": 0.0, "DFIELD": [0.0, 0.0, 0.0], "WPLASMA": [0.0, 0.0, 0.0, 0.0, 0.0, 0.0, 0.0, 0.0, 0.0], "NUCIND": false, "MAGPOS": [0.0, 0.0, 0.0], "LNICSALL": true, "ORBITALMAG": false, "LMAGBLOCH": false, "LCHIMAG": false, "LGAUGE": true, "MAGATOM": 0, "MAGDIPOL": [0.0, 0.0, 0.0], "AVECCONST": [0.0, 0.0, 0.0], "LFINITE_TEMPERATURE": false, "LADDER": false, "LRPAFORCE": false, "LFXC": false, "LHARTREE": true, "IBSE": 0, "KPOINT": [-1, 0, 0, 0], "LTCTC": false, "LTCTE": false, "LTETE": false, "LTRIPLET": false, "LFXCEPS": false, "LFXHEG": false, "NATURALO": 2, "LHOLEGF": false, "L2ORDER": false, "LDMP1": false, "LMP2LT": false, "LSMP2LT": false, "LGWLF": false, "ENCUTGW": -2.0, "ENCUTGWSOFT": -2.0, "ENCUTLF": -1.0, "LESF_SPLINES": false, "LMAXMP2": -1, "SCISSOR": 0.0, "NOMEGA": 0, "NOMEGAR": 0, "NBANDSGW": -1, "NBANDSO": -1, "NBANDSV": -1, "NELMGW": 1, "NELMHF": 1, "DIM": 3, "IESPILON": 4, "ANTIRES": 0, "OMEGAMIN": -30.0, "OMEGATL": -200.0, "OMEGAGRID": 0, "LSELFENERGY": false, "LSPECTRAL": false, "LSPECTRALGW": false, "LSINGLES": false, "LFERMIGW": false, "ODDONLYGW": false, "EVENONLYGW": false, "NKREDLFX": 1, "NKREDLFY": 1, "NKREDLFZ": 1, "MAXMEM": 2800, "TELESCOPE": 0, "NTAUPAR": -1, "NOMEGAPAR": -1, "DAMP_NEWTON": 0.80000001, "LAMBDA": 1.0, "OFIELD_KAPPA": 0.0, "OFIELD_K": [0.0, 0.0, 0.0], "OFIELD_Q6_NEAR": 0.0, "OFIELD_Q6_FAR": 0.0, "OFIELD_A": 0.0, "KPOINTS_OPT_MODE": 1, "LKPOINTS_OPT": false, "@module": "pymatgen.io.vasp.inputs", "@class": "Incar"}, "relaxed_structures": {"@module": "pymatgen.core.structure", "@class": "Structure", "charge": 0, "lattice": {"matrix": [[4.62116, 0.0, 0.0], [0.0, 10.333228, 0.0], [0.0, 0.0, 45.466205]], "a": 4.62116, "b": 10.333228, "c": 45.466205, "alpha": 90.0, "beta": 90.0, "gamma": 90.0, "volume": 2171.079483714568}, "sites": [{"species": [{"element": "Li", "occu": 1}], "abc": [0.73704144, 0.77457887, 0.037220359999999994], "xyz": [3.4059864208704, 8.00390006769236, 1.6922685179337997], "label": "Li", "properties": {}}, {"species": [{"element": "Li", "occu": 1}], "abc": [0.25775585, 0.06472107, 0.022641119999999997], "xyz": [1.191131023786, 0.6687775727139601, 1.0294058033495999], "label": "Li", "properties": {}}, {"species": [{"element": "Li", "occu": 1}], "abc": [0.23503351, 0.46173674, 0.06633301], "xyz": [1.0861274550716, 4.77123101039672, 3.0159102309270502], "label": "Li", "properties": {}}, {"species": [{"element": "Li", "occu": 1}], "abc": [0.76279112, 0.27441028, 0.03722167], "xyz": [3.5249798120992, 2.83554398878384, 1.69232807866235], "label": "Li", "properties": {}}, {"species": [{"element": "Li", "occu": 1}], "abc": [0.26497429, 0.96176131, 0.06633191], "xyz": [1.2244885899764, 9.938098897808679, 3.0158602181015497], "label": "Li", "properties": {}}, {"species": [{"element": "Li", "occu": 1}], "abc": [0.24226512, 0.56471173, 0.022643429999999996], "xyz": [1.1195458819392, 5.83529506036444, 1.02951083028315], "label": "Li", "properties": {}}, {"species": [{"element": "Li", "occu": 1}], "abc": [0.79895527, 0.06399985, 0.02130321], "xyz": [3.6921001355131997, 0.6613250420158, 0.96857611301805], "label": "Li", "properties": {}}, {"species": [{"element": "Li", "occu": 1}], "abc": [0.73758156, 0.45967522, 0.06609599], "xyz": [3.4084824018095996, 4.74992885421016, 3.00513383101795], "label": "Li", "properties": {}}, {"species": [{"element": "Li", "occu": 1}], "abc": [0.3024776, 0.32061217, 0.00010094999999999896], "xyz": [1.397797386016, 3.3129586521847596, 0.004589813394749953], "label": "Li", "properties": {}}, {"species": [{"element": "Li", "occu": 1}], "abc": [0.2448487, 0.76038403, 0.04565237], "xyz": [1.131485018492, 7.85722154954884, 2.07564001315585], "label": "Li", "properties": {}}, {"species": [{"element": "Li", "occu": 1}], "abc": [0.7623877, 0.95969218, 0.06611325], "xyz": [3.5231155437319996, 9.91671810575704, 3.0059185777162503], "label": "Li", "properties": {}}, {"species": [{"element": "Li", "occu": 1}], "abc": [0.70111469, 0.56413752, 0.021281309999999998], "xyz": [3.2399631608404, 5.82936161751456, 0.96758040312855], "label": "Li", "properties": {}}, {"species": [{"element": "Li", "occu": 1}], "abc": [0.255103, 0.26038141, 0.04564939999999999], "xyz": [1.17887177948, 2.69058047649148, 2.075504978527], "label": "Li", "properties": {}}, {"species": [{"element": "Li", "occu": 1}], "abc": [0.19750398, 0.82062072, 9.99999999999994e-05], "xyz": [0.9126974922168, 8.47966100128416, 0.004546620499999972], "label": "Li", "properties": {}}, {"species": [{"element": "Li", "occu": 1}], "abc": [0.75263491, 0.16587661, 0.08660218], "xyz": [3.4780463406956, 1.71404083099708, 3.9374724693269], "label": "Li", "properties": {}}, {"species": [{"element": "Li", "occu": 1}], "abc": [0.74928717, 0.56478295, 0.13344154], "xyz": [3.4625758985172, 5.8360309928626, 6.067080413155701], "label": "Li", "properties": {}}, {"species": [{"element": "Li", "occu": 1}], "abc": [0.25093881, 0.86308433, 0.11147238], "xyz": [1.1596283912196, 8.91844716511724, 5.0682260809179], "label": "Li", "properties": {}}, {"species": [{"element": "Li", "occu": 1}], "abc": [0.24930712, 0.26448994, 0.15689218], "xyz": [1.1520880906592, 2.73303485372632, 7.1332920187769], "label": "Li", "properties": {}}, {"species": [{"element": "Li", "occu": 1}], "abc": [0.75087586, 0.06475465, 0.1333787], "xyz": [3.4699174891975995, 0.6691245625102, 6.0642233168335], "label": "Li", "properties": {}}, {"species": [{"element": "Li", "occu": 1}], "abc": [0.74734987, 0.66584702, 0.08660493], "xyz": [3.4536233252491995, 6.88034907078056, 3.93759750139065], "label": "Li", "properties": {}}, {"species": [{"element": "Li", "occu": 1}], "abc": [0.25094343, 0.76435859, 0.15680301], "xyz": [1.1596497409788, 7.898291584228519, 7.12923779727705], "label": "Li", "properties": {}}, {"species": [{"element": "Li", "occu": 1}], "abc": [0.24905109, 0.36307359, 0.11148612999999999], "xyz": [1.1509049350643998, 3.75172218624852, 5.06885124123665], "label": "Li", "properties": {}}, {"species": [{"element": "Li", "occu": 1}], "abc": [0.7507163, 0.862576, 0.11142131999999999], "xyz": [3.4691801369079998, 8.913194475328, 5.0659045764906], "label": "Li", "properties": {}}, {"species": [{"element": "Li", "occu": 1}], "abc": [0.74926483, 0.26285421, 0.15645838], "xyz": [3.4624726618027997, 2.7161324826898796, 7.113568779047901], "label": "Li", "properties": {}}, {"species": [{"element": "Li", "occu": 1}], "abc": [0.25024304, 0.16150599, 0.08943464], "xyz": [1.1564131267264, 1.6688782180357198, 4.0662536763412], "label": "Li", "properties": {}}, {"species": [{"element": "Li", "occu": 1}], "abc": [0.24885579, 0.5640442, 0.13420216999999998], "xyz": [1.1500024225163998, 5.8283973206776, 6.1016633726648495], "label": "Li", "properties": {}}, {"species": [{"element": "Li", "occu": 1}], "abc": [0.75067471, 0.76292642, 0.15646965], "xyz": [3.4689879428635995, 7.88349264508376, 7.11408118317825], "label": "Li", "properties": {}}, {"species": [{"element": "Li", "occu": 1}], "abc": [0.74923492, 0.36270648, 0.11142508], "xyz": [3.4623344429072, 3.74792875491744, 5.0660755294214], "label": "Li", "properties": {}}, {"species": [{"element": "Li", "occu": 1}], "abc": [0.25101766, 0.06409365, 0.13418227], "xyz": [1.1599927696855998, 0.6622942988022, 6.10075859518535], "label": "Li", "properties": {}}, {"species": [{"element": "Li", "occu": 1}], "abc": [0.24987245, 0.66132945, 0.08941052], "xyz": [1.154700571042, 6.8336679899646, 4.0651570314766], "label": "Li", "properties": {}}, {"species": [{"element": "Li", "occu": 1}], "abc": [0.75021215, 0.96283435, 0.17911468], "xyz": [3.4668503790939997, 9.9491868647818, 8.1436647593894], "label": "Li", "properties": {}}, {"species": [{"element": "Li", "occu": 1}], "abc": [0.74982792, 0.36401388, 0.22445181], "xyz": [3.4650747907871997, 3.7614384172046402, 10.20497200608105], "label": "Li", "properties": {}}, {"species": [{"element": "Li", "occu": 1}], "abc": [0.25003585, 0.66232385, 0.20184378], "xyz": [1.155455668586, 6.8439433518878, 9.1770706794549], "label": "Li", "properties": {}}, {"species": [{"element": "Li", "occu": 1}], "abc": [0.24955148, 0.06421731, 0.24722596000000002], "xyz": [1.1532173173167999, 0.66357210577668, 11.240426178681801], "label": "Li", "properties": {}}, {"species": [{"element": "Li", "occu": 1}], "abc": [0.75016159, 0.86401489, 0.22444745], "xyz": [3.4666167332444, 8.92806285376492, 10.20477377342725], "label": "Li", "properties": {}}, {"species": [{"element": "Li", "occu": 1}], "abc": [0.74968813, 0.46280499, 0.1791195], "xyz": [3.4644287988308, 4.78226948120772, 8.1438839064975], "label": "Li", "properties": {}}, {"species": [{"element": "Li", "occu": 1}], "abc": [0.25013346, 0.56421444, 0.24725768999999997], "xyz": [1.1559067400135998, 5.8301564494123195, 11.241868821366449], "label": "Li", "properties": {}}, {"species": [{"element": "Li", "occu": 1}], "abc": [0.24996493, 0.16225402, 0.20184226], "xyz": [1.1551279359188, 1.67660778257656, 9.1770015708233], "label": "Li", "properties": {}}, {"species": [{"element": "Li", "occu": 1}], "abc": [0.74998536, 0.66270379, 0.20186012], "xyz": [3.4658023462176, 6.84786935853412, 9.1778135972446], "label": "Li", "properties": {}}, {"species": [{"element": "Li", "occu": 1}], "abc": [0.75003176, 0.06425464, 0.24726258], "xyz": [3.4660167680416, 0.66395784517792, 11.242091151108902], "label": "Li", "properties": {}}, {"species": [{"element": "Li", "occu": 1}], "abc": [0.25020194, 0.96275494, 0.17927731], "xyz": [1.1562231970504, 9.948366303146319, 8.15105892830855], "label": "Li", "properties": {}}, {"species": [{"element": "Li", "occu": 1}], "abc": [0.24951116, 0.36300579, 0.22468557], "xyz": [1.1530309921456, 3.75102159339012, 10.21560018616185], "label": "Li", "properties": {}}, {"species": [{"element": "Li", "occu": 1}], "abc": [0.74985731, 0.56425485, 0.24726545], "xyz": [3.4652106066796, 5.8305740151558, 11.24222163911725], "label": "Li", "properties": {}}, {"species": [{"element": "Li", "occu": 1}], "abc": [0.75001128, 0.1626977, 0.20185925999999998], "xyz": [3.4659221266847995, 1.6811924291756, 9.1777744963083], "label": "Li", "properties": {}}, {"species": [{"element": "Li", "occu": 1}], "abc": [0.25049606, 0.86301884, 0.22467673999999999], "xyz": [1.1575823726296, 8.91777044201552, 10.2151987195717], "label": "Li", "properties": {}}, {"species": [{"element": "Li", "occu": 1}], "abc": [0.24943088, 0.4629088, 0.17936561], "xyz": [1.1526600054207998, 4.783342173606401, 8.155073594210052], "label": "Li", "properties": {}}, {"species": [{"element": "Li", "occu": 1}], "abc": [0.75043831, 0.76310008, 0.26974008], "xyz": [3.4678955006396, 7.88528711345824, 12.2640577739964], "label": "Li", "properties": {}}, {"species": [{"element": "Li", "occu": 1}], "abc": [0.74999907, 0.16225826, 0.31507762], "xyz": [3.4658657023212, 1.67665159546328, 14.3253836618321], "label": "Li", "properties": {}}, {"species": [{"element": "Li", "occu": 1}], "abc": [0.25021334, 0.46218287, 0.29252784], "xyz": [1.1562758782744, 4.77584097340436, 13.3001307416472], "label": "Li", "properties": {}}, {"species": [{"element": "Li", "occu": 1}], "abc": [0.24964121, 0.86294969, 0.33795792], "xyz": [1.1536319740035998, 8.91705589929932, 15.365664072093601], "label": "Li", "properties": {}}, {"species": [{"element": "Li", "occu": 1}], "abc": [0.75000724, 0.6622532, 0.3150763], "xyz": [3.4659034571983995, 6.8432133093296, 14.3253236464415], "label": "Li", "properties": {}}, {"species": [{"element": "Li", "occu": 1}], "abc": [0.74955693, 0.26309478, 0.26973967], "xyz": [3.4638225026388, 2.7186183473498398, 12.26403913285235], "label": "Li", "properties": {}}, {"species": [{"element": "Li", "occu": 1}], "abc": [0.25032415, 0.36294689, 0.33795903], "xyz": [1.156787949014, 3.7504129662609205, 15.36571453958115], "label": "Li", "properties": {}}, {"species": [{"element": "Li", "occu": 1}], "abc": [0.24995253, 0.9622088, 0.29253007999999997], "xyz": [1.1550706335348, 9.9427229140064, 13.3002325859464], "label": "Li", "properties": {}}, {"species": [{"element": "Li", "occu": 1}], "abc": [0.74997515, 0.46212949, 0.29254207], "xyz": [3.465755164174, 4.7752893856937195, 13.30077772574435], "label": "Li", "properties": {}}, {"species": [{"element": "Li", "occu": 1}], "abc": [0.75016447, 0.86295283, 0.3379395], "xyz": [3.4666300421851997, 8.917088345635241, 15.3648265845975], "label": "Li", "properties": {}}, {"species": [{"element": "Li", "occu": 1}], "abc": [0.25051791, 0.76301694, 0.26977437], "xyz": [1.1576833449755999, 7.8844280088823195, 12.26561681016585], "label": "Li", "properties": {}}, {"species": [{"element": "Li", "occu": 1}], "abc": [0.2500104, 0.16224423, 0.31508598], "xyz": [1.155338060064, 1.6765066202744399, 14.3257637593059], "label": "Li", "properties": {}}, {"species": [{"element": "Li", "occu": 1}], "abc": [0.74968746, 0.36295354, 0.33795087], "xyz": [3.4644257026535996, 3.7504816822271203, 15.365343535348352], "label": "Li", "properties": {}}, {"species": [{"element": "Li", "occu": 1}], "abc": [0.75006952, 0.96220952, 0.29252831], "xyz": [3.4661912630432, 9.94273035393056, 13.300152110763552], "label": "Li", "properties": {}}, {"species": [{"element": "Li", "occu": 1}], "abc": [0.24999197, 0.66224489, 0.31508482], "xyz": [1.1552528920851999, 6.84312744020492, 14.3257110185081], "label": "Li", "properties": {}}, {"species": [{"element": "Li", "occu": 1}], "abc": [0.24948597, 0.26300136, 0.26977439], "xyz": [1.1529145851251998, 2.7176530171900803, 12.26561771948995], "label": "Li", "properties": {}}, {"species": [{"element": "Li", "occu": 1}], "abc": [0.7499711, 0.56414642, 0.36048036], "xyz": [3.4657364484759996, 5.829453583243761, 16.3896739462338], "label": "Li", "properties": {}}, {"species": [{"element": "Li", "occu": 1}], "abc": [0.75024357, 0.96202625, 0.40582798999999997], "xyz": [3.4669955759411994, 9.940836583234999, 18.45145858807795], "label": "Li", "properties": {}}, {"species": [{"element": "Li", "occu": 1}], "abc": [0.25040815, 0.26280186, 0.38314592], "xyz": [1.157176126454, 2.71559153820408, 17.4201909436336], "label": "Li", "properties": {}}, {"species": [{"element": "Li", "occu": 1}], "abc": [0.24997458, 0.66121308, 0.42880165], "xyz": [1.1551725301128, 6.83246551222224, 19.49598372323825], "label": "Li", "properties": {}}, {"species": [{"element": "Li", "occu": 1}], "abc": [0.74999306, 0.46205049, 0.40583536], "xyz": [3.4658379291495995, 4.77447306068172, 18.4517936740088], "label": "Li", "properties": {}}, {"species": [{"element": "Li", "occu": 1}], "abc": [0.75001599, 0.06414494, 0.36047868], "xyz": [3.4659438923484, 0.6628242900663199, 16.3895975630094], "label": "Li", "properties": {}}, {"species": [{"element": "Li", "occu": 1}], "abc": [0.25021443, 0.16102658, 0.42879286], "xyz": [1.1562809153387998, 1.66392436520024, 19.4955840752963], "label": "Li", "properties": {}}, {"species": [{"element": "Li", "occu": 1}], "abc": [0.24960942, 0.76279556, 0.38314307999999997], "xyz": [1.1534850673272, 7.882140438867681, 17.420061819611398], "label": "Li", "properties": {}}, {"species": [{"element": "Li", "occu": 1}], "abc": [0.75046024, 0.26292839, 0.38306581], "xyz": [3.4679968426784, 2.71689900154292, 17.41654864595105], "label": "Li", "properties": {}}, {"species": [{"element": "Li", "occu": 1}], "abc": [0.74985391, 0.66216422, 0.42834514], "xyz": [3.4651948947355997, 6.84229385870216, 19.4752279459937], "label": "Li", "properties": {}}, {"species": [{"element": "Li", "occu": 1}], "abc": [0.24954806, 0.56417022, 0.36051283], "xyz": [1.1532015129495998, 5.8296995140701595, 16.39115023391015], "label": "Li", "properties": {}}, {"species": [{"element": "Li", "occu": 1}], "abc": [0.25032152, 0.96204081, 0.40582988999999997], "xyz": [1.1567757953632, 9.940987035034679, 18.45154497386745], "label": "Li", "properties": {}}, {"species": [{"element": "Li", "occu": 1}], "abc": [0.75021046, 0.16215585, 0.42834716], "xyz": [3.4668425693336, 1.6755933695838, 19.475319787727802], "label": "Li", "properties": {}}, {"species": [{"element": "Li", "occu": 1}], "abc": [0.74955334, 0.76292798, 0.38306365], "xyz": [3.4638059126743994, 7.88350876491944, 17.41645043894825], "label": "Li", "properties": {}}, {"species": [{"element": "Li", "occu": 1}], "abc": [0.2497646, 0.46206645, 0.40583132], "xyz": [1.154202178936, 4.7746379790006, 18.4516099905406], "label": "Li", "properties": {}}, {"species": [{"element": "Li", "occu": 1}], "abc": [0.25043627, 0.06416779, 0.36051467], "xyz": [1.1573060734732, 0.66306040432612, 16.39123389172735], "label": "Li", "properties": {}}, {"species": [{"element": "Li", "occu": 1}], "abc": [0.75080862, 0.36250142, 0.45124952], "xyz": [3.4696067623992, 3.74580982318376, 20.516603182471602], "label": "Li", "properties": {}}, {"species": [{"element": "Li", "occu": 1}], "abc": [0.74779225, 0.76156543, 0.49621952], "xyz": [3.45566763401, 7.86942922510804, 22.561218421321602], "label": "Li", "properties": {}}, {"species": [{"element": "Li", "occu": 1}], "abc": [0.25332079, 0.06032004, 0.47477358999999997], "xyz": [1.1706359019164, 0.62330072628912, 21.58615337152595], "label": "Li", "properties": {}}, {"species": [{"element": "Li", "occu": 1}], "abc": [0.24377527, 0.45834968, 0.52150923], "xyz": [1.1265245267131998, 4.736231747167039, 23.711045560572153], "label": "Li", "properties": {}}, {"species": [{"element": "Li", "occu": 1}], "abc": [0.75221196, 0.26157603, 0.49621856], "xyz": [3.4760918210736, 2.70292475732484, 22.5611747737648], "label": "Li", "properties": {}}, {"species": [{"element": "Li", "occu": 1}], "abc": [0.74921406, 0.86251238, 0.45125084], "xyz": [3.4622380455096, 8.91253707536264, 20.5166631978622], "label": "Li", "properties": {}}, {"species": [{"element": "Li", "occu": 1}], "abc": [0.25622122, 0.9583613, 0.52150917], "xyz": [1.1840392530152, 9.9029658192764, 23.71104283259985], "label": "Li", "properties": {}}, {"species": [{"element": "Li", "occu": 1}], "abc": [0.2469125, 0.56037547, 0.47477713], "xyz": [1.1410221685, 5.79048749711716, 21.58631432189165], "label": "Li", "properties": {}}, {"species": [{"element": "Li", "occu": 1}], "abc": [0.75293138, 0.06379119, 0.47354295], "xyz": [3.4794163760008, 0.65916891066132, 21.530200841004753], "label": "Li", "properties": {}}, {"species": [{"element": "Li", "occu": 1}], "abc": [0.74724089, 0.4625583, 0.51816164], "xyz": [3.4531197112324, 4.7797203771924, 23.5588433473762], "label": "Li", "properties": {}}, {"species": [{"element": "Li", "occu": 1}], "abc": [0.2507316, 0.36244272, 0.45122961], "xyz": [1.158670840656, 3.74520326270016, 20.51569795033005], "label": "Li", "properties": {}}, {"species": [{"element": "Li", "occu": 1}], "abc": [0.24903961, 0.76287803, 0.49628455000000005], "xyz": [1.1508518841475999, 7.88299262018084, 22.56417508863275], "label": "Li", "properties": {}}, {"species": [{"element": "Li", "occu": 1}], "abc": [0.75275796, 0.96255766, 0.51816606], "xyz": [3.4786149744335995, 9.94632776392648, 23.5590443080023], "label": "Li", "properties": {}}, {"species": [{"element": "Li", "occu": 1}], "abc": [0.74736135, 0.56377375, 0.47352075], "xyz": [3.453676376166, 5.825602699165, 21.52919149125375], "label": "Li", "properties": {}}, {"species": [{"element": "Li", "occu": 1}], "abc": [0.25096705, 0.26287172, 0.4962847], "xyz": [1.159758892778, 2.71631341751216, 22.5641819085635], "label": "Li", "properties": {}}, {"species": [{"element": "Li", "occu": 1}], "abc": [0.24929433, 0.86245696, 0.45123216], "xyz": [1.1520289860228, 8.911964407866881, 20.5158138891528], "label": "Li", "properties": {}}, {"species": [{"element": "Li", "occu": 1}], "abc": [0.76485073, 0.16126831, 0.54138485], "xyz": [3.5344975994467998, 1.66642221640468, 24.614714573994252], "label": "Li", "properties": {}}, {"species": [{"element": "Li", "occu": 1}], "abc": [0.74273493, 0.55910163, 0.58514112], "xyz": [3.4322969491188, 5.77732461796164, 26.6041461158496], "label": "Li", "properties": {}}, {"species": [{"element": "Li", "occu": 1}], "abc": [0.26111864, 0.84808365, 0.57092763], "xyz": [1.2066710144224, 8.7634417185222, 25.957912665744153], "label": "Li", "properties": {}}, {"species": [{"element": "Li", "occu": 1}], "abc": [0.75723444, 0.05905684, 0.5851468], "xyz": [3.4993015047503997, 0.61024779267952, 26.604404363893998], "label": "Li", "properties": {}}, {"species": [{"element": "Li", "occu": 1}], "abc": [0.73495235, 0.66122685, 0.54137004], "xyz": [3.396332401726, 6.8326078007718, 24.6140412194982], "label": "Li", "properties": {}}, {"species": [{"element": "Li", "occu": 1}], "abc": [0.23862552, 0.34801722, 0.570936], "xyz": [1.1027267080032, 3.59614128218616, 25.95829321788], "label": "Li", "properties": {}}, {"species": [{"element": "Li", "occu": 1}], "abc": [0.75428408, 0.8631796, 0.56207004], "xyz": [3.4856674191328, 8.9194316117488, 25.555191662998205], "label": "Li", "properties": {}}, {"species": [{"element": "Li", "occu": 1}], "abc": [0.69952737, 0.30204612, 0.6077384299999999], "xyz": [3.2326279011491996, 3.1211114244753597, 27.63156004475815], "label": "Li", "properties": {}}, {"species": [{"element": "Li", "occu": 1}], "abc": [0.26147283, 0.1653934, 0.54155473], "xyz": [1.2083077830828, 1.7090477118951999, 24.62243837289965], "label": "Li", "properties": {}}, {"species": [{"element": "Li", "occu": 1}], "abc": [0.19976998, 0.55911758, 0.5861723], "xyz": [0.9231690407768, 5.77748943294824, 26.6510299571215], "label": "Li", "properties": {}}, {"species": [{"element": "Li", "occu": 1}], "abc": [0.80045173, 0.80204754, 0.60772686], "xyz": [3.6990155166067997, 8.28774009765912, 27.6310340007663], "label": "Li", "properties": {}}, {"species": [{"element": "Li", "occu": 1}], "abc": [0.74562184, 0.3631934, 0.56207529], "xyz": [3.4456378221343997, 3.7529602102952, 25.55543036057445], "label": "Li", "properties": {}}, {"species": [{"element": "Li", "occu": 1}], "abc": [0.30014719, 0.05913261, 0.58618412], "xyz": [1.3870281885403999, 0.6110307413650801, 26.6515673676646], "label": "Li", "properties": {}}, {"species": [{"element": "Li", "occu": 1}], "abc": [0.23849223, 0.6654125, 0.54155095], "xyz": [1.1021107535868, 6.875859076549999, 24.62226651064475], "label": "Li", "properties": {}}, {"species": [{"element": "O", "occu": 1}], "abc": [0.47704241, 0.41395371, 0.03133601999999999], "xyz": [2.2044893033956, 4.277478066875879, 1.4247299092040997], "label": "O", "properties": {}}, {"species": [{"element": "O", "occu": 1}], "abc": [0.50084568, 0.81386385, 0.07757554], "xyz": [2.3144880225887996, 8.4098407230078, 3.5270654046257], "label": "O", "properties": {}}, {"species": [{"element": "O", "occu": 1}], "abc": [0.99917773, 0.31385018, 0.07758061], "xyz": [4.617360158766799, 3.24308546778104, 3.52729591828505], "label": "O", "properties": {}}, {"species": [{"element": "O", "occu": 1}], "abc": [0.02302349, 0.91394895, 0.03133970999999999], "xyz": [0.1063952310484, 9.4440428807106, 1.4248976795005497], "label": "O", "properties": {}}, {"species": [{"element": "O", "occu": 1}], "abc": [0.03916463, 0.20273571, 0.01134205], "xyz": [0.1809860215708, 2.0949143151718803, 0.51567997042025], "label": "O", "properties": {}}, {"species": [{"element": "O", "occu": 1}], "abc": [0.9832841, 0.60896082, 0.053314749999999994], "xyz": [4.543913151556, 6.29253099612696, 2.4240193530237497], "label": "O", "properties": {}}, {"species": [{"element": "O", "occu": 1}], "abc": [0.51680525, 0.10897009, 0.053307030000000005], "xyz": [2.38823974909, 1.1260127851505202, 2.4236683539211503], "label": "O", "properties": {}}, {"species": [{"element": "O", "occu": 1}], "abc": [0.46080109, 0.70278377, 0.01134551], "xyz": [2.1294355650644, 7.26202493010956, 0.51583728348955], "label": "O", "properties": {}}, {"species": [{"element": "O", "occu": 1}], "abc": [0.499696, 0.2130785, 0.12237229999999999], "xyz": [2.30917516736, 2.201788722398, 5.5638040781215], "label": "O", "properties": {}}, {"species": [{"element": "O", "occu": 1}], "abc": [0.49979766, 0.61334533, 0.1678628], "xyz": [2.3096449544856, 6.3378371376252405, 7.632084476674001], "label": "O", "properties": {}}, {"species": [{"element": "O", "occu": 1}], "abc": [0.00016125, 0.11334578, 0.16785258], "xyz": [0.0007451620499999999, 1.1712277875778399, 7.631619812058901], "label": "O", "properties": {}}, {"species": [{"element": "O", "occu": 1}], "abc": [0.00031361, 0.71306067, 0.12237617], "xyz": [0.0014492419875999998, 7.36821848094276, 5.56398003233485], "label": "O", "properties": {}}, {"species": [{"element": "O", "occu": 1}], "abc": [0.00512287, 0.01310947, 0.09979352], "xyz": [0.023673601929199997, 0.13546314246916, 4.5372326379916], "label": "O", "properties": {}}, {"species": [{"element": "O", "occu": 1}], "abc": [0.99906572, 0.41327713, 0.14536213], "xyz": [4.6168425426352, 4.27048681147564, 6.60906440181665], "label": "O", "properties": {}}, {"species": [{"element": "O", "occu": 1}], "abc": [0.50091736, 0.91326073, 0.14533395], "xyz": [2.3148192673375996, 9.43693134653644, 6.60778316415975], "label": "O", "properties": {}}, {"species": [{"element": "O", "occu": 1}], "abc": [0.49493192, 0.51309905, 0.09980494999999999], "xyz": [2.2871595914272, 5.3019694702334, 4.53775231671475], "label": "O", "properties": {}}, {"species": [{"element": "O", "occu": 1}], "abc": [0.50002867, 0.01324677, 0.21322519], "xyz": [2.3107124886571997, 0.13688189467356, 9.694540199703951], "label": "O", "properties": {}}, {"species": [{"element": "O", "occu": 1}], "abc": [0.49986217, 0.41299911, 0.25853], "xyz": [2.3099430655171997, 4.26761396742708, 11.75437797865], "label": "O", "properties": {}}, {"species": [{"element": "O", "occu": 1}], "abc": [0.00012188, 0.91300286, 0.25852343], "xyz": [0.0005632269808, 9.434266717032079, 11.754079265683151], "label": "O", "properties": {}}, {"species": [{"element": "O", "occu": 1}], "abc": [0.99992989, 0.51326342, 0.21324237999999998], "xyz": [4.6208360104724, 5.30366794291976, 9.6953217637679], "label": "O", "properties": {}}, {"species": [{"element": "O", "occu": 1}], "abc": [0.00045048, 0.81317965, 0.19052618999999998], "xyz": [0.0020817401568, 8.4027707284102, 8.662502812408949], "label": "O", "properties": {}}, {"species": [{"element": "O", "occu": 1}], "abc": [0.99986549, 0.21304857, 0.23582236], "xyz": [4.6205384077684, 2.2014794488839597, 10.7219477633438], "label": "O", "properties": {}}, {"species": [{"element": "O", "occu": 1}], "abc": [0.50011663, 0.713048, 0.23582403999999998], "xyz": [2.3111189658908, 7.3680875589440005, 10.7220241465682], "label": "O", "properties": {}}, {"species": [{"element": "O", "occu": 1}], "abc": [0.49951038, 0.31318299, 0.19054838999999998], "xyz": [2.3083173876407996, 3.2361912413917198, 8.66351216215995], "label": "O", "properties": {}}, {"species": [{"element": "O", "occu": 1}], "abc": [0.50009657, 0.81271166, 0.30381148], "xyz": [2.3110262654211997, 8.397934881038479, 13.813155031033402], "label": "O", "properties": {}}, {"species": [{"element": "O", "occu": 1}], "abc": [0.50012444, 0.21281618, 0.34912975], "xyz": [2.3111550571504, 2.1990781100290397, 15.87360478509875], "label": "O", "properties": {}}, {"species": [{"element": "O", "occu": 1}], "abc": [0.99989564, 0.71281686, 0.34912876], "xyz": [4.620677735742399, 7.36569913662408, 15.8735597735558], "label": "O", "properties": {}}, {"species": [{"element": "O", "occu": 1}], "abc": [0.999924, 0.3127014, 0.30381251], "xyz": [4.62080879184, 3.2312148621192, 13.81320186122455], "label": "O", "properties": {}}, {"species": [{"element": "O", "occu": 1}], "abc": [6.799e-05, 0.6129278, 0.28114344], "xyz": [0.0003141926684, 6.3335227049384, 12.782525277445203], "label": "O", "properties": {}}, {"species": [{"element": "O", "occu": 1}], "abc": [3.865e-05, 0.01289212, 0.3265131], "xyz": [0.00017860783399999998, 0.13321721536336, 14.8453115397855], "label": "O", "properties": {}}, {"species": [{"element": "O", "occu": 1}], "abc": [0.49999186, 0.51287492, 0.32651564], "xyz": [2.3105423837576, 5.299653483841761, 14.8454270239462], "label": "O", "properties": {}}, {"species": [{"element": "O", "occu": 1}], "abc": [0.49992642, 0.11293229, 0.2811372], "xyz": [2.3102399750471996, 1.16695510113212, 12.782241568325999], "label": "O", "properties": {}}, {"species": [{"element": "O", "occu": 1}], "abc": [0.49985484, 0.61269626, 0.39445122], "xyz": [2.3099091924144, 6.33113014932728, 17.9342000310201], "label": "O", "properties": {}}, {"species": [{"element": "O", "occu": 1}], "abc": [0.50065542, 0.01204719, 0.43995064], "xyz": [2.3136088006871995, 0.12448636102932, 20.0028859881212], "label": "O", "properties": {}}, {"species": [{"element": "O", "occu": 1}], "abc": [0.99951543, 0.51208836, 0.43994799], "xyz": [4.6189207244988, 5.29152578002608, 20.002765502677953], "label": "O", "properties": {}}, {"species": [{"element": "O", "occu": 1}], "abc": [0.0002237, 0.11266903, 0.3944533], "xyz": [0.0010337534919999999, 1.16423477552884, 17.934294600726503], "label": "O", "properties": {}}, {"species": [{"element": "O", "occu": 1}], "abc": [3.553e-05, 0.41276148, 0.37185640999999997], "xyz": [0.00016418981479999998, 4.26515848245744, 16.90689976762405], "label": "O", "properties": {}}, {"species": [{"element": "O", "occu": 1}], "abc": [0.99965399, 0.81239265, 0.41719], "xyz": [4.6195610324283995, 8.394638477974201, 18.968046063950002], "label": "O", "properties": {}}, {"species": [{"element": "O", "occu": 1}], "abc": [0.50049182, 0.31236329, 0.41718981], "xyz": [2.3128527789112, 3.22772109440012, 18.96803742537105], "label": "O", "properties": {}}, {"species": [{"element": "O", "occu": 1}], "abc": [0.49999823, 0.9127551, 0.37185374], "xyz": [2.3105718205467998, 9.431706556462801, 16.9067783728567], "label": "O", "properties": {}}, {"species": [{"element": "O", "occu": 1}], "abc": [0.4996208, 0.41192269, 0.48541849], "xyz": [2.308827656128, 4.2564910741433195, 22.07013657713045], "label": "O", "properties": {}}, {"species": [{"element": "O", "occu": 1}], "abc": [0.49986496, 0.81009999, 0.53011545], "xyz": [2.3099559585536, 8.370947899467719, 24.102337723367253], "label": "O", "properties": {}}, {"species": [{"element": "O", "occu": 1}], "abc": [6.806e-05, 0.3100753, 0.5301264], "xyz": [0.00031451614959999996, 3.2040787720684, 24.102835578312], "label": "O", "properties": {}}, {"species": [{"element": "O", "occu": 1}], "abc": [0.00049529, 0.91193582, 0.48542196], "xyz": [0.0022888143364, 9.42324074942696, 22.0702943448618], "label": "O", "properties": {}}, {"species": [{"element": "O", "occu": 1}], "abc": [0.00133105, 0.21193093, 0.46246301], "xyz": [0.006150995018, 2.18993061994204, 21.02643801757705], "label": "O", "properties": {}}, {"species": [{"element": "O", "occu": 1}], "abc": [0.99399417, 0.61166911, 0.50799952], "xyz": [4.5934060986372, 6.32051637418708, 23.096810316221603], "label": "O", "properties": {}}, {"species": [{"element": "O", "occu": 1}], "abc": [0.50608757, 0.11166682, 0.50800792], "xyz": [2.3387116349812, 1.15387871109496, 23.0971922323436], "label": "O", "properties": {}}, {"species": [{"element": "O", "occu": 1}], "abc": [0.49875784, 0.71195729, 0.46246321], "xyz": [2.3048397798944, 7.35681700383212, 21.02644711081805], "label": "O", "properties": {}}, {"species": [{"element": "O", "occu": 1}], "abc": [0.52345058, 0.20948223, 0.57642783], "xyz": [2.4189488822728, 2.16462764453844, 26.20798588648515], "label": "O", "properties": {}}, {"species": [{"element": "O", "occu": 1}], "abc": [0.97641008, 0.70949267, 0.57640639], "xyz": [4.512147205292799, 7.33134952343876, 26.207011091049953], "label": "O", "properties": {}}, {"species": [{"element": "O", "occu": 1}], "abc": [0.01698411, 0.01495877, 0.55445106], "xyz": [0.0784862897676, 0.15457238100956, 25.2087855564273], "label": "O", "properties": {}}, {"species": [{"element": "O", "occu": 1}], "abc": [0.96063342, 0.42055106, 0.59640948], "xyz": [4.4392407351672, 4.3456499886216795, 27.116475681623402], "label": "O", "properties": {}}, {"species": [{"element": "O", "occu": 1}], "abc": [0.53914856, 0.92049724, 0.59639432], "xyz": [2.4914917595296, 9.51170785429072, 27.115786413955604], "label": "O", "properties": {}}, {"species": [{"element": "O", "occu": 1}], "abc": [0.48294053, 0.51495051, 0.5544323], "xyz": [2.2317454596147996, 5.3211010285462805, 25.2079326104215], "label": "O", "properties": {}}]}, "formula": "(Li2O)54.0", "bandgap": 2.949, "slab_thickness": 27.62701342425815}