{"miller": "02-1_0.09", "final_energy": -494.2992753, "sigma": 0.007593575087123626, "incar_parameters": {"SYSTEM": "unknown system", "LCOMPAT": false, "PREC": "normal", "ENMAX": 520.0, "ENAUG": 628.945, "EDIFF": 1e-05, "IALGO": 38, "IWAVPR": 11, "NBANDS": 336, "NBANDSLOW": -1, "NBANDSHIGH": -1, "NELECT": 552.0, "TURBO": 0, "IRESTART": 0, "NREBOOT": 0, "NMIN": 0, "EREF": 0.0, "ISMEAR": 0, "SIGMA": 0.05, "KSPACING": 0.5, "KGAMMA": true, "KBLOWUP": true, "LREAL": true, "ROPT": [-0.0005, -0.0005, -0.0005, -0.0005], "LMAXPAW": -100, "LMAXMIX": 2, "NLSPLINE": false, "ISTART": 0, "ICHARG": 2, "INIWAV": 1, "ISPIN": 1, "LNONCOLLINEAR": false, "MAGMOM": [0.6, 0.6, 0.6, 0.6, 0.6, 0.6, 0.6, 0.6, 0.6, 0.6, 0.6, 0.6, 0.6, 0.6, 0.6, 0.6, 0.6, 0.6, 0.6, 0.6, 0.6, 0.6, 0.6, 0.6, 0.6, 0.6, 0.6, 0.6, 0.6, 0.6, 0.6, 0.6, 0.6, 0.6, 0.6, 0.6, 0.6, 0.6, 0.6, 0.6, 0.6, 0.6, 0.6, 0.6, 0.6, 0.6, 0.6, 0.6, 0.6, 0.6, 0.6, 0.6, 0.6, 0.6, 0.6, 0.6, 0.6, 0.6, 0.6, 0.6, 0.6, 0.6, 0.6, 0.6, 0.6, 0.6, 0.6, 0.6, 0.6, 0.6, 0.6, 0.6, 0.6, 0.6, 0.6, 0.6, 0.6, 0.6, 0.6, 0.6, 0.6, 0.6, 0.6, 0.6, 0.6, 0.6, 0.6, 0.6, 0.6, 0.6, 0.6, 0.6, 0.6, 0.6, 0.6, 0.6, 0.6, 0.6, 0.6, 0.6, 0.6, 0.6, 0.6, 0.6, 0.6, 0.6, 0.6, 0.6, 0.6, 0.6, 0.6, 0.6, 0.6, 0.6, 0.6, 0.6, 0.6, 0.6], "NUPDOWN": -1.0, "LSORBIT": false, "SAXIS": [0.0, 0.0, 1.0], "LSPIRAL": false, "QSPIRAL": [0.0, 0.0, 0.0], "LZEROZ": false, "LASPH": false, "LMETAGGA": false, "NELM": 100, "NELMDL": -5, "NELMIN": 6, "ENINI": 520.0, "LDIAG": true, "LSUBROT": false, "WEIMIN": 0.001, "EBREAK": 1e-08, "DEPER": 0.3, "NRMM": 4, "TIME": 0.4, "AMIX": 0.4, "BMIX": 1.0, "AMIN": 0.1, "AMIX_MAG": 1.6, "BMIX_MAG": 1.0, "IMIX": 4, "MIXFIRST": false, "MAXMIX": -45, "WC": 100.0, "INIMIX": 1, "MIXPRE": 1, "MREMOVE": 5, "LDIPOL": false, "LMONO": false, "IDIPOL": 0, "EPSILON": 1.0, "DIPOL": [-100.0, -100.0, -100.0], "EFIELD": 0.0, "NGX": 40, "NGY": 70, "NGZ": 192, "NGXF": 80, "NGYF": 140, "NGZF": 384, "ADDGRID": false, "NSW": 150, "IBRION": 2, "MDALGO": 0, "ISIF": 3, "PSTRESS": 0.0, "EDIFFG": -0.01, "NFREE": 1, "POTIM": 0.5, "SMASS": -3.0, "SCALEE": 1.0, "TEBEG": 0.0001, "TEEND": 0.0001, "NBLOCK": 1, "KBLOCK": 150, "NPACO": 256, "APACO": 10.0, "ISYM": 0, "SYMPREC": 1e-05, "LORBIT": 11, "RWIGS": [-1.0, -1.0, -1.0, -1.0], "NEDOS": 301, "EMIN": 10.0, "EMAX": -10.0, "EFERMI": 0.0, "NWRITE": 2, "LWAVE": false, "LDOWNSAMPLE": false, "LCHARG": false, "LPARD": false, "LVTOT": false, "LVHAR": false, "LELF": false, "LOPTICS": false, "STM": [0.0, 0.0, 0.0, 0.0, 0.0, 0.0, 0.0], "NPAR": 1, "NSIM": 4, "NBLK": -1, "LPLANE": true, "LSCALAPACK": true, "LSCAAWARE": false, "LSCALU": false, "LASYNC": false, "LORBITALREAL": false, "IDIOT": 3, "PHON_NSTRUCT": -1, "LMUSIC": false, "POMASS": [7.01, 30.974, 32.066, 35.453], "DARWINR": [0.0, 0.0, 0.0, 0.0], "DARWINV": [1.0, 1.0, 1.0, 1.0], "LCORR": true, "GGA_COMPAT": true, "LBERRY": false, "ICORELEVEL": 0, "LDAU": false, "I_CONSTRAINED_M": 0, "GGA": "--", "VOSKOWN": 0, "LHFCALC": false, "PRECFOCK": "", "LSYMGRAD": false, "LHFONE": false, "LRHFCALC": false, "LTHOMAS": false, "LMODELHF": false, "LFOCKACE": false, "ENCUT4O": -1.0, "EXXOEP": 0, "FOURORBIT": 0, "AEXX": 0.0, "HFALPHA": 0.0, "MCALPHA": 0.0, "ALDAX": 1.0, "AGGAX": 1.0, "ALDAC": 1.0, "AGGAC": 1.0, "NKREDX": 1, "NKREDY": 1, "NKREDZ": 1, "SHIFTRED": false, "ODDONLY": false, "EVENONLY": false, "LMAXFOCK": 0, "NMAXFOCKAE": 0, "LFOCKAEDFT": false, "HFSCREEN": 0.0, "HFSCREENC": 0.0, "NBANDSGWLOW": 0, "LUSE_VDW": false, "Zab_VDW": -0.8491, "PARAM1": 0.1234, "PARAM2": 1.0, "PARAM3": 0.0, "MODEL_GW": 0, "MODEL_EPS0": 11.94672506, "MODEL_ALPHA": 1.0, "LEPSILON": false, "LRPA": false, "LNABLA": false, "LVEL": false, "CSHIFT": 0.1, "OMEGAMAX": -1.0, "DEG_THRESHOLD": 0.002, "RTIME": -0.1, "WPLASMAI": 0.0, "DFIELD": [0.0, 0.0, 0.0], "WPLASMA": [0.0, 0.0, 0.0, 0.0, 0.0, 0.0, 0.0, 0.0, 0.0], "NUCIND": false, "MAGPOS": [0.0, 0.0, 0.0], "LNICSALL": true, "ORBITALMAG": false, "LMAGBLOCH": false, "LCHIMAG": false, "LGAUGE": true, "MAGATOM": 0, "MAGDIPOL": [0.0, 0.0, 0.0], "AVECCONST": [0.0, 0.0, 0.0], "LFINITE_TEMPERATURE": false, "LADDER": false, "LRPAFORCE": false, "LFXC": false, "LHARTREE": true, "IBSE": 0, "KPOINT": [-1, 0, 0, 0], "LTCTC": false, "LTCTE": false, "LTETE": false, "LTRIPLET": false, "LFXCEPS": false, "LFXHEG": false, "NATURALO": 2, "LHOLEGF": false, "L2ORDER": false, "LDMP1": false, "LMP2LT": false, "LSMP2LT": false, "LGWLF": false, "ENCUTGW": -2.0, "ENCUTGWSOFT": -2.0, "ENCUTLF": -1.0, "LESF_SPLINES": false, "LMAXMP2": -1, "SCISSOR": 0.0, "NOMEGA": 0, "NOMEGAR": 0, "NBANDSGW": -1, "NBANDSO": -1, "NBANDSV": -1, "NELMGW": 1, "NELMHF": 1, "DIM": 3, "IESPILON": 4, "ANTIRES": 0, "OMEGAMIN": -30.0, "OMEGATL": -200.0, "OMEGAGRID": 0, "LSELFENERGY": false, "LSPECTRAL": false, "LSPECTRALGW": false, "LSINGLES": false, "LFERMIGW": false, "ODDONLYGW": false, "EVENONLYGW": false, "NKREDLFX": 1, "NKREDLFY": 1, "NKREDLFZ": 1, "MAXMEM": 2800, "TELESCOPE": 0, "NTAUPAR": -1, "NOMEGAPAR": -1, "DAMP_NEWTON": 0.80000001, "LAMBDA": 1.0, "OFIELD_KAPPA": 0.0, "OFIELD_K": [0.0, 0.0, 0.0], "OFIELD_Q6_NEAR": 0.0, "OFIELD_Q6_FAR": 0.0, "OFIELD_A": 0.0, "KPOINTS_OPT_MODE": 1, "LKPOINTS_OPT": false, "@module": "pymatgen.io.vasp.inputs", "@class": "Incar"}, "relaxed_structures": {"@module": "pymatgen.core.structure", "@class": "Structure", "charge": 0, "lattice": {"matrix": [[6.91447708, 0.0004357, 0.0002555], [-6.91563442, 9.97680101, -0.00734049], [0.00141527, -0.01681398, 34.05729555]], "a": 6.914477098447869, "b": 12.139300297258455, "c": 34.05729972991051, "alpha": 90.05925022019798, "beta": 89.9955036622494, "gamma": 124.72498202758264, "volume": 2349.5225942373104}, "sites": [{"species": [{"element": "Li", "occu": 1}], "abc": [0.63353054, 0.8528506, 0.06800287], "xyz": [-1.5173743237458046, 8.507853357819263, 2.309895367590405], "label": "Li", "properties": {}}, {"species": [{"element": "Li", "occu": 1}], "abc": [0.07564393, 0.22609271, 0.07978264], "xyz": [-1.0404233931840412, 2.254373471828631, 2.715540645986539], "label": "Li", "properties": {}}, {"species": [{"element": "Li", "occu": 1}], "abc": [0.35600005, 0.0019748, 0.04342703], "xyz": [2.4479586523239862, 0.0191271146424536, 1.4790836575818396], "label": "Li", "properties": {}}, {"species": [{"element": "Li", "occu": 1}], "abc": [0.61803775, 0.31987006, 0.10410596], "xyz": [2.0614507981283143, 3.189798781195115, 3.5433773539048734], "label": "Li", "properties": {}}, {"species": [{"element": "Li", "occu": 1}], "abc": [0.96105753, 0.9003545, 0.99140171], "xyz": [0.4200907944426351, 8.96640700919996, 33.758097553240596], "label": "Li", "properties": {}}, {"species": [{"element": "Li", "occu": 1}], "abc": [0.0845999, 0.03844687, 0.12511857], "xyz": [0.3192566485655905, 0.38150989049016015, 4.260939513693048], "label": "Li", "properties": {}}, {"species": [{"element": "Li", "occu": 1}], "abc": [0.93002055, 0.63833006, 0.10558852], "xyz": [2.0162978789120283, 6.367121834011487, 3.5916113971554817], "label": "Li", "properties": {}}, {"species": [{"element": "Li", "occu": 1}], "abc": [0.59510876, 0.31247125, 0.18311688], "xyz": [1.9541881091935538, 3.1146438479247123, 6.234324060556152], "label": "Li", "properties": {}}, {"species": [{"element": "Li", "occu": 1}], "abc": [0.60307355, 0.93179175, 0.28481742], "xyz": [-2.273589765992798, 9.291774717251872, 9.693425327997549], "label": "Li", "properties": {}}, {"species": [{"element": "Li", "occu": 1}], "abc": [0.01987229, 0.29481454, 0.31451156], "xyz": [-1.9009779678328325, 2.9360264677118297, 10.70925414699893], "label": "Li", "properties": {}}, {"species": [{"element": "Li", "occu": 1}], "abc": [0.23109589, 0.93489522, 0.21415884], "xyz": [-4.867183235256784, 9.323763401166865, 7.286867364511599], "label": "Li", "properties": {}}, {"species": [{"element": "Li", "occu": 1}], "abc": [0.33484299, 0.48392453, 0.1432022], "xyz": [-1.0311782868190593, 4.825756831831764, 4.873612958020935], "label": "Li", "properties": {}}, {"species": [{"element": "Li", "occu": 1}], "abc": [0.02412731, 0.79988865, 0.28974604], "xyz": [-5.364499679232248, 7.975468619354865, 9.862101108613388], "label": "Li", "properties": {}}, {"species": [{"element": "Li", "occu": 1}], "abc": [0.62205993, 0.34923767, 0.31867309], "xyz": [1.8864700854228877, 3.47918760733575, 10.850738970649607], "label": "Li", "properties": {}}, {"species": [{"element": "Li", "occu": 1}], "abc": [0.59416229, 0.81089954, 0.21136389], "xyz": [-1.4992640970082534, 8.086888357971107, 7.1926818788284095], "label": "Li", "properties": {}}, {"species": [{"element": "Li", "occu": 1}], "abc": [0.16285025, 0.07754662, 0.32049016], "xyz": [0.5901938267793528, 0.7683494354515744, 10.91450047803702], "label": "Li", "properties": {}}, {"species": [{"element": "Li", "occu": 1}], "abc": [0.97544309, 0.61080066, 0.20543843], "xyz": [2.5208955714414856, 6.0908074044977285, 6.992442977410758], "label": "Li", "properties": {}}, {"species": [{"element": "Li", "occu": 1}], "abc": [0.04571797, 0.21230354, 0.19637392], "xyz": [-1.1518198908849608, 2.1148282644547027, 6.6864179006810565], "label": "Li", "properties": {}}, {"species": [{"element": "Li", "occu": 1}], "abc": [0.19993647, 0.58789663, 0.27971732], "xyz": [-2.68282615502742, 5.860711642855442, 9.522151072128462], "label": "Li", "properties": {}}, {"species": [{"element": "Li", "occu": 1}], "abc": [0.53431402, 0.31617944, 0.41143442], "xyz": [1.50850291744393, 3.147774306842557, 14.010159246597416], "label": "Li", "properties": {}}, {"species": [{"element": "Li", "occu": 1}], "abc": [0.83420976, 0.86829726, 0.40860665], "xyz": [-0.23612386388184167, 8.656322141699697, 13.909876855985031], "label": "Li", "properties": {}}, {"species": [{"element": "Li", "occu": 1}], "abc": [0.39569078, 0.50016755, 0.35580461], "xyz": [-0.7224775358793537, 4.984262028885625, 12.114172384917676], "label": "Li", "properties": {}}, {"species": [{"element": "Li", "occu": 1}], "abc": [0.9623148, 0.87450604, 0.50980192], "xyz": [0.6068610649862065, 8.71662022439462, 17.356301229987295], "label": "Li", "properties": {}}, {"species": [{"element": "Li", "occu": 1}], "abc": [0.61957901, 0.01967603, 0.47030575], "xyz": [4.148658243195941, 0.18866607507706235, 16.017355797350014], "label": "Li", "properties": {}}, {"species": [{"element": "Li", "occu": 1}], "abc": [0.15557022, 0.69193572, 0.38275403], "xyz": [-3.708946060842887, 6.896937153490593, 13.030527723621473], "label": "Li", "properties": {}}, {"species": [{"element": "Li", "occu": 1}], "abc": [0.04004967, 0.2033514, 0.41179007], "xyz": [-1.1287986217862553, 2.0218900725449545, 14.022973652317688], "label": "Li", "properties": {}}, {"species": [{"element": "Li", "occu": 1}], "abc": [0.05020376, 0.58243856, 0.5918368], "xyz": [-3.6799617963534788, 5.800944355330715, 20.152098257601626], "label": "Li", "properties": {}}, {"species": [{"element": "Li", "occu": 1}], "abc": [0.85410986, 0.13610515, 0.58898661], "xyz": [4.96530316577228, 1.348362924571396, 20.05851019833929], "label": "Li", "properties": {}}, {"species": [{"element": "Li", "occu": 1}], "abc": [0.52658821, 0.43018431, 0.53027668], "xyz": [0.6668351721401803, 4.283176631485263, 18.056766393694716], "label": "Li", "properties": {}}, {"species": [{"element": "Li", "occu": 1}], "abc": [0.34619598, 0.95193884, 0.64462393], "xyz": [-4.188584521831323, 9.486616524092174, 21.94724845814977], "label": "Li", "properties": {}}, {"species": [{"element": "Li", "occu": 1}], "abc": [0.16441806, 0.5774701, 0.49029587], "xyz": [-2.856013291636842, 5.753132088921281, 16.69395444685436], "label": "Li", "properties": {}}, {"species": [{"element": "Li", "occu": 1}], "abc": [0.588645, 0.25033518, 0.58851623], "xyz": [2.3397786827765366, 2.4879054491681365, 20.041583996993836], "label": "Li", "properties": {}}, {"species": [{"element": "Li", "occu": 1}], "abc": [0.72975259, 0.76047681, 0.61668834], "xyz": [-0.2124492647152109, 7.577074773878048, 20.997341236986593], "label": "Li", "properties": {}}, {"species": [{"element": "Li", "occu": 1}], "abc": [0.3801431, 0.15673611, 0.68588496], "xyz": [1.545531827304581, 1.5523581529004005, 23.358333402733884], "label": "Li", "properties": {}}, {"species": [{"element": "Li", "occu": 1}], "abc": [0.31287212, 0.5178018, 0.78596366], "xyz": [-1.4164684973178583, 5.152926662342536, 26.76407568007149], "label": "Li", "properties": {}}, {"species": [{"element": "Li", "occu": 1}], "abc": [0.91907814, 0.13612347, 0.81681286], "xyz": [5.414720589993566, 1.3447433402345201, 27.81767259355524], "label": "Li", "properties": {}}, {"species": [{"element": "Li", "occu": 1}], "abc": [0.68824996, 0.51657809, 0.71586289], "xyz": [1.18743649318139, 5.142060176248241, 24.376737929568055], "label": "Li", "properties": {}}, {"species": [{"element": "Li", "occu": 1}], "abc": [0.8761396, 0.10361665, 0.68121448], "xyz": [5.342436414272385, 1.022690505754106, 23.199786134984205], "label": "Li", "properties": {}}, {"species": [{"element": "Li", "occu": 1}], "abc": [0.92271477, 0.63874615, 0.78869829], "xyz": [1.963871488988877, 6.359784104004807, 26.856477806206733], "label": "Li", "properties": {}}, {"species": [{"element": "Li", "occu": 1}], "abc": [0.31490963, 0.96596001, 0.85546524], "xyz": [-4.501580160303049, 9.622944234077346, 29.12782235104834], "label": "Li", "properties": {}}, {"species": [{"element": "Li", "occu": 1}], "abc": [0.38331755, 0.65480828, 0.7096825], "xyz": [-1.8769698734804687, 6.521126333355548, 24.16515797316564], "label": "Li", "properties": {}}, {"species": [{"element": "Li", "occu": 1}], "abc": [0.58809008, 0.24667012, 0.80162149], "xyz": [2.3615895177239885, 2.447756485500247, 27.299399581627654], "label": "Li", "properties": {}}, {"species": [{"element": "Li", "occu": 1}], "abc": [0.97637412, 0.86240833, 0.72048567], "xyz": [0.7880354249566327, 8.592387472334831, 24.531712366595148], "label": "Li", "properties": {}}, {"species": [{"element": "Li", "occu": 1}], "abc": [0.95624255, 0.37547298, 0.67912655], "xyz": [4.016244478060202, 3.7350170207415765, 23.126701793518418], "label": "Li", "properties": {}}, {"species": [{"element": "Li", "occu": 1}], "abc": [0.70515772, 0.8392717, 0.79469773], "xyz": [-0.9271746516705186, 8.360191949704754, 27.059274965800427], "label": "Li", "properties": {}}, {"species": [{"element": "Li", "occu": 1}], "abc": [0.57190727, 0.22128949, 0.91954117], "xyz": [2.4253838955037916, 2.1925492404903677, 31.315607146101826], "label": "Li", "properties": {}}, {"species": [{"element": "Li", "occu": 1}], "abc": [0.87123724, 0.59315288, 0.93155144], "xyz": [1.9234398507788184, 5.902484763052746, 31.7219912804388], "label": "Li", "properties": {}}, {"species": [{"element": "Li", "occu": 1}], "abc": [0.92767172, 0.12848047, 0.89520224], "xyz": [5.527107837948605, 1.2671763568703638, 30.487461175221263], "label": "Li", "properties": {}}, {"species": [{"element": "Li", "occu": 1}], "abc": [0.11211373, 0.54982376, 0.0079659], "xyz": [-3.027161029252218, 5.4853971535588775, 0.26728967986771757], "label": "Li", "properties": {}}, {"species": [{"element": "Li", "occu": 1}], "abc": [0.29971946, 0.446361, 0.95596392], "xyz": [-1.013113211688585, 4.437311905161731, 32.55434582844169], "label": "Li", "properties": {}}, {"species": [{"element": "Li", "occu": 1}], "abc": [0.59994685, 0.81026215, 0.89406327], "xyz": [-1.4538927292958719, 8.069052871386804, 30.443582592000165], "label": "Li", "properties": {}}, {"species": [{"element": "Li", "occu": 1}], "abc": [0.95692898, 0.40905478, 0.87474786], "xyz": [3.7890281875680736, 4.066767083182832, 29.788788232582373], "label": "Li", "properties": {}}, {"species": [{"element": "P", "occu": 1}], "abc": [0.53301025, 0.00836928, 0.14126669], "xyz": [3.6278082066998087, 0.08135561842257161, 4.811236162202958], "label": "P", "properties": {}}, {"species": [{"element": "P", "occu": 1}], "abc": [0.56576794, 0.53622425, 0.03588988], "xyz": [0.203709367460598, 5.349445692353428, 1.2185206553778216], "label": "P", "properties": {}}, {"species": [{"element": "P", "occu": 1}], "abc": [0.49400196, 0.01628053, 0.36094566], "xyz": [3.3036858718154627, 0.15657391169298054, 12.292839730542934], "label": "P", "properties": {}}, {"species": [{"element": "P", "occu": 1}], "abc": [0.50921465, 0.50859463, 0.24688325], "xyz": [0.004047903627284602, 5.070218193059747, 8.404572582142043], "label": "P", "properties": {}}, {"species": [{"element": "P", "occu": 1}], "abc": [0.57849025, 0.54728151, 0.454061], "xyz": [0.21580134555436536, 5.452736197351471, 15.460220164536086], "label": "P", "properties": {}}, {"species": [{"element": "P", "occu": 1}], "abc": [0.41360699, 0.43344198, 0.63985311], "xyz": [-0.13674465856717233, 4.313786115011466, 21.788590475922838], "label": "P", "properties": {}}, {"species": [{"element": "P", "occu": 1}], "abc": [0.43556233, 0.90401353, 0.54656562], "xyz": [-3.2393677985922884, 9.01016293026148, 18.608022241707474], "label": "P", "properties": {}}, {"species": [{"element": "P", "occu": 1}], "abc": [0.46464238, 0.43946101, 0.85837302], "xyz": [0.17482222948670198, 4.370184826317767, 29.23075649126486], "label": "P", "properties": {}}, {"species": [{"element": "P", "occu": 1}], "abc": [0.44413611, 0.94178592, 0.75306669], "xyz": [-3.4410123789336517, 9.383542179698582, 25.640615136838434], "label": "P", "properties": {}}, {"species": [{"element": "P", "occu": 1}], "abc": [0.44031351, 0.91157366, 0.96368555], "xyz": [-3.2582086313036775, 9.078577466809715, 32.81394469638062], "label": "P", "properties": {}}, {"species": [{"element": "S", "occu": 1}], "abc": [0.5901868, 0.64543523, 0.08429168], "xyz": [-0.38264169546411886, 6.4382187203206565, 2.8661596400419613], "label": "S", "properties": {}}, {"species": [{"element": "S", "occu": 1}], "abc": [0.65278524, 0.12989439, 0.09186585], "xyz": [3.615496480674925, 1.294670269309819, 3.1279157025599367], "label": "S", "properties": {}}, {"species": [{"element": "S", "occu": 1}], "abc": [0.6711874, 0.64832383, 0.98444611], "xyz": [0.15873255667666217, 6.451937821096632, 33.52298459510763], "label": "S", "properties": {}}, {"species": [{"element": "S", "occu": 1}], "abc": [0.2201211, 0.38539399, 0.02544933], "xyz": [-1.143185624057479, 3.8446671509175676, 0.8639626135708763], "label": "S", "properties": {}}, {"species": [{"element": "S", "occu": 1}], "abc": [0.17185885, 0.878718, 0.14056805], "xyz": [-4.888379425209278, 8.764506000424786, 4.780961312981532], "label": "S", "properties": {}}, {"species": [{"element": "S", "occu": 1}], "abc": [0.77045063, 0.46773456, 0.04831193], "xyz": [2.0926503742721767, 4.666018000134616, 1.6421371278765422], "label": "S", "properties": {}}, {"species": [{"element": "S", "occu": 1}], "abc": [0.667235, 0.89574096, 0.14187484], "xyz": [-1.5808351087012362, 8.934534547993607, 4.825468657971991], "label": "S", "properties": {}}, {"species": [{"element": "S", "occu": 1}], "abc": [0.28518711, 0.26972252, 0.14016861], "xyz": [0.10681576887397513, 2.6887353737744046, 4.771856747448456], "label": "S", "properties": {}}, {"species": [{"element": "S", "occu": 1}], "abc": [0.62726194, 0.12131965, 0.19167931], "xyz": [3.498457237901046, 1.2074324125953506, 6.5273486312381115], "label": "S", "properties": {}}, {"species": [{"element": "S", "occu": 1}], "abc": [0.60237605, 0.62968558, 0.29534339], "xyz": [-0.1891418889201638, 6.277544287918828, 10.054128828346554], "label": "S", "properties": {}}, {"species": [{"element": "S", "occu": 1}], "abc": [0.58786581, 0.12544196, 0.30912506], "xyz": [3.197711428496038, 1.2465679837814578, 10.527192924592978], "label": "S", "properties": {}}, {"species": [{"element": "S", "occu": 1}], "abc": [0.62786332, 0.62478799, 0.19663119], "xyz": [0.02081949289036146, 6.230352856820358, 6.6923007212637495], "label": "S", "properties": {}}, {"species": [{"element": "S", "occu": 1}], "abc": [0.14827352, 0.38313036, 0.24607873], "xyz": [-1.6240073815078626, 3.818342402537682, 8.378001555486733], "label": "S", "properties": {}}, {"species": [{"element": "S", "occu": 1}], "abc": [0.1269711, 0.88912586, 0.35973814], "xyz": [-5.270421513758316, 8.864638469482193, 12.245213976219256], "label": "S", "properties": {}}, {"species": [{"element": "S", "occu": 1}], "abc": [0.66798241, 0.40819642, 0.24804685], "xyz": [1.7961629047807866, 4.068614840495458, 8.444979188463227], "label": "S", "properties": {}}, {"species": [{"element": "S", "occu": 1}], "abc": [0.60216085, 0.8912837, 0.35642391], "xyz": [-1.9996604018395308, 8.886429575344621, 12.132445836966763], "label": "S", "properties": {}}, {"species": [{"element": "S", "occu": 1}], "abc": [0.27810811, 0.27578451, 0.35443049], "xyz": [0.016248917337867343, 2.7456089624436317, 12.068990613045614], "label": "S", "properties": {}}, {"species": [{"element": "S", "occu": 1}], "abc": [0.26928896, 0.77749054, 0.24724469], "xyz": [-3.5144980798389334, 7.752828566664551, 8.414847122293445], "label": "S", "properties": {}}, {"species": [{"element": "S", "occu": 1}], "abc": [0.621994, 0.13774345, 0.40931716], "xyz": [3.348759207245004, 1.3676277433247876, 13.939383306856348], "label": "S", "properties": {}}, {"species": [{"element": "S", "occu": 1}], "abc": [0.61301358, 0.64119112, 0.50621192], "xyz": [-0.19485860408758623, 6.388791866537196, 17.2356589383382], "label": "S", "properties": {}}, {"species": [{"element": "S", "occu": 1}], "abc": [0.49586765, 0.63696548, 0.41231373], "xyz": [-0.9757713619487021, 6.348161258924295, 14.037741617381192], "label": "S", "properties": {}}, {"species": [{"element": "S", "occu": 1}], "abc": [0.31492155, 0.3494767, 0.46476123], "xyz": [-0.23867749340895744, 3.478982218824807, 15.82602570252597], "label": "S", "properties": {}}, {"species": [{"element": "S", "occu": 1}], "abc": [0.86330188, 0.54714186, 0.43498342], "xyz": [2.186063601726913, 5.451787799566183, 14.81056317856821], "label": "S", "properties": {}}, {"species": [{"element": "S", "occu": 1}], "abc": [0.17456115, 0.8133134, 0.58855781], "xyz": [-4.416746104342027, 8.104446007613404, 20.038761764925002], "label": "S", "properties": {}}, {"species": [{"element": "S", "occu": 1}], "abc": [0.29700824, 0.31172984, 0.59153763], "xyz": [-0.10131575773234375, 3.100249887169239, 20.143959529688644], "label": "S", "properties": {}}, {"species": [{"element": "S", "occu": 1}], "abc": [0.28173686, 0.80979984, 0.49448993], "xyz": [-3.651516748990093, 8.071020270566521, 16.83511734864902], "label": "S", "properties": {}}, {"species": [{"element": "S", "occu": 1}], "abc": [0.72225497, 0.90542588, 0.56541926], "xyz": [-1.2667787235896013, 9.024061572425314, 19.250189114009245], "label": "S", "properties": {}}, {"species": [{"element": "S", "occu": 1}], "abc": [0.77182581, 0.55484381, 0.64465139], "xyz": [1.50058727861022, 5.525063412927234, 21.951207292003904], "label": "S", "properties": {}}, {"species": [{"element": "S", "occu": 1}], "abc": [0.5660085, 0.10145942, 0.53577339], "xyz": [3.212754807155609, 1.003478570769472, 18.24639254436925], "label": "S", "properties": {}}, {"species": [{"element": "S", "occu": 1}], "abc": [0.30681281, 0.56352621, 0.64040554], "xyz": [-1.7747847651041575, 5.611554773489341, 21.806422579801062], "label": "S", "properties": {}}, {"species": [{"element": "S", "occu": 1}], "abc": [0.67741721, 0.17617875, 0.6458583], "xyz": [3.4665120084462133, 1.7471360330799006, 21.995066848265132], "label": "S", "properties": {}}, {"species": [{"element": "S", "occu": 1}], "abc": [0.28499955, 0.3248504, 0.69164083], "xyz": [-0.2749448927879797, 3.2294627380400356, 23.553104418029633], "label": "S", "properties": {}}, {"species": [{"element": "S", "occu": 1}], "abc": [0.32970566, 0.82452197, 0.80318679], "xyz": [-3.421213560393652, 8.212730509195929, 27.348401733406348], "label": "S", "properties": {}}, {"species": [{"element": "S", "occu": 1}], "abc": [0.33297183, 0.32756237, 0.80787554], "xyz": [0.03816784816737739, 3.2545860565082756, 27.51173663939705], "label": "S", "properties": {}}, {"species": [{"element": "S", "occu": 1}], "abc": [0.29366657, 0.82067498, 0.70458974], "xyz": [-3.6439401871722668, 8.175991962073715, 23.99047189200235], "label": "S", "properties": {}}, {"species": [{"element": "S", "occu": 1}], "abc": [0.80327738, 0.0414294, 0.75181926], "xyz": [5.268796475496603, 0.40104179371690524, 25.604831863276477], "label": "S", "properties": {}}, {"species": [{"element": "S", "occu": 1}], "abc": [0.8242136, 0.5516348, 0.85781947], "xyz": [1.8853154822357792, 5.489486380244477, 29.211172535176104], "label": "S", "properties": {}}, {"species": [{"element": "S", "occu": 1}], "abc": [0.33410677, 0.06703716, 0.75418984], "xyz": [1.8476364945776411, 0.6562810430292575, 25.685259560364337], "label": "S", "properties": {}}, {"species": [{"element": "S", "occu": 1}], "abc": [0.36339767, 0.56944971, 0.85953909], "xyz": [-1.42418467490671, 5.666992501168548, 29.269489633110975], "label": "S", "properties": {}}, {"species": [{"element": "S", "occu": 1}], "abc": [0.69461678, 0.17928958, 0.85907533], "xyz": [3.564226437640348, 1.7745946319404085, 29.256643814741977], "label": "S", "properties": {}}, {"species": [{"element": "S", "occu": 1}], "abc": [0.66586441, 0.67287458, 0.75283268], "xyz": [-0.04818494295129725, 6.700767792845897, 25.634675981689586], "label": "S", "properties": {}}, {"species": [{"element": "S", "occu": 1}], "abc": [0.34150757, 0.31806488, 0.90780959], "xyz": [0.16301062916876552, 3.1581549185877096, 30.91529201286747], "label": "S", "properties": {}}, {"species": [{"element": "S", "occu": 1}], "abc": [0.32408458, 0.80037507, 0.01532431], "xyz": [-3.294204294574269, 7.985066347764473, 0.5161122131824263], "label": "S", "properties": {}}, {"species": [{"element": "S", "occu": 1}], "abc": [0.24552158, 0.80188125, 0.91547823], "xyz": [-3.846568586822667, 7.984923806002814, 31.17288917816775], "label": "S", "properties": {}}, {"species": [{"element": "S", "occu": 1}], "abc": [0.78227919, 0.9807663, 0.95113572], "xyz": [-1.372223538989636, 9.769258674483682, 32.38611089131761], "label": "S", "properties": {}}, {"species": [{"element": "S", "occu": 1}], "abc": [0.39626987, 0.06252514, 0.9740159], "xyz": [2.308976418793054, 0.6075964508224685, 33.17198965848611], "label": "S", "properties": {}}, {"species": [{"element": "Cl", "occu": 1}], "abc": [0.96965656, 0.49039109, 0.147582], "xyz": [3.3135114267034678, 4.890475360573833, 5.022891828218945], "label": "Cl", "properties": {}}, {"species": [{"element": "Cl", "occu": 1}], "abc": [0.03050878, 0.01786252, 0.05335987], "xyz": [0.08749712053203892, 0.1773269084656086, 1.8171695384434337], "label": "Cl", "properties": {}}, {"species": [{"element": "Cl", "occu": 1}], "abc": [0.0231985, 0.49281985, 0.34036669], "xyz": [-3.247274710213501, 4.911052766096173, 11.588357344741254], "label": "Cl", "properties": {}}, {"species": [{"element": "Cl", "occu": 1}], "abc": [0.97631863, 0.98292234, 0.25403414], "xyz": [-0.046439249881624595, 9.802574651541377, 8.644750103572497], "label": "Cl", "properties": {}}, {"species": [{"element": "Cl", "occu": 1}], "abc": [0.95590953, 0.01613781, 0.45862147], "xyz": [6.4986604146469995, 0.15370895666525852, 15.619532724817445], "label": "Cl", "properties": {}}, {"species": [{"element": "Cl", "occu": 1}], "abc": [0.98898121, 0.95805958, 0.65994417], "xyz": [0.21363210042239925, 9.547704396421878, 22.469133702122203], "label": "Cl", "properties": {}}, {"species": [{"element": "Cl", "occu": 1}], "abc": [0.87245255, 0.43519397, 0.54171043], "xyz": [3.023677428574373, 4.333115458682133, 18.446220591669263], "label": "Cl", "properties": {}}, {"species": [{"element": "Cl", "occu": 1}], "abc": [0.93799469, 0.95835846, 0.85233529], "xyz": [-0.1407076829416098, 9.547429187437125, 29.021439716176207], "label": "Cl", "properties": {}}, {"species": [{"element": "Cl", "occu": 1}], "abc": [0.95220412, 0.46252167, 0.74738271], "xyz": [3.3864205305016695, 4.6023350617996845, 25.450681995889184], "label": "Cl", "properties": {}}, {"species": [{"element": "Cl", "occu": 1}], "abc": [0.9420203, 0.42969221, 0.94643046], "xyz": [3.5433229903999797, 4.271450850136012, 32.22994842855852], "label": "Cl", "properties": {}}]}, "formula": "(Li3PS4)10.0(Li2S)6.0(LiCl)10.0", "bandgap": 2.1151999999999997}