{"miller": "02-1_0.22", "final_energy": -494.51916619, "sigma": 0.005838688554720097, "incar_parameters": {"SYSTEM": "unknown system", "LCOMPAT": false, "PREC": "normal", "ENMAX": 520.0, "ENAUG": 628.945, "EDIFF": 1e-05, "IALGO": 38, "IWAVPR": 11, "NBANDS": 336, "NBANDSLOW": -1, "NBANDSHIGH": -1, "NELECT": 552.0, "TURBO": 0, "IRESTART": 0, "NREBOOT": 0, "NMIN": 0, "EREF": 0.0, "ISMEAR": 0, "SIGMA": 0.05, "KSPACING": 0.5, "KGAMMA": true, "KBLOWUP": true, "LREAL": true, "ROPT": [-0.0005, -0.0005, -0.0005, -0.0005], "LMAXPAW": -100, "LMAXMIX": 2, "NLSPLINE": false, "ISTART": 0, "ICHARG": 2, "INIWAV": 1, "ISPIN": 1, "LNONCOLLINEAR": false, "MAGMOM": [0.6, 0.6, 0.6, 0.6, 0.6, 0.6, 0.6, 0.6, 0.6, 0.6, 0.6, 0.6, 0.6, 0.6, 0.6, 0.6, 0.6, 0.6, 0.6, 0.6, 0.6, 0.6, 0.6, 0.6, 0.6, 0.6, 0.6, 0.6, 0.6, 0.6, 0.6, 0.6, 0.6, 0.6, 0.6, 0.6, 0.6, 0.6, 0.6, 0.6, 0.6, 0.6, 0.6, 0.6, 0.6, 0.6, 0.6, 0.6, 0.6, 0.6, 0.6, 0.6, 0.6, 0.6, 0.6, 0.6, 0.6, 0.6, 0.6, 0.6, 0.6, 0.6, 0.6, 0.6, 0.6, 0.6, 0.6, 0.6, 0.6, 0.6, 0.6, 0.6, 0.6, 0.6, 0.6, 0.6, 0.6, 0.6, 0.6, 0.6, 0.6, 0.6, 0.6, 0.6, 0.6, 0.6, 0.6, 0.6, 0.6, 0.6, 0.6, 0.6, 0.6, 0.6, 0.6, 0.6, 0.6, 0.6, 0.6, 0.6, 0.6, 0.6, 0.6, 0.6, 0.6, 0.6, 0.6, 0.6, 0.6, 0.6, 0.6, 0.6, 0.6, 0.6, 0.6, 0.6, 0.6, 0.6], "NUPDOWN": -1.0, "LSORBIT": false, "SAXIS": [0.0, 0.0, 1.0], "LSPIRAL": false, "QSPIRAL": [0.0, 0.0, 0.0], "LZEROZ": false, "LASPH": false, "LMETAGGA": false, "NELM": 100, "NELMDL": -5, "NELMIN": 6, "ENINI": 520.0, "LDIAG": true, "LSUBROT": false, "WEIMIN": 0.001, "EBREAK": 1e-08, "DEPER": 0.3, "NRMM": 4, "TIME": 0.4, "AMIX": 0.4, "BMIX": 1.0, "AMIN": 0.1, "AMIX_MAG": 1.6, "BMIX_MAG": 1.0, "IMIX": 4, "MIXFIRST": false, "MAXMIX": -45, "WC": 100.0, "INIMIX": 1, "MIXPRE": 1, "MREMOVE": 5, "LDIPOL": false, "LMONO": false, "IDIPOL": 0, "EPSILON": 1.0, "DIPOL": [-100.0, -100.0, -100.0], "EFIELD": 0.0, "NGX": 40, "NGY": 70, "NGZ": 192, "NGXF": 80, "NGYF": 140, "NGZF": 384, "ADDGRID": false, "NSW": 150, "IBRION": 2, "MDALGO": 0, "ISIF": 3, "PSTRESS": 0.0, "EDIFFG": -0.01, "NFREE": 1, "POTIM": 0.5, "SMASS": -3.0, "SCALEE": 1.0, "TEBEG": 0.0001, "TEEND": 0.0001, "NBLOCK": 1, "KBLOCK": 150, "NPACO": 256, "APACO": 10.0, "ISYM": 0, "SYMPREC": 1e-05, "LORBIT": 11, "RWIGS": [-1.0, -1.0, -1.0, -1.0], "NEDOS": 301, "EMIN": 10.0, "EMAX": -10.0, "EFERMI": 0.0, "NWRITE": 2, "LWAVE": false, "LDOWNSAMPLE": false, "LCHARG": false, "LPARD": false, "LVTOT": false, "LVHAR": false, "LELF": false, "LOPTICS": false, "STM": [0.0, 0.0, 0.0, 0.0, 0.0, 0.0, 0.0], "NPAR": 1, "NSIM": 4, "NBLK": -1, "LPLANE": true, "LSCALAPACK": true, "LSCAAWARE": false, "LSCALU": false, "LASYNC": false, "LORBITALREAL": false, "IDIOT": 3, "PHON_NSTRUCT": -1, "LMUSIC": false, "POMASS": [7.01, 30.974, 32.066, 35.453], "DARWINR": [0.0, 0.0, 0.0, 0.0], "DARWINV": [1.0, 1.0, 1.0, 1.0], "LCORR": true, "GGA_COMPAT": true, "LBERRY": false, "ICORELEVEL": 0, "LDAU": false, "I_CONSTRAINED_M": 0, "GGA": "--", "VOSKOWN": 0, "LHFCALC": false, "PRECFOCK": "", "LSYMGRAD": false, "LHFONE": false, "LRHFCALC": false, "LTHOMAS": false, "LMODELHF": false, "LFOCKACE": false, "ENCUT4O": -1.0, "EXXOEP": 0, "FOURORBIT": 0, "AEXX": 0.0, "HFALPHA": 0.0, "MCALPHA": 0.0, "ALDAX": 1.0, "AGGAX": 1.0, "ALDAC": 1.0, "AGGAC": 1.0, "NKREDX": 1, "NKREDY": 1, "NKREDZ": 1, "SHIFTRED": false, "ODDONLY": false, "EVENONLY": false, "LMAXFOCK": 0, "NMAXFOCKAE": 0, "LFOCKAEDFT": false, "HFSCREEN": 0.0, "HFSCREENC": 0.0, "NBANDSGWLOW": 0, "LUSE_VDW": false, "Zab_VDW": -0.8491, "PARAM1": 0.1234, "PARAM2": 1.0, "PARAM3": 0.0, "MODEL_GW": 0, "MODEL_EPS0": 11.91409741, "MODEL_ALPHA": 1.0, "LEPSILON": false, "LRPA": false, "LNABLA": false, "LVEL": false, "CSHIFT": 0.1, "OMEGAMAX": -1.0, "DEG_THRESHOLD": 0.002, "RTIME": -0.1, "WPLASMAI": 0.0, "DFIELD": [0.0, 0.0, 0.0], "WPLASMA": [0.0, 0.0, 0.0, 0.0, 0.0, 0.0, 0.0, 0.0, 0.0], "NUCIND": false, "MAGPOS": [0.0, 0.0, 0.0], "LNICSALL": true, "ORBITALMAG": false, "LMAGBLOCH": false, "LCHIMAG": false, "LGAUGE": true, "MAGATOM": 0, "MAGDIPOL": [0.0, 0.0, 0.0], "AVECCONST": [0.0, 0.0, 0.0], "LFINITE_TEMPERATURE": false, "LADDER": false, "LRPAFORCE": false, "LFXC": false, "LHARTREE": true, "IBSE": 0, "KPOINT": [-1, 0, 0, 0], "LTCTC": false, "LTCTE": false, "LTETE": false, "LTRIPLET": false, "LFXCEPS": false, "LFXHEG": false, "NATURALO": 2, "LHOLEGF": false, "L2ORDER": false, "LDMP1": false, "LMP2LT": false, "LSMP2LT": false, "LGWLF": false, "ENCUTGW": -2.0, "ENCUTGWSOFT": -2.0, "ENCUTLF": -1.0, "LESF_SPLINES": false, "LMAXMP2": -1, "SCISSOR": 0.0, "NOMEGA": 0, "NOMEGAR": 0, "NBANDSGW": -1, "NBANDSO": -1, "NBANDSV": -1, "NELMGW": 1, "NELMHF": 1, "DIM": 3, "IESPILON": 4, "ANTIRES": 0, "OMEGAMIN": -30.0, "OMEGATL": -200.0, "OMEGAGRID": 0, "LSELFENERGY": false, "LSPECTRAL": false, "LSPECTRALGW": false, "LSINGLES": false, "LFERMIGW": false, "ODDONLYGW": false, "EVENONLYGW": false, "NKREDLFX": 1, "NKREDLFY": 1, "NKREDLFZ": 1, "MAXMEM": 2800, "TELESCOPE": 0, "NTAUPAR": -1, "NOMEGAPAR": -1, "DAMP_NEWTON": 0.80000001, "LAMBDA": 1.0, "OFIELD_KAPPA": 0.0, "OFIELD_K": [0.0, 0.0, 0.0], "OFIELD_Q6_NEAR": 0.0, "OFIELD_Q6_FAR": 0.0, "OFIELD_A": 0.0, "KPOINTS_OPT_MODE": 1, "LKPOINTS_OPT": false, "@module": "pymatgen.io.vasp.inputs", "@class": "Incar"}, "relaxed_structures": {"@module": "pymatgen.core.structure", "@class": "Structure", "charge": 0, "lattice": {"matrix": [[7.10149678, 0.02314364, 0.01549468], [-7.07136137, 9.959536, 0.01911973], [0.09095233, 0.11009601, 33.05268524]], "a": 7.101551395964907, "b": 12.214617248383167, "c": 33.05299373781843, "alpha": 89.84597719956112, "beta": 89.71670567555411, "gamma": 125.18798890421411, "volume": 2343.105822233378}, "sites": [{"species": [{"element": "Li", "occu": 1}], "abc": [0.61973301, 0.34396016, 0.18523215], "xyz": [1.985612682365098, 3.460419794404038, 6.13859894034381], "label": "Li", "properties": {}}, {"species": [{"element": "Li", "occu": 1}], "abc": [0.72196848, 0.9283725, 0.06526887], "xyz": [-1.431864241685864, 9.270054155916675, 2.186248318187591], "label": "Li", "properties": {}}, {"species": [{"element": "Li", "occu": 1}], "abc": [0.11678705, 0.27948822, 0.08369382], "xyz": [-1.1393871948217618, 2.7954902217514404, 2.7734588062656917], "label": "Li", "properties": {}}, {"species": [{"element": "Li", "occu": 1}], "abc": [0.27595391, 0.47999583, 0.1668606], "xyz": [-1.419361806374479, 4.805293012970718, 5.52864409895847], "label": "Li", "properties": {}}, {"species": [{"element": "Li", "occu": 1}], "abc": [0.36399248, 0.03207378, 0.04414812], "xyz": [2.3621015101614553, 0.33272460934690845, 1.4654671033114348], "label": "Li", "properties": {}}, {"species": [{"element": "Li", "occu": 1}], "abc": [0.62157457, 0.35351454, 0.10272718], "xyz": [1.9236240218708949, 3.5465361383712266, 3.4117993477469852], "label": "Li", "properties": {}}, {"species": [{"element": "Li", "occu": 1}], "abc": [0.91425927, 0.86294044, 0.99475684], "xyz": [0.4809210223447845, 8.725164424451592, 32.91005006590161], "label": "Li", "properties": {}}, {"species": [{"element": "Li", "occu": 1}], "abc": [0.11727609, 0.07980371, 0.12546804], "xyz": [0.2799265140078407, 0.811335648872648, 4.150398614674129], "label": "Li", "properties": {}}, {"species": [{"element": "Li", "occu": 1}], "abc": [0.07124341, 0.21613945, 0.20505774], "xyz": [-1.0038148313142927, 2.17687350412223, 6.7829453580121655], "label": "Li", "properties": {}}, {"species": [{"element": "Li", "occu": 1}], "abc": [0.01316609, 0.68026282, 0.09203799], "xyz": [-4.708514211416056, 6.785539771966108, 3.055313159391108], "label": "Li", "properties": {}}, {"species": [{"element": "Li", "occu": 1}], "abc": [0.41486688, 0.25066905, 0.41618522], "xyz": [1.2114573910946103, 2.5519692894224155, 13.76726003230371], "label": "Li", "properties": {}}, {"species": [{"element": "Li", "occu": 1}], "abc": [0.6535548, 0.98947829, 0.27763381], "xyz": [-2.3304898066998363, 9.90043666220701, 9.20558811414609], "label": "Li", "properties": {}}, {"species": [{"element": "Li", "occu": 1}], "abc": [0.05090324, 0.33910964, 0.31513173], "xyz": [-2.007815648438609, 3.4132474998858306, 10.423222294998627], "label": "Li", "properties": {}}, {"species": [{"element": "Li", "occu": 1}], "abc": [0.27934534, 0.97606834, 0.21275679], "xyz": [-4.8990111956642, 9.751076512354285, 7.05517374231792], "label": "Li", "properties": {}}, {"species": [{"element": "Li", "occu": 1}], "abc": [0.35983001, 0.52119705, 0.37711335], "xyz": [-1.095941690308986, 5.240727233934171, 12.480149455084097], "label": "Li", "properties": {}}, {"species": [{"element": "Li", "occu": 1}], "abc": [0.02147449, 0.83065552, 0.28463544], "xyz": [-5.695476077849545, 8.304777779153058, 9.424180256085029], "label": "Li", "properties": {}}, {"species": [{"element": "Li", "occu": 1}], "abc": [0.65934004, 0.45880973, 0.32560698], "xyz": [1.4675064835782043, 4.620639580934776, 10.781173602976937], "label": "Li", "properties": {}}, {"species": [{"element": "Li", "occu": 1}], "abc": [0.56381975, 0.82357797, 0.20444484], "xyz": [-1.8012585685611373, 8.238011843489899, 6.78193374048644], "label": "Li", "properties": {}}, {"species": [{"element": "Li", "occu": 1}], "abc": [0.26127939, 0.14661732, 0.31269418], "xyz": [0.847130958192875, 1.5007138144733214, 10.342234032030273], "label": "Li", "properties": {}}, {"species": [{"element": "Li", "occu": 1}], "abc": [0.98667199, 0.63445287, 0.21004874], "xyz": [2.5395068662141247, 6.36481690858249, 6.970093622600737], "label": "Li", "properties": {}}, {"species": [{"element": "Li", "occu": 1}], "abc": [0.02216623, 0.24476862, 0.40943485], "xyz": [-1.5361948994957695, 2.4833720331475453, 13.537944591904145], "label": "Li", "properties": {}}, {"species": [{"element": "Li", "occu": 1}], "abc": [0.32726178, 0.71104551, 0.3066707], "xyz": [-2.6761188601311496, 7.123020603759347, 10.154955934156712], "label": "Li", "properties": {}}, {"species": [{"element": "Li", "occu": 1}], "abc": [0.89174204, 0.92722103, 0.39838867], "xyz": [-0.18777736956087926, 9.299190387984913, 13.199360785988501], "label": "Li", "properties": {}}, {"species": [{"element": "Li", "occu": 1}], "abc": [0.87944125, 0.88985878, 0.50337642], "xyz": [-0.0013805383070948987, 8.938353761387313, 16.668582887857326], "label": "Li", "properties": {}}, {"species": [{"element": "Li", "occu": 1}], "abc": [0.63854219, 0.01527879, 0.4636355], "xyz": [4.46873218978852, 0.2179922682559666, 15.334584380830096], "label": "Li", "properties": {}}, {"species": [{"element": "Li", "occu": 1}], "abc": [0.94720395, 0.59977912, 0.4144081], "xyz": [2.5230022834935593, 6.041068163235379, 13.723444727140468], "label": "Li", "properties": {}}, {"species": [{"element": "Li", "occu": 1}], "abc": [0.32152093, 0.09167509, 0.67985672], "xyz": [1.6968467118304897, 0.9953320360583124, 22.47782484135099], "label": "Li", "properties": {}}, {"species": [{"element": "Li", "occu": 1}], "abc": [0.26096257, 0.50582403, 0.56596535], "xyz": [-1.6721637879224307, 5.106122787056888, 18.720389320691673], "label": "Li", "properties": {}}, {"species": [{"element": "Li", "occu": 1}], "abc": [0.87347886, 0.16487786, 0.58729242], "xyz": [5.090511995706141, 1.7269810147016547, 19.428278197686527], "label": "Li", "properties": {}}, {"species": [{"element": "Li", "occu": 1}], "abc": [0.66634839, 0.96500479, 0.66891221], "xyz": [-2.030987523862828, 9.700066238791463, 22.138120216427854], "label": "Li", "properties": {}}, {"species": [{"element": "Li", "occu": 1}], "abc": [0.69054069, 0.4791118, 0.5464677], "xyz": [1.5656023226475524, 4.847876758623389, 18.082085077201093], "label": "Li", "properties": {}}, {"species": [{"element": "Li", "occu": 1}], "abc": [0.47178854, 0.16147979, 0.58640493], "xyz": [2.2618577433161753, 1.683743528940655, 19.392655236914457], "label": "Li", "properties": {}}, {"species": [{"element": "Li", "occu": 1}], "abc": [0.1157436, 0.58642863, 0.49465654], "xyz": [-3.2799057928756765, 5.897695491500789, 16.362732685641387], "label": "Li", "properties": {}}, {"species": [{"element": "Li", "occu": 1}], "abc": [0.87033839, 0.37787212, 0.6299304], "xyz": [3.565928599545212, 3.8529266045303636, 20.841601662060988], "label": "Li", "properties": {}}, {"species": [{"element": "Li", "occu": 1}], "abc": [0.88837986, 0.23022251, 0.70550058], "xyz": [4.745007073055764, 2.3911425189291364, 23.33685556125771], "label": "Li", "properties": {}}, {"species": [{"element": "Li", "occu": 1}], "abc": [0.98413141, 0.77787612, 0.60722015], "xyz": [1.5433909810638253, 7.836914119452653, 20.100378071999334], "label": "Li", "properties": {}}, {"species": [{"element": "Li", "occu": 1}], "abc": [0.52131189, 0.17250444, 0.91473366], "xyz": [2.565450632747659, 1.8308377612284161, 30.24577954164553], "label": "Li", "properties": {}}, {"species": [{"element": "Li", "occu": 1}], "abc": [0.28344088, 0.45993418, 0.78189778], "xyz": [-1.1683908716414328, 4.673374702834341, 25.857006855268658], "label": "Li", "properties": {}}, {"species": [{"element": "Li", "occu": 1}], "abc": [0.8848144, 0.0849909, 0.8155583], "xyz": [5.756682173071938, 0.956737468915199, 26.971726703817342], "label": "Li", "properties": {}}, {"species": [{"element": "Li", "occu": 1}], "abc": [0.67085066, 0.47084606, 0.71669121], "xyz": [1.4997058973901918, 4.783839053820035, 23.707966044247996], "label": "Li", "properties": {}}, {"species": [{"element": "Li", "occu": 1}], "abc": [0.88345007, 0.10227223, 0.89876877], "xyz": [5.632359044712754, 1.1379810623529425, 29.722365451906683], "label": "Li", "properties": {}}, {"species": [{"element": "Li", "occu": 1}], "abc": [0.91143703, 0.60869937, 0.79102464], "xyz": [2.240179456851837, 6.170545915872995, 26.171249035729886], "label": "Li", "properties": {}}, {"species": [{"element": "Li", "occu": 1}], "abc": [0.28248153, 0.96410608, 0.83387511], "xyz": [-4.73565793080615, 9.700393184865161, 27.5846219491546], "label": "Li", "properties": {}}, {"species": [{"element": "Li", "occu": 1}], "abc": [0.41995953, 0.64297699, 0.70523607], "xyz": [-1.50023853509302, 6.491115548668609, 23.328746526579923], "label": "Li", "properties": {}}, {"species": [{"element": "Li", "occu": 1}], "abc": [0.60348142, 0.23028363, 0.79523542], "xyz": [2.729531109941984, 2.395037106679523, 26.29841974127707], "label": "Li", "properties": {}}, {"species": [{"element": "Li", "occu": 1}], "abc": [0.95879981, 0.82096362, 0.71850084], "xyz": [1.068932660241209, 8.277710921380677, 23.778935008189837], "label": "Li", "properties": {}}, {"species": [{"element": "Li", "occu": 1}], "abc": [0.92098078, 0.36806501, 0.872294], "xyz": [4.016958521994244, 3.783107654001539, 28.85296662482646], "label": "Li", "properties": {}}, {"species": [{"element": "Li", "occu": 1}], "abc": [0.61429962, 0.73744048, 0.81096791], "xyz": [-0.7785019285913035, 7.448066468803735, 26.828285107875345], "label": "Li", "properties": {}}, {"species": [{"element": "Li", "occu": 1}], "abc": [0.82794641, 0.52385198, 0.93321649], "xyz": [2.2601903238174685, 5.339227759148818, 30.868155577845275], "label": "Li", "properties": {}}, {"species": [{"element": "Li", "occu": 1}], "abc": [0.14225029, 0.59568324, 0.00708678], "xyz": [-3.201456916550175, 5.936801089080043, 0.24783053414290962], "label": "Li", "properties": {}}, {"species": [{"element": "Li", "occu": 1}], "abc": [0.26456301, 0.42440859, 0.95657762], "xyz": [-1.035350181435206, 4.338350961092292, 31.6296728783186], "label": "Li", "properties": {}}, {"species": [{"element": "Li", "occu": 1}], "abc": [0.63089915, 0.78433832, 0.91502552], "xyz": [-0.9827877117755003, 7.926987695823602, 30.268822416475906], "label": "Li", "properties": {}}, {"species": [{"element": "P", "occu": 1}], "abc": [0.57493488, 0.05300618, 0.13949777], "xyz": [3.7207599926177237, 0.5565811916995409, 4.620697779328284], "label": "P", "properties": {}}, {"species": [{"element": "P", "occu": 1}], "abc": [0.61307784, 0.57635155, 0.02612497], "xyz": [0.2805563473324113, 5.757259118660107, 0.8840195412814156], "label": "P", "properties": {}}, {"species": [{"element": "P", "occu": 1}], "abc": [0.50842861, 0.04051066, 0.35610826], "xyz": [3.3565274965569167, 0.45444036392334297, 11.7789867206402], "label": "P", "properties": {}}, {"species": [{"element": "P", "occu": 1}], "abc": [0.52117612, 0.54171045, 0.24925613], "xyz": [-0.1068293860721393, 5.434688746230117, 8.25701722377574], "label": "P", "properties": {}}, {"species": [{"element": "P", "occu": 1}], "abc": [0.53492494, 0.55237026, 0.46384092], "xyz": [-0.06505456712581967, 5.56479863460447, 15.35003759119257], "label": "P", "properties": {}}, {"species": [{"element": "P", "occu": 1}], "abc": [0.40541506, 0.40631194, 0.64066215], "xyz": [0.06414490175305837, 4.12659552033208, 21.189654740342124], "label": "P", "properties": {}}, {"species": [{"element": "P", "occu": 1}], "abc": [0.31583997, 0.8567666, 0.53098455], "xyz": [-3.7672754263794443, 8.598766763187538, 17.57174018378442], "label": "P", "properties": {}}, {"species": [{"element": "P", "occu": 1}], "abc": [0.43129656, 0.3962372, 0.85815341], "xyz": [0.33896575476505797, 4.0507996966659725, 28.378533298824927], "label": "P", "properties": {}}, {"species": [{"element": "P", "occu": 1}], "abc": [0.42439653, 0.90427506, 0.75105146], "xyz": [-3.312295255663357, 9.098669863530402, 24.848132889840844], "label": "P", "properties": {}}, {"species": [{"element": "P", "occu": 1}], "abc": [0.41424348, 0.87937297, 0.97398952], "xyz": [-3.188028694284593, 8.874966214049204, 32.216200975539074], "label": "P", "properties": {}}, {"species": [{"element": "S", "occu": 1}], "abc": [0.77167176, 0.74253566, 0.06192916], "xyz": [0.2349191382824212, 7.419988083884019, 2.073078920978407], "label": "S", "properties": {}}, {"species": [{"element": "S", "occu": 1}], "abc": [0.6950648, 0.17743851, 0.08930781], "xyz": [3.6893913673336822, 1.79312399118207, 2.966025316461791], "label": "S", "properties": {}}, {"species": [{"element": "S", "occu": 1}], "abc": [0.67752803, 0.63328614, 0.96549402], "xyz": [0.4210819075723974, 6.4292136137281295, 31.934776284187688], "label": "S", "properties": {}}, {"species": [{"element": "S", "occu": 1}], "abc": [0.26098822, 0.4547835, 0.03147124], "xyz": [-1.3596690870594743, 4.538937715817673, 1.0529482565136221], "label": "S", "properties": {}}, {"species": [{"element": "S", "occu": 1}], "abc": [0.22122901, 0.92531475, 0.13869879], "xyz": [-4.959562897964939, 9.236095791891824, 4.605487089940544], "label": "S", "properties": {}}, {"species": [{"element": "S", "occu": 1}], "abc": [0.75734306, 0.47575879, 0.03929365], "xyz": [2.0175808219231084, 4.760190545541915, 1.3195918133555735], "label": "S", "properties": {}}, {"species": [{"element": "S", "occu": 1}], "abc": [0.69831124, 0.93633297, 0.13900114], "xyz": [-1.6494512936619052, 9.356906857547886, 4.623083471201875], "label": "S", "properties": {}}, {"species": [{"element": "S", "occu": 1}], "abc": [0.31143098, 0.30500667, 0.14558696], "xyz": [0.06805519106152338, 3.0609610999951165, 4.822697132484256], "label": "S", "properties": {}}, {"species": [{"element": "S", "occu": 1}], "abc": [0.67389289, 0.16105134, 0.1924647], "xyz": [3.6643010770449096, 1.6407825485588066, 6.374996161732791], "label": "S", "properties": {}}, {"species": [{"element": "S", "occu": 1}], "abc": [0.61627894, 0.65172551, 0.30219966], "xyz": [-0.20459792406352745, 6.538417593679659, 10.010520102366371], "label": "S", "properties": {}}, {"species": [{"element": "S", "occu": 1}], "abc": [0.63863811, 0.16981121, 0.30715244], "xyz": [3.3624262812465138, 1.7398375278124447, 10.165355157654416], "label": "S", "properties": {}}, {"species": [{"element": "S", "occu": 1}], "abc": [0.65709669, 0.66316741, 0.19886593], "xyz": [-0.005039057042176085, 6.641941648578251, 6.595914074014482], "label": "S", "properties": {}}, {"species": [{"element": "S", "occu": 1}], "abc": [0.16925233, 0.4211516, 0.24456866], "xyz": [-1.7539261891792168, 4.225317670289328, 8.09432575412225], "label": "S", "properties": {}}, {"species": [{"element": "S", "occu": 1}], "abc": [0.15651499, 0.93544226, 0.35097194], "xyz": [-5.471437848015144, 9.358833801190482, 11.620875614019209], "label": "S", "properties": {}}, {"species": [{"element": "S", "occu": 1}], "abc": [0.66607766, 0.43670928, 0.2521209], "xyz": [1.6649502085041181, 4.392594762396771, 8.35194317384446], "label": "S", "properties": {}}, {"species": [{"element": "S", "occu": 1}], "abc": [0.60799162, 0.91320719, 0.3517655], "xyz": [-2.1079736226366523, 9.147919001445791, 11.65367526029266], "label": "S", "properties": {}}, {"species": [{"element": "S", "occu": 1}], "abc": [0.29223113, 0.31131358, 0.35743951], "xyz": [-0.09362243858908442, 3.146654763235748, 11.824815875810154], "label": "S", "properties": {}}, {"species": [{"element": "S", "occu": 1}], "abc": [0.29261654, 0.81199292, 0.24860873], "xyz": [-3.641268407364919, 8.121215759569093, 8.237245185648465], "label": "S", "properties": {}}, {"species": [{"element": "S", "occu": 1}], "abc": [0.61826708, 0.1471754, 0.40940595], "xyz": [3.387127664694068, 1.5251816069030308, 13.544359805202955], "label": "S", "properties": {}}, {"species": [{"element": "S", "occu": 1}], "abc": [0.59681504, 0.64657583, 0.51847658], "xyz": [-0.2867346092206841, 6.51048993078367, 17.158653016409794], "label": "S", "properties": {}}, {"species": [{"element": "S", "occu": 1}], "abc": [0.70856726, 0.68227182, 0.41593785], "xyz": [0.2451280401085208, 6.8573026763497245, 13.77188671138952], "label": "S", "properties": {}}, {"species": [{"element": "S", "occu": 1}], "abc": [0.18750875, 0.4454771, 0.45322439], "xyz": [-1.7773149575294733, 4.490983046606134, 14.991705895712636], "label": "S", "properties": {}}, {"species": [{"element": "S", "occu": 1}], "abc": [0.65941044, 0.43502351, 0.46762056], "xyz": [1.649123852190479, 4.399376624376926, 15.474650067243847], "label": "S", "properties": {}}, {"species": [{"element": "S", "occu": 1}], "abc": [0.15131457, 0.68056558, 0.56389487], "xyz": [-3.6866776682400126, 6.843701939552183, 18.6535964475391], "label": "S", "properties": {}}, {"species": [{"element": "S", "occu": 1}], "abc": [0.3080534, 0.30272631, 0.586434], "xyz": [0.1002906326426269, 3.086707103110876, 19.393779650201168], "label": "S", "properties": {}}, {"species": [{"element": "S", "occu": 1}], "abc": [0.25185043, 0.81227503, 0.47063499], "xyz": [-3.912569902350949, 8.147526173437235, 15.575183008480602], "label": "S", "properties": {}}, {"species": [{"element": "S", "occu": 1}], "abc": [0.66827587, 0.97839935, 0.53710444], "xyz": [-2.124005528795066, 9.819002940654851, 17.781805448488015], "label": "S", "properties": {}}, {"species": [{"element": "S", "occu": 1}], "abc": [0.75874971, 0.52948018, 0.64294582], "xyz": [1.7025903517510481, 5.361722913563002, 21.27296591687219], "label": "S", "properties": {}}, {"species": [{"element": "S", "occu": 1}], "abc": [0.17880098, 0.95574191, 0.55240173], "xyz": [-5.438399613893642, 9.583701291256626, 18.27940449895914], "label": "S", "properties": {}}, {"species": [{"element": "S", "occu": 1}], "abc": [0.28877749, 0.52619058, 0.64007741], "xyz": [-1.611914793478547, 5.317767355571677, 21.170812298581325], "label": "S", "properties": {}}, {"species": [{"element": "S", "occu": 1}], "abc": [0.65951214, 0.14826556, 0.64556608], "xyz": [3.6937997242404585, 1.5629939435232902, 21.350746170901576], "label": "S", "properties": {}}, {"species": [{"element": "S", "occu": 1}], "abc": [0.28547991, 0.28417018, 0.69089699], "xyz": [0.0807033192922301, 2.9128751840207623, 22.845857420700963], "label": "S", "properties": {}}, {"species": [{"element": "S", "occu": 1}], "abc": [0.31994175, 0.78916637, 0.80301947], "xyz": [-3.2353787840766968, 7.955544728286605, 26.56199582645599], "label": "S", "properties": {}}, {"species": [{"element": "S", "occu": 1}], "abc": [0.30853479, 0.27862241, 0.80725685], "xyz": [0.2942409622286348, 2.8709662991391642, 26.692114403974962], "label": "S", "properties": {}}, {"species": [{"element": "S", "occu": 1}], "abc": [0.28490028, 0.78681519, 0.70047074], "xyz": [-3.4769266729542876, 7.920026873263806, 23.17189702171309], "label": "S", "properties": {}}, {"species": [{"element": "S", "occu": 1}], "abc": [0.77655466, 0.02065352, 0.74538689], "xyz": [5.436446588398425, 0.3057358999533913, 24.649465612877666], "label": "S", "properties": {}}, {"species": [{"element": "S", "occu": 1}], "abc": [0.7858849, 0.51234742, 0.8588479], "xyz": [2.0360795506140636, 5.215486538191035, 28.409202287113928], "label": "S", "properties": {}}, {"species": [{"element": "S", "occu": 1}], "abc": [0.29701625, 0.01947554, 0.75467129], "xyz": [2.0401804739763905, 0.2839276768041429, 24.948887146849714], "label": "S", "properties": {}}, {"species": [{"element": "S", "occu": 1}], "abc": [0.33104041, 0.5250382, 0.85677937], "xyz": [-1.2839263595920223, 5.331126324437006, 28.334026790579205], "label": "S", "properties": {}}, {"species": [{"element": "S", "occu": 1}], "abc": [0.66627854, 0.14088343, 0.85381395], "xyz": [3.8129936299570057, 1.512555212735305, 28.23386116878234], "label": "S", "properties": {}}, {"species": [{"element": "S", "occu": 1}], "abc": [0.65128702, 0.63277521, 0.75334684], "xyz": [0.21904914989429541, 6.400161117460221, 24.92232595419759], "label": "S", "properties": {}}, {"species": [{"element": "S", "occu": 1}], "abc": [0.30595554, 0.2794365, 0.90992347], "xyz": [0.2795054703833416, 2.8903177497901202, 30.085497480017256], "label": "S", "properties": {}}, {"species": [{"element": "S", "occu": 1}], "abc": [0.35478288, 0.82344302, 0.03451042], "xyz": [-3.3002348789967333, 8.21312082843703, 1.1619033051680638], "label": "S", "properties": {}}, {"species": [{"element": "S", "occu": 1}], "abc": [0.25017905, 0.7126047, 0.9382537], "xyz": [-3.177103269515859, 7.206300206025679, 31.029305475148572], "label": "S", "properties": {}}, {"species": [{"element": "S", "occu": 1}], "abc": [0.76116941, 0.97995615, 0.96221807], "xyz": [-1.4366659738198226, 9.883461155407353, 31.834421573383867], "label": "S", "properties": {}}, {"species": [{"element": "S", "occu": 1}], "abc": [0.30766063, 0.00239254, 0.96740548], "xyz": [2.2559202408063594, 0.137456458524468, 31.98016167762038], "label": "S", "properties": {}}, {"species": [{"element": "Cl", "occu": 1}], "abc": [0.99063035, 0.52998983, 0.14687558], "xyz": [3.3005673065615078, 5.317549999036791, 4.880115077906324], "label": "Cl", "properties": {}}, {"species": [{"element": "Cl", "occu": 1}], "abc": [0.11282823, 0.09805159, 0.05318787], "xyz": [0.11272864694925819, 0.9850153686665959, 1.761624882941726], "label": "Cl", "properties": {}}, {"species": [{"element": "Cl", "occu": 1}], "abc": [0.0404344, 0.53721933, 0.35304492], "xyz": [-3.4796169979093867, 5.390259893270866, 11.679980622970355], "label": "Cl", "properties": {}}, {"species": [{"element": "Cl", "occu": 1}], "abc": [0.02258611, 0.03395758, 0.2499724], "xyz": [-0.05699555977726681, 0.3662454291318444, 8.263258280195325], "label": "Cl", "properties": {}}, {"species": [{"element": "Cl", "occu": 1}], "abc": [0.02536386, 0.07452765, 0.45060473], "xyz": [-0.3059070249859888, 0.7924576080753778, 14.895514261784985], "label": "Cl", "properties": {}}, {"species": [{"element": "Cl", "occu": 1}], "abc": [0.93174671, 0.90521504, 0.65557573], "xyz": [0.27531973557654016, 9.1092620611747, 21.700282838942467], "label": "Cl", "properties": {}}, {"species": [{"element": "Cl", "occu": 1}], "abc": [0.84847696, 0.34310356, 0.55520647], "xyz": [3.6497444613282863, 3.497915119931879, 18.370771622533315], "label": "Cl", "properties": {}}, {"species": [{"element": "Cl", "occu": 1}], "abc": [0.89569762, 0.91144211, 0.85653008], "xyz": [-0.006439356870541202, 9.192570753980077, 28.34192420788451], "label": "Cl", "properties": {}}, {"species": [{"element": "Cl", "occu": 1}], "abc": [0.91329023, 0.40439986, 0.75096222], "xyz": [3.694371843164024, 4.131449768446339, 24.84320104078785], "label": "Cl", "properties": {}}, {"species": [{"element": "Cl", "occu": 1}], "abc": [0.88088692, 0.3543258, 0.94459027], "xyz": [3.8359625373616004, 3.6533031103978115, 31.241668549646235], "label": "Cl", "properties": {}}]}, "formula": "(Li3PS4)10.0(Li2S)6.0(LiCl)10.0", "bandgap": 2.356}