{"miller": "11-1_0.48", "final_energy": -378.23862265, "sigma": 0.012995026089861358, "incar_parameters": {"SYSTEM": "unknown system", "LCOMPAT": false, "PREC": "normal", "ENMAX": 520.0, "ENAUG": 628.945, "EDIFF": 1e-05, "IALGO": 38, "IWAVPR": 11, "NBANDS": 259, "NBANDSLOW": -1, "NBANDSHIGH": -1, "NELECT": 424.0, "TURBO": 0, "IRESTART": 0, "NREBOOT": 0, "NMIN": 0, "EREF": 0.0, "ISMEAR": 0, "SIGMA": 0.05, "KSPACING": 0.5, "KGAMMA": true, "KBLOWUP": true, "LREAL": true, "ROPT": [-0.0005, -0.0005, -0.0005, -0.0005], "LMAXPAW": -100, "LMAXMIX": 2, "NLSPLINE": false, "ISTART": 0, "ICHARG": 2, "INIWAV": 1, "ISPIN": 1, "LNONCOLLINEAR": false, "MAGMOM": [0.6, 0.6, 0.6, 0.6, 0.6, 0.6, 0.6, 0.6, 0.6, 0.6, 0.6, 0.6, 0.6, 0.6, 0.6, 0.6, 0.6, 0.6, 0.6, 0.6, 0.6, 0.6, 0.6, 0.6, 0.6, 0.6, 0.6, 0.6, 0.6, 0.6, 0.6, 0.6, 0.6, 0.6, 0.6, 0.6, 0.6, 0.6, 0.6, 0.6, 0.6, 0.6, 0.6, 0.6, 0.6, 0.6, 0.6, 0.6, 0.6, 0.6, 0.6, 0.6, 0.6, 0.6, 0.6, 0.6, 0.6, 0.6, 0.6, 0.6, 0.6, 0.6, 0.6, 0.6, 0.6, 0.6, 0.6, 0.6, 0.6, 0.6, 0.6, 0.6, 0.6, 0.6, 0.6, 0.6, 0.6, 0.6, 0.6, 0.6, 0.6, 0.6, 0.6, 0.6, 0.6, 0.6, 0.6, 0.6, 0.6, 0.6, 0.6, 0.6], "NUPDOWN": -1.0, "LSORBIT": false, "SAXIS": [0.0, 0.0, 1.0], "LSPIRAL": false, "QSPIRAL": [0.0, 0.0, 0.0], "LZEROZ": false, "LASPH": false, "LMETAGGA": false, "NELM": 100, "NELMDL": -5, "NELMIN": 6, "ENINI": 520.0, "LDIAG": true, "LSUBROT": false, "WEIMIN": 0.001, "EBREAK": 1e-08, "DEPER": 0.3, "NRMM": 4, "TIME": 0.4, "AMIX": 0.4, "BMIX": 1.0, "AMIN": 0.1, "AMIX_MAG": 1.6, "BMIX_MAG": 1.0, "IMIX": 4, "MIXFIRST": false, "MAXMIX": -45, "WC": 100.0, "INIMIX": 1, "MIXPRE": 1, "MREMOVE": 5, "LDIPOL": false, "LMONO": false, "IDIPOL": 0, "EPSILON": 1.0, "DIPOL": [-100.0, -100.0, -100.0], "EFIELD": 0.0, "NGX": 56, "NGY": 40, "NGZ": 216, "NGXF": 112, "NGYF": 80, "NGZF": 432, "ADDGRID": false, "NSW": 150, "IBRION": 2, "MDALGO": 0, "ISIF": 3, "PSTRESS": 0.0, "EDIFFG": -0.01, "NFREE": 1, "POTIM": 0.5, "SMASS": -3.0, "SCALEE": 1.0, "TEBEG": 0.0001, "TEEND": 0.0001, "NBLOCK": 1, "KBLOCK": 150, "NPACO": 256, "APACO": 10.0, "ISYM": 0, "SYMPREC": 1e-05, "LORBIT": 11, "RWIGS": [-1.0, -1.0, -1.0, -1.0], "NEDOS": 301, "EMIN": 10.0, "EMAX": -10.0, "EFERMI": 0.0, "NWRITE": 2, "LWAVE": false, "LDOWNSAMPLE": false, "LCHARG": false, "LPARD": false, "LVTOT": false, "LVHAR": false, "LELF": false, "LOPTICS": false, "STM": [0.0, 0.0, 0.0, 0.0, 0.0, 0.0, 0.0], "NPAR": 1, "NSIM": 4, "NBLK": -1, "LPLANE": true, "LSCALAPACK": true, "LSCAAWARE": false, "LSCALU": false, "LASYNC": false, "LORBITALREAL": false, "IDIOT": 3, "PHON_NSTRUCT": -1, "LMUSIC": false, "POMASS": [7.01, 30.974, 32.066, 35.453], "DARWINR": [0.0, 0.0, 0.0, 0.0], "DARWINV": [1.0, 1.0, 1.0, 1.0], "LCORR": true, "GGA_COMPAT": true, "LBERRY": false, "ICORELEVEL": 0, "LDAU": false, "I_CONSTRAINED_M": 0, "GGA": "--", "VOSKOWN": 0, "LHFCALC": false, "PRECFOCK": "", "LSYMGRAD": false, "LHFONE": false, "LRHFCALC": false, "LTHOMAS": false, "LMODELHF": false, "LFOCKACE": false, "ENCUT4O": -1.0, "EXXOEP": 0, "FOURORBIT": 0, "AEXX": 0.0, "HFALPHA": 0.0, "MCALPHA": 0.0, "ALDAX": 1.0, "AGGAX": 1.0, "ALDAC": 1.0, "AGGAC": 1.0, "NKREDX": 1, "NKREDY": 1, "NKREDZ": 1, "SHIFTRED": false, "ODDONLY": false, "EVENONLY": false, "LMAXFOCK": 0, "NMAXFOCKAE": 0, "LFOCKAEDFT": false, "HFSCREEN": 0.0, "HFSCREENC": 0.0, "NBANDSGWLOW": 0, "LUSE_VDW": false, "Zab_VDW": -0.8491, "PARAM1": 0.1234, "PARAM2": 1.0, "PARAM3": 0.0, "MODEL_GW": 0, "MODEL_EPS0": 12.12681456, "MODEL_ALPHA": 1.0, "LEPSILON": false, "LRPA": false, "LNABLA": false, "LVEL": false, "CSHIFT": 0.1, "OMEGAMAX": -1.0, "DEG_THRESHOLD": 0.002, "RTIME": -0.1, "WPLASMAI": 0.0, "DFIELD": [0.0, 0.0, 0.0], "WPLASMA": [0.0, 0.0, 0.0, 0.0, 0.0, 0.0, 0.0, 0.0, 0.0], "NUCIND": false, "MAGPOS": [0.0, 0.0, 0.0], "LNICSALL": true, "ORBITALMAG": false, "LMAGBLOCH": false, "LCHIMAG": false, "LGAUGE": true, "MAGATOM": 0, "MAGDIPOL": [0.0, 0.0, 0.0], "AVECCONST": [0.0, 0.0, 0.0], "LFINITE_TEMPERATURE": false, "LADDER": false, "LRPAFORCE": false, "LFXC": false, "LHARTREE": true, "IBSE": 0, "KPOINT": [-1, 0, 0, 0], "LTCTC": false, "LTCTE": false, "LTETE": false, "LTRIPLET": false, "LFXCEPS": false, "LFXHEG": false, "NATURALO": 2, "LHOLEGF": false, "L2ORDER": false, "LDMP1": false, "LMP2LT": false, "LSMP2LT": false, "LGWLF": false, "ENCUTGW": -2.0, "ENCUTGWSOFT": -2.0, "ENCUTLF": -1.0, "LESF_SPLINES": false, "LMAXMP2": -1, "SCISSOR": 0.0, "NOMEGA": 0, "NOMEGAR": 0, "NBANDSGW": -1, "NBANDSO": -1, "NBANDSV": -1, "NELMGW": 1, "NELMHF": 1, "DIM": 3, "IESPILON": 4, "ANTIRES": 0, "OMEGAMIN": -30.0, "OMEGATL": -200.0, "OMEGAGRID": 0, "LSELFENERGY": false, "LSPECTRAL": false, "LSPECTRALGW": false, "LSINGLES": false, "LFERMIGW": false, "ODDONLYGW": false, "EVENONLYGW": false, "NKREDLFX": 1, "NKREDLFY": 1, "NKREDLFZ": 1, "MAXMEM": 2800, "TELESCOPE": 0, "NTAUPAR": -1, "NOMEGAPAR": -1, "DAMP_NEWTON": 0.80000001, "LAMBDA": 1.0, "OFIELD_KAPPA": 0.0, "OFIELD_K": [0.0, 0.0, 0.0], "OFIELD_Q6_NEAR": 0.0, "OFIELD_Q6_FAR": 0.0, "OFIELD_A": 0.0, "KPOINTS_OPT_MODE": 1, "LKPOINTS_OPT": false, "@module": "pymatgen.io.vasp.inputs", "@class": "Incar"}, "relaxed_structures": {"@module": "pymatgen.core.structure", "@class": "Structure", "charge": 0, "lattice": {"matrix": [[9.78679777, -0.09966931, -0.00019317], [4.83835385, 4.95484872, -0.0001319], [-0.00093433, 0.00040562, 37.96773949]], "a": 9.78730527773337, "b": 6.9253298718034415, "c": 37.96773950366292, "alpha": 90.00163838024629, "beta": 90.00254695965153, "gamma": 46.26501212418845, "volume": 1859.444898271072}, "sites": [{"species": [{"element": "Li", "occu": 1}], "abc": [0.83502388, 0.81103066, 0.10000137], "xyz": [12.096169728679756, 3.935348536184332, 3.796557688296148], "label": "Li", "properties": {}}, {"species": [{"element": "Li", "occu": 1}], "abc": [0.62584075, 0.81230728, 0.04125352], "xyz": [10.055168367644812, 3.9624993040850818, 1.5660748634175954], "label": "Li", "properties": {}}, {"species": [{"element": "Li", "occu": 1}], "abc": [0.18452301, 0.52300669, 0.05346535], "xyz": [4.336330860638479, 2.5730494340273813, 2.0298538516494187], "label": "Li", "properties": {}}, {"species": [{"element": "Li", "occu": 1}], "abc": [0.1018116, 0.16030298, 0.01193238], "xyz": [1.7720009315089997, 0.7841343633551653, 0.4530046844258522], "label": "Li", "properties": {}}, {"species": [{"element": "Li", "occu": 1}], "abc": [0.06465739, 0.19261767, 0.09866452], "xyz": [1.564649060267578, 0.9479870785037839, 3.7460308961271958], "label": "Li", "properties": {}}, {"species": [{"element": "Li", "occu": 1}], "abc": [0.44566791, 0.42493622, 0.24116613], "xyz": [6.417428175039765, 2.0611730944754467, 9.156390658893882], "label": "Li", "properties": {}}, {"species": [{"element": "Li", "occu": 1}], "abc": [0.53927096, 0.43085895, 0.12087927], "xyz": [7.362270947164877, 2.081141183471304, 4.589351631834524], "label": "Li", "properties": {}}, {"species": [{"element": "Li", "occu": 1}], "abc": [0.16942943, 0.64442558, 0.16595302], "xyz": [4.775975498842678, 3.176211659680437, 6.300743302521765], "label": "Li", "properties": {}}, {"species": [{"element": "Li", "occu": 1}], "abc": [0.32421335, 0.94177031, 0.20047291], "xyz": [7.729441188134421, 4.634096609971969, 7.611316373885507], "label": "Li", "properties": {}}, {"species": [{"element": "Li", "occu": 1}], "abc": [0.76118357, 0.35558614, 0.17458037], "xyz": [9.169838119235175, 1.6860797027131835, 6.628228068585729], "label": "Li", "properties": {}}, {"species": [{"element": "Li", "occu": 1}], "abc": [0.62558459, 0.04745424, 0.19102905], "xyz": [6.351891790988901, 0.17285448109390092, 7.252814102032678], "label": "Li", "properties": {}}, {"species": [{"element": "Li", "occu": 1}], "abc": [0.96618153, 0.57013737, 0.37615922], "xyz": [12.21399812554354, 2.728798349241638, 14.281653433316345], "label": "Li", "properties": {}}, {"species": [{"element": "Li", "occu": 1}], "abc": [0.84126232, 0.63454438, 0.25581839], "xyz": [11.30317542253356, 3.0603271391181464, 9.712599785225144], "label": "Li", "properties": {}}, {"species": [{"element": "Li", "occu": 1}], "abc": [0.69110385, 0.55868748, 0.31450811], "xyz": [9.466527483460796, 2.6994576720697605, 11.940954796562947], "label": "Li", "properties": {}}, {"species": [{"element": "Li", "occu": 1}], "abc": [0.78661965, 0.96327069, 0.3276515], "xyz": [12.35882575338584, 4.694591609613505, 12.439907788785934], "label": "Li", "properties": {}}, {"species": [{"element": "Li", "occu": 1}], "abc": [0.2388533, 0.36634594, 0.29955032], "xyz": [4.109840354177524, 1.7915038718847722, 11.373154053584688], "label": "Li", "properties": {}}, {"species": [{"element": "Li", "occu": 1}], "abc": [0.11181822, 0.05895749, 0.33050232], "xyz": [1.3792907066365603, 0.28111465737912306, 12.54839661018213], "label": "Li", "properties": {}}, {"species": [{"element": "Li", "occu": 1}], "abc": [0.318801, 0.61887911, 0.39440748], "xyz": [6.114028533686054, 3.034837669882967, 14.974617240603605], "label": "Li", "properties": {}}, {"species": [{"element": "Li", "occu": 1}], "abc": [0.23120886, 0.44746451, 0.46090277], "xyz": [4.4273553548640106, 2.194261478458408, 17.49933261839503], "label": "Li", "properties": {}}, {"species": [{"element": "Li", "occu": 1}], "abc": [0.45801968, 0.80938767, 0.44900674], "xyz": [8.398230411659759, 3.9649250813251404, 17.047575699678905], "label": "Li", "properties": {}}, {"species": [{"element": "Li", "occu": 1}], "abc": [0.74509983, 0.08829815, 0.4272575], "xyz": [7.718959849171783, 0.3634136937558008, 16.22184587768853], "label": "Li", "properties": {}}, {"species": [{"element": "Li", "occu": 1}], "abc": [0.60854285, 0.10436131, 0.49530165], "xyz": [6.460159978168343, 0.4566423615613628, 18.805352698688033], "label": "Li", "properties": {}}, {"species": [{"element": "Li", "occu": 1}], "abc": [0.68865271, 0.98692018, 0.60031087], "xyz": [11.514212970622982, 4.8216461482749295, 22.792183523359522], "label": "Li", "properties": {}}, {"species": [{"element": "Li", "occu": 1}], "abc": [0.89900723, 0.98580605, 0.54119792], "xyz": [13.567574793696076, 4.795135935411956, 20.547757950045245], "label": "Li", "properties": {}}, {"species": [{"element": "Li", "occu": 1}], "abc": [0.34343104, 0.26667849, 0.55419549], "xyz": [4.650857233752295, 1.2873468328133042, 21.041448475386073], "label": "Li", "properties": {}}, {"species": [{"element": "Li", "occu": 1}], "abc": [0.43087809, 0.63190231, 0.5116699], "xyz": [7.273805636228586, 3.0882425734889636, 19.426782887439018], "label": "Li", "properties": {}}, {"species": [{"element": "Li", "occu": 1}], "abc": [0.45815124, 0.60437635, 0.59873811], "xyz": [7.407460754847866, 2.9491726263815057, 22.732564364899368], "label": "Li", "properties": {}}, {"species": [{"element": "Li", "occu": 1}], "abc": [0.0802002, 0.37533298, 0.74156242], "xyz": [2.600204043312648, 1.8520254294797238, 28.15538377944127], "label": "Li", "properties": {}}, {"species": [{"element": "Li", "occu": 1}], "abc": [0.99223326, 0.3597106, 0.62113812], "xyz": [11.45061307470398, 1.683668347641416, 23.582971211941384], "label": "Li", "properties": {}}, {"species": [{"element": "Li", "occu": 1}], "abc": [0.35355808, 0.15710586, 0.66662884], "xyz": [4.219712320173966, 0.7434672774370553, 25.310301114563643], "label": "Li", "properties": {}}, {"species": [{"element": "Li", "occu": 1}], "abc": [0.20263469, 0.85751974, 0.70070035], "xyz": [6.131473982338624, 4.228968344455335, 26.603856099555045], "label": "Li", "properties": {}}, {"species": [{"element": "Li", "occu": 1}], "abc": [0.75913243, 0.45236691, 0.6738198], "xyz": [9.61755718361605, 2.1660207142744086, 25.58320832079697], "label": "Li", "properties": {}}, {"species": [{"element": "Li", "occu": 1}], "abc": [0.8999691, 0.75434775, 0.69153861], "xyz": [12.456970796130763, 3.6482601861950474, 26.255884446257436], "label": "Li", "properties": {}}, {"species": [{"element": "Li", "occu": 1}], "abc": [0.55978074, 0.23206965, 0.87638395], "xyz": [6.600477150650598, 1.0944325270040576, 33.2741787639848], "label": "Li", "properties": {}}, {"species": [{"element": "Li", "occu": 1}], "abc": [0.68768742, 0.16589071, 0.75583572], "xyz": [7.532189463932519, 0.7537286235410574, 28.69721899263301], "label": "Li", "properties": {}}, {"species": [{"element": "Li", "occu": 1}], "abc": [0.8320067, 0.2503101, 0.81533111], "xyz": [9.353008363897937, 1.157653859488533, 30.956085447936104], "label": "Li", "properties": {}}, {"species": [{"element": "Li", "occu": 1}], "abc": [0.74125307, 0.83836409, 0.82780344], "xyz": [11.310022573446805, 4.080422829839517, 31.42957159076684], "label": "Li", "properties": {}}, {"species": [{"element": "Li", "occu": 1}], "abc": [0.29009108, 0.4311112, 0.79916609], "xyz": [4.924184584286142, 2.1075017574663355, 30.342417013900693], "label": "Li", "properties": {}}, {"species": [{"element": "Li", "occu": 1}], "abc": [0.41319897, 0.74339659, 0.83099947], "xyz": [7.639934083730863, 3.6425714561862756, 31.55099352163281], "label": "Li", "properties": {}}, {"species": [{"element": "Li", "occu": 1}], "abc": [0.20542752, 0.18280929, 0.89476518], "xyz": [2.8941376207692677, 0.8856804920395094, 33.97214746398357], "label": "Li", "properties": {}}, {"species": [{"element": "Li", "occu": 1}], "abc": [0.29349134, 0.35371238, 0.96094874], "xyz": [4.58282820415573, 1.723729033970297, 36.48494807517867], "label": "Li", "properties": {}}, {"species": [{"element": "Li", "occu": 1}], "abc": [0.06433438, 0.99097002, 0.94951411], "xyz": [5.423404018701514, 4.9040795138047955, 36.050761234141376], "label": "Li", "properties": {}}, {"species": [{"element": "Li", "occu": 1}], "abc": [0.77769614, 0.71192535, 0.9273096], "xyz": [11.054835193596137, 3.450346106839541, 35.20760518885907], "label": "Li", "properties": {}}, {"species": [{"element": "Li", "occu": 1}], "abc": [0.91532098, 0.69059014, 0.99533863], "xyz": [12.298450813797086, 3.3309439899735978, 37.79048990678032], "label": "Li", "properties": {}}, {"species": [{"element": "P", "occu": 1}], "abc": [0.44852122, 0.00099493, 0.11547567], "xyz": [4.394292406706909, -0.039727233639503194, 4.384263383917873], "label": "P", "properties": {}}, {"species": [{"element": "P", "occu": 1}], "abc": [0.96115691, 0.00602262, 0.24870312], "xyz": [9.435555499286068, -0.06585579606385131, 9.442508809446325], "label": "P", "properties": {}}, {"species": [{"element": "P", "occu": 1}], "abc": [0.45006888, 0.00880823, 0.38240298], "xyz": [4.44699315408628, -0.0010594972843595966, 14.518888623228593], "label": "P", "properties": {}}, {"species": [{"element": "P", "occu": 1}], "abc": [0.07430529, 0.79856113, 0.61561101], "xyz": [4.59035698043208, 3.9495933399764795, 23.373238771089866], "label": "P", "properties": {}}, {"species": [{"element": "P", "occu": 1}], "abc": [0.56443057, 0.79624959, 0.74898754], "xyz": [9.375805311605003, 3.8893436606831933, 28.43714974360183], "label": "P", "properties": {}}, {"species": [{"element": "P", "occu": 1}], "abc": [0.07499075, 0.79250216, 0.88251096], "xyz": [4.567500625374686, 3.9196120008599475, 33.50682720935173], "label": "P", "properties": {}}, {"species": [{"element": "S", "occu": 1}], "abc": [0.48471584, 0.2059092, 0.08314452], "xyz": [5.739999788146725, 0.9719713678175559, 3.156688683398802], "label": "S", "properties": {}}, {"species": [{"element": "S", "occu": 1}], "abc": [0.42268369, 0.79604063, 0.0815679], "xyz": [7.98816983028829, 3.902165390464538, 3.096762130378877], "label": "S", "properties": {}}, {"species": [{"element": "S", "occu": 1}], "abc": [0.95540435, 0.50666222, 0.05299308], "xyz": [11.801710751790411, 2.4152316549569695, 2.011776072007622], "label": "S", "properties": {}}, {"species": [{"element": "S", "occu": 1}], "abc": [0.21355202, 0.25118896, 0.14649072], "xyz": [3.3051946341340734, 1.2233781340174714, 5.5618471109950045], "label": "S", "properties": {}}, {"species": [{"element": "S", "occu": 1}], "abc": [0.98185721, 0.23491546, 0.2195482], "xyz": [10.745636943132238, 1.06619858879087, 8.335528212391988], "label": "S", "properties": {}}, {"species": [{"element": "S", "occu": 1}], "abc": [0.95318858, 0.77933349, 0.21542692], "xyz": [13.099153781074738, 3.766563278778443, 8.178986256167741], "label": "S", "properties": {}}, {"species": [{"element": "S", "occu": 1}], "abc": [0.69186685, 0.74547447, 0.14514011], "xyz": [10.377894607959158, 3.6248142036522233, 5.510409910027936], "label": "S", "properties": {}}, {"species": [{"element": "S", "occu": 1}], "abc": [0.4612096, 0.50358425, 0.18120766], "xyz": [6.950114571816487, 2.4492888353783333, 6.879889713851487], "label": "S", "properties": {}}, {"species": [{"element": "S", "occu": 1}], "abc": [0.7173777, 0.24738866, 0.27867529], "xyz": [8.217523975481365, 1.1543858812462582, 10.58049960660564], "label": "S", "properties": {}}, {"species": [{"element": "S", "occu": 1}], "abc": [0.45018172, 0.2470466, 0.35034637], "xyz": [5.600808982506291, 1.1793513358779382, 13.30174016037776], "label": "S", "properties": {}}, {"species": [{"element": "S", "occu": 1}], "abc": [0.43629749, 0.77046321, 0.35325251], "xyz": [7.997398886157787, 3.774186466375665, 13.412013370185079], "label": "S", "properties": {}}, {"species": [{"element": "S", "occu": 1}], "abc": [0.19164271, 0.75923274, 0.28145027], "xyz": [5.548742130059036, 3.74289663515738, 10.685893368329467], "label": "S", "properties": {}}, {"species": [{"element": "S", "occu": 1}], "abc": [0.9474115, 0.50920861, 0.31565129], "xyz": [11.735561271649216, 2.428751813456664, 11.984315772307326], "label": "S", "properties": {}}, {"species": [{"element": "S", "occu": 1}], "abc": [0.21502757, 0.22314295, 0.41447357], "xyz": [3.1836886387067183, 1.0843760294211107, 15.736553561819479], "label": "S", "properties": {}}, {"species": [{"element": "S", "occu": 1}], "abc": [0.68501904, 0.77876409, 0.41414179], "xyz": [10.471692101074137, 3.790550863657663, 15.72379255053086], "label": "S", "properties": {}}, {"species": [{"element": "S", "occu": 1}], "abc": [0.45419754, 0.47620442, 0.45374205], "xyz": [6.748761015695926, 2.314435352330166, 17.227409401356756], "label": "S", "properties": {}}, {"species": [{"element": "S", "occu": 1}], "abc": [0.0404052, 0.59074066, 0.58336991], "xyz": [3.2531048079109346, 2.9232400711514375, 22.14915104541921], "label": "S", "properties": {}}, {"species": [{"element": "S", "occu": 1}], "abc": [0.10077273, 0.0020598, 0.58154395], "xyz": [0.9956650165422387, 0.00039793478453869927, 22.07988945762971], "label": "S", "properties": {}}, {"species": [{"element": "S", "occu": 1}], "abc": [0.5691169, 0.2895158, 0.55305478], "xyz": [6.970095157682545, 1.3780078323973008, 20.998091687293666], "label": "S", "properties": {}}, {"species": [{"element": "S", "occu": 1}], "abc": [0.3089175, 0.5501109, 0.6468174], "xyz": [5.684339950154598, 2.695189056724911, 24.55806230757794], "label": "S", "properties": {}}, {"species": [{"element": "S", "occu": 1}], "abc": [0.54457739, 0.56684987, 0.71969865], "xyz": [8.071616600891266, 2.7546696242651785, 27.325150890992408], "label": "S", "properties": {}}, {"species": [{"element": "S", "occu": 1}], "abc": [0.57091366, 0.02468641, 0.71580789], "xyz": [5.706189320630854, 0.0657052024244624, 27.177493952877395], "label": "S", "properties": {}}, {"species": [{"element": "S", "occu": 1}], "abc": [0.83048903, 0.05559161, 0.6451047], "xyz": [8.39619732641031, 0.19293541643698392, 24.49299943527532], "label": "S", "properties": {}}, {"species": [{"element": "S", "occu": 1}], "abc": [0.06128628, 0.29851052, 0.68160037], "xyz": [2.0434591124693955, 1.473242577430547, 25.878774072239313], "label": "S", "properties": {}}, {"species": [{"element": "S", "occu": 1}], "abc": [0.8082837, 0.55582745, 0.77894983], "xyz": [10.599071199135869, 2.673795808140162, 29.5747347714168], "label": "S", "properties": {}}, {"species": [{"element": "S", "occu": 1}], "abc": [0.07701647, 0.55335281, 0.85022387], "xyz": [3.4302669258526333, 2.7344481517195174, 32.28099053983247], "label": "S", "properties": {}}, {"species": [{"element": "S", "occu": 1}], "abc": [0.08824488, 0.03259658, 0.85371373], "xyz": [1.0205509327883997, 0.1530620997519074, 32.41355915392382], "label": "S", "properties": {}}, {"species": [{"element": "S", "occu": 1}], "abc": [0.33393587, 0.04137587, 0.78176511], "xyz": [3.4676235011553835, 0.1720451183251549, 29.681784074981934], "label": "S", "properties": {}}, {"species": [{"element": "S", "occu": 1}], "abc": [0.5790332, 0.29284791, 0.81578878], "xyz": [7.0830204273981, 1.393636152752027, 30.973505399422347], "label": "S", "properties": {}}, {"species": [{"element": "S", "occu": 1}], "abc": [0.30966028, 0.57870141, 0.91469253], "xyz": [5.829690108163949, 2.836885331742707, 34.72867154469674], "label": "S", "properties": {}}, {"species": [{"element": "S", "occu": 1}], "abc": [0.83973301, 0.02031948, 0.91422087], "xyz": [8.315755799965919, 0.01735516604743191, 34.7107349371162], "label": "S", "properties": {}}, {"species": [{"element": "S", "occu": 1}], "abc": [0.07103282, 0.32225416, 0.95391968], "xyz": [2.253472224312713, 1.5900277489345227, 36.218117677890625], "label": "S", "properties": {}}, {"species": [{"element": "Cl", "occu": 1}], "abc": [0.5868317, 0.96775159, 0.9829107], "xyz": [10.4246094412911, 4.736972304602472, 37.31865639481933], "label": "Cl", "properties": {}}, {"species": [{"element": "Cl", "occu": 1}], "abc": [0.92911097, 0.02771116, 0.12226479], "xyz": [9.22698333129126, 0.044750349406504304, 4.641934564051478], "label": "Cl", "properties": {}}, {"species": [{"element": "Cl", "occu": 1}], "abc": [0.48448766, 0.02125626, 0.24308799], "xyz": [4.844200933486422, 0.05713160322777641, 9.229405085285748], "label": "Cl", "properties": {}}, {"species": [{"element": "Cl", "occu": 1}], "abc": [0.96500054, 0.93709065, 0.37775091], "xyz": [13.977888343139558, 4.5471146930291555, 14.342038131579388], "label": "Cl", "properties": {}}, {"species": [{"element": "Cl", "occu": 1}], "abc": [0.40462024, 0.00858084, 0.50570387], "xyz": [4.000981108482242, 0.0023936675614398004, 19.200353502940274], "label": "Cl", "properties": {}}, {"species": [{"element": "Cl", "occu": 1}], "abc": [0.936581, 0.82947798, 0.48287718], "xyz": [13.178985653612003, 4.016785390083827, 18.333464648408505], "label": "Cl", "properties": {}}, {"species": [{"element": "Cl", "occu": 1}], "abc": [0.58847788, 0.77827031, 0.62220585], "xyz": [9.52427980881569, 3.7978108442045175, 23.623533291828046], "label": "Cl", "properties": {}}, {"species": [{"element": "Cl", "occu": 1}], "abc": [0.04224418, 0.77800362, 0.74317033], "xyz": [4.176997690425987, 3.8509812371895054, 28.216386707151603], "label": "Cl", "properties": {}}, {"species": [{"element": "Cl", "occu": 1}], "abc": [0.56032815, 0.8628968, 0.87758954], "xyz": [9.657998385085998, 4.220031552757235, 33.31986897919228], "label": "Cl", "properties": {}}, {"species": [{"element": "Cl", "occu": 1}], "abc": [0.12093683, 0.78807339, 0.0058629], "xyz": [4.996556740860563, 3.8927331154173714, 0.22247375160832888], "label": "Cl", "properties": {}}]}, "formula": "(Li3PS4)6.0(Li2S)8.0(LiCl)10.0", "bandgap": 2.4043}