{"miller": "11-1_0.03", "final_energy": -517.64137187, "sigma": 0.017116689062355833, "incar_parameters": {"SYSTEM": "unknown system", "LCOMPAT": false, "PREC": "normal", "ENMAX": 520.0, "ENAUG": 628.945, "EDIFF": 1e-05, "IALGO": 38, "IWAVPR": 11, "NBANDS": 351, "NBANDSLOW": -1, "NBANDSHIGH": -1, "NELECT": 576.0, "TURBO": 0, "IRESTART": 0, "NREBOOT": 0, "NMIN": 0, "EREF": 0.0, "ISMEAR": 0, "SIGMA": 0.05, "KSPACING": 0.5, "KGAMMA": true, "KBLOWUP": true, "LREAL": true, "ROPT": [-0.0005, -0.0005, -0.0005, -0.0005], "LMAXPAW": -100, "LMAXMIX": 2, "NLSPLINE": false, "ISTART": 0, "ICHARG": 2, "INIWAV": 1, "ISPIN": 1, "LNONCOLLINEAR": false, "MAGMOM": [0.6, 0.6, 0.6, 0.6, 0.6, 0.6, 0.6, 0.6, 0.6, 0.6, 0.6, 0.6, 0.6, 0.6, 0.6, 0.6, 0.6, 0.6, 0.6, 0.6, 0.6, 0.6, 0.6, 0.6, 0.6, 0.6, 0.6, 0.6, 0.6, 0.6, 0.6, 0.6, 0.6, 0.6, 0.6, 0.6, 0.6, 0.6, 0.6, 0.6, 0.6, 0.6, 0.6, 0.6, 0.6, 0.6, 0.6, 0.6, 0.6, 0.6, 0.6, 0.6, 0.6, 0.6, 0.6, 0.6, 0.6, 0.6, 0.6, 0.6, 0.6, 0.6, 0.6, 0.6, 0.6, 0.6, 0.6, 0.6, 0.6, 0.6, 0.6, 0.6, 0.6, 0.6, 0.6, 0.6, 0.6, 0.6, 0.6, 0.6, 0.6, 0.6, 0.6, 0.6, 0.6, 0.6, 0.6, 0.6, 0.6, 0.6, 0.6, 0.6, 0.6, 0.6, 0.6, 0.6, 0.6, 0.6, 0.6, 0.6, 0.6, 0.6, 0.6, 0.6, 0.6, 0.6, 0.6, 0.6, 0.6, 0.6, 0.6, 0.6, 0.6, 0.6, 0.6, 0.6, 0.6, 0.6, 0.6, 0.6, 0.6, 0.6, 0.6, 0.6], "NUPDOWN": -1.0, "LSORBIT": false, "SAXIS": [0.0, 0.0, 1.0], "LSPIRAL": false, "QSPIRAL": [0.0, 0.0, 0.0], "LZEROZ": false, "LASPH": false, "LMETAGGA": false, "NELM": 100, "NELMDL": -5, "NELMIN": 6, "ENINI": 520.0, "LDIAG": true, "LSUBROT": false, "WEIMIN": 0.001, "EBREAK": 1e-08, "DEPER": 0.3, "NRMM": 4, "TIME": 0.4, "AMIX": 0.4, "BMIX": 1.0, "AMIN": 0.1, "AMIX_MAG": 1.6, "BMIX_MAG": 1.0, "IMIX": 4, "MIXFIRST": false, "MAXMIX": -45, "WC": 100.0, "INIMIX": 1, "MIXPRE": 1, "MREMOVE": 5, "LDIPOL": false, "LMONO": false, "IDIPOL": 0, "EPSILON": 1.0, "DIPOL": [-100.0, -100.0, -100.0], "EFIELD": 0.0, "NGX": 56, "NGY": 40, "NGZ": 280, "NGXF": 112, "NGYF": 80, "NGZF": 560, "ADDGRID": false, "NSW": 150, "IBRION": 2, "MDALGO": 0, "ISIF": 3, "PSTRESS": 0.0, "EDIFFG": -0.01, "NFREE": 1, "POTIM": 0.5, "SMASS": -3.0, "SCALEE": 1.0, "TEBEG": 0.0001, "TEEND": 0.0001, "NBLOCK": 1, "KBLOCK": 150, "NPACO": 256, "APACO": 10.0, "ISYM": 0, "SYMPREC": 1e-05, "LORBIT": 11, "RWIGS": [-1.0, -1.0, -1.0, -1.0], "NEDOS": 301, "EMIN": 10.0, "EMAX": -10.0, "EFERMI": 0.0, "NWRITE": 2, "LWAVE": false, "LDOWNSAMPLE": false, "LCHARG": false, "LPARD": false, "LVTOT": false, "LVHAR": false, "LELF": false, "LOPTICS": false, "STM": [0.0, 0.0, 0.0, 0.0, 0.0, 0.0, 0.0], "NPAR": 1, "NSIM": 4, "NBLK": -1, "LPLANE": true, "LSCALAPACK": true, "LSCAAWARE": false, "LSCALU": false, "LASYNC": false, "LORBITALREAL": false, "IDIOT": 3, "PHON_NSTRUCT": -1, "LMUSIC": false, "POMASS": [7.01, 30.974, 32.066, 35.453], "DARWINR": [0.0, 0.0, 0.0, 0.0], "DARWINV": [1.0, 1.0, 1.0, 1.0], "LCORR": true, "GGA_COMPAT": true, "LBERRY": false, "ICORELEVEL": 0, "LDAU": false, "I_CONSTRAINED_M": 0, "GGA": "--", "VOSKOWN": 0, "LHFCALC": false, "PRECFOCK": "", "LSYMGRAD": false, "LHFONE": false, "LRHFCALC": false, "LTHOMAS": false, "LMODELHF": false, "LFOCKACE": false, "ENCUT4O": -1.0, "EXXOEP": 0, "FOURORBIT": 0, "AEXX": 0.0, "HFALPHA": 0.0, "MCALPHA": 0.0, "ALDAX": 1.0, "AGGAX": 1.0, "ALDAC": 1.0, "AGGAC": 1.0, "NKREDX": 1, "NKREDY": 1, "NKREDZ": 1, "SHIFTRED": false, "ODDONLY": false, "EVENONLY": false, "LMAXFOCK": 0, "NMAXFOCKAE": 0, "LFOCKAEDFT": false, "HFSCREEN": 0.0, "HFSCREENC": 0.0, "NBANDSGWLOW": 0, "LUSE_VDW": false, "Zab_VDW": -0.8491, "PARAM1": 0.1234, "PARAM2": 1.0, "PARAM3": 0.0, "MODEL_GW": 0, "MODEL_EPS0": 11.94187509, "MODEL_ALPHA": 1.0, "LEPSILON": false, "LRPA": false, "LNABLA": false, "LVEL": false, "CSHIFT": 0.1, "OMEGAMAX": -1.0, "DEG_THRESHOLD": 0.002, "RTIME": -0.1, "WPLASMAI": 0.0, "DFIELD": [0.0, 0.0, 0.0], "WPLASMA": [0.0, 0.0, 0.0, 0.0, 0.0, 0.0, 0.0, 0.0, 0.0], "NUCIND": false, "MAGPOS": [0.0, 0.0, 0.0], "LNICSALL": true, "ORBITALMAG": false, "LMAGBLOCH": false, "LCHIMAG": false, "LGAUGE": true, "MAGATOM": 0, "MAGDIPOL": [0.0, 0.0, 0.0], "AVECCONST": [0.0, 0.0, 0.0], "LFINITE_TEMPERATURE": false, "LADDER": false, "LRPAFORCE": false, "LFXC": false, "LHARTREE": true, "IBSE": 0, "KPOINT": [-1, 0, 0, 0], "LTCTC": false, "LTCTE": false, "LTETE": false, "LTRIPLET": false, "LFXCEPS": false, "LFXHEG": false, "NATURALO": 2, "LHOLEGF": false, "L2ORDER": false, "LDMP1": false, "LMP2LT": false, "LSMP2LT": false, "LGWLF": false, "ENCUTGW": -2.0, "ENCUTGWSOFT": -2.0, "ENCUTLF": -1.0, "LESF_SPLINES": false, "LMAXMP2": -1, "SCISSOR": 0.0, "NOMEGA": 0, "NOMEGAR": 0, "NBANDSGW": -1, "NBANDSO": -1, "NBANDSV": -1, "NELMGW": 1, "NELMHF": 1, "DIM": 3, "IESPILON": 4, "ANTIRES": 0, "OMEGAMIN": -30.0, "OMEGATL": -200.0, "OMEGAGRID": 0, "LSELFENERGY": false, "LSPECTRAL": false, "LSPECTRALGW": false, "LSINGLES": false, "LFERMIGW": false, "ODDONLYGW": false, "EVENONLYGW": false, "NKREDLFX": 1, "NKREDLFY": 1, "NKREDLFZ": 1, "MAXMEM": 2800, "TELESCOPE": 0, "NTAUPAR": -1, "NOMEGAPAR": -1, "DAMP_NEWTON": 0.80000001, "LAMBDA": 1.0, "OFIELD_KAPPA": 0.0, "OFIELD_K": [0.0, 0.0, 0.0], "OFIELD_Q6_NEAR": 0.0, "OFIELD_Q6_FAR": 0.0, "OFIELD_A": 0.0, "KPOINTS_OPT_MODE": 1, "LKPOINTS_OPT": false, "@module": "pymatgen.io.vasp.inputs", "@class": "Incar"}, "relaxed_structures": {"@module": "pymatgen.core.structure", "@class": "Structure", "charge": 0, "lattice": {"matrix": [[9.8408153, -0.06922081, -0.04970067], [4.88143024, 5.00645622, -0.02928211], [-0.25283764, -0.04005291, 49.75360381]], "a": 9.84118425017282, "b": 6.99241178083279, "c": 49.75426236203535, "alpha": 90.476224798649, "beta": 90.58019166950601, "gamma": 46.12694917227255, "volume": 2467.9875191249384}, "sites": [{"species": [{"element": "Li", "occu": 1}], "abc": [0.4693122, 0.99349744, 0.04629941], "xyz": [9.456396891657452, 4.939560841313411, 2.25114566967478], "label": "Li", "properties": {}}, {"species": [{"element": "Li", "occu": 1}], "abc": [0.06577495, 0.66326619, 0.04966289], "xyz": [3.872410123449141, 3.314071003860982, 2.448216860500534], "label": "Li", "properties": {}}, {"species": [{"element": "Li", "occu": 1}], "abc": [0.82623208, 0.74407136, 0.08918005], "xyz": [11.740381658259668, 3.6643963140538287, 4.374176608093127], "label": "Li", "properties": {}}, {"species": [{"element": "Li", "occu": 1}], "abc": [0.41656438, 0.46224156, 0.0866223], "xyz": [6.333831675404415, 2.2818877342178623, 4.275532658320336], "label": "Li", "properties": {}}, {"species": [{"element": "Li", "occu": 1}], "abc": [0.744075, 0.26595388, 0.02732678], "xyz": [8.613630718060833, 1.2788864654984538, 1.314837068723695], "label": "Li", "properties": {}}, {"species": [{"element": "Li", "occu": 1}], "abc": [0.13137873, 0.70453197, 0.14242951], "xyz": [4.695985938508585, 3.5124096049426075, 7.059221617843629], "label": "Li", "properties": {}}, {"species": [{"element": "Li", "occu": 1}], "abc": [0.52345773, 0.70927257, 0.15137576], "xyz": [8.575241919976179, 3.5086448619890627, 7.484704392165244], "label": "Li", "properties": {}}, {"species": [{"element": "Li", "occu": 1}], "abc": [0.32756847, 0.73370564, 0.19168534], "xyz": [6.756608440739948, 3.642913054531881, 9.49927164085717], "label": "Li", "properties": {}}, {"species": [{"element": "Li", "occu": 1}], "abc": [0.9539335, 0.07462917, 0.1015487], "xyz": [9.726105135553581, 0.3035283018420853, 5.002817353569953], "label": "Li", "properties": {}}, {"species": [{"element": "Li", "occu": 1}], "abc": [0.90142086, 0.48709301, 0.18708215], "xyz": [11.201125330241652, 2.3687195630363687, 9.248946839229964], "label": "Li", "properties": {}}, {"species": [{"element": "Li", "occu": 1}], "abc": [0.25268381, 0.19048239, 0.11185814], "xyz": [3.3881592541113768, 0.9316705241996922, 5.547209299531318], "label": "Li", "properties": {}}, {"species": [{"element": "Li", "occu": 1}], "abc": [0.63063796, 0.655998, 0.24395695], "xyz": [9.34651866060871, 3.2308008112373874, 12.087185302260767], "label": "Li", "properties": {}}, {"species": [{"element": "Li", "occu": 1}], "abc": [0.98818272, 0.74437291, 0.2551742], "xyz": [13.293610420365525, 3.648047107695675, 12.624925896635641], "label": "Li", "properties": {}}, {"species": [{"element": "Li", "occu": 1}], "abc": [0.82585696, 0.67319023, 0.29419891], "xyz": [11.33885239547907, 3.3013474040470645, 14.576697934871897], "label": "Li", "properties": {}}, {"species": [{"element": "Li", "occu": 1}], "abc": [0.44606398, 0.07449672, 0.20944542], "xyz": [4.700328095250097, 0.3336987586490024, 10.396313346680504], "label": "Li", "properties": {}}, {"species": [{"element": "Li", "occu": 1}], "abc": [0.37128599, 0.18473732, 0.28212712], "xyz": [4.484206836171407, 0.8878785756647593, 14.01297829154637], "label": "Li", "properties": {}}, {"species": [{"element": "Li", "occu": 1}], "abc": [0.77456521, 0.1836761, 0.2044685], "xyz": [8.467257905326635, 0.8577607636479868, 10.129169906964723], "label": "Li", "properties": {}}, {"species": [{"element": "Li", "occu": 1}], "abc": [0.940234, 0.9389753, 0.33373891], "xyz": [13.751829798432698, 4.6224877575160965, 16.530488066342585], "label": "Li", "properties": {}}, {"species": [{"element": "Li", "occu": 1}], "abc": [0.50152996, 0.69029988, 0.35263844], "xyz": [8.215954141733876, 3.407115622120925, 17.499893419880237], "label": "Li", "properties": {}}, {"species": [{"element": "Li", "occu": 1}], "abc": [0.24888337, 0.78041975, 0.38863614], "xyz": [6.1605179984984915, 3.8743433947932475, 19.300826528601164], "label": "Li", "properties": {}}, {"species": [{"element": "Li", "occu": 1}], "abc": [0.27781627, 0.69859432, 0.30621532], "xyz": [6.066655280704523, 3.4659863967275104, 15.201051741352854], "label": "Li", "properties": {}}, {"species": [{"element": "Li", "occu": 1}], "abc": [0.8086178, 0.55390057, 0.40476348], "xyz": [10.55894596740219, 2.7008938196059007, 20.08203359682313], "label": "Li", "properties": {}}, {"species": [{"element": "Li", "occu": 1}], "abc": [0.19589289, 0.29213338, 0.3348821], "xyz": [3.2691036644763836, 1.4355801102396715, 16.64330103681173], "label": "Li", "properties": {}}, {"species": [{"element": "Li", "occu": 1}], "abc": [0.53938817, 0.64000222, 0.44508513], "xyz": [8.31961127248184, 3.148979254446762, 22.09904065089699], "label": "Li", "properties": {}}, {"species": [{"element": "Li", "occu": 1}], "abc": [0.86251846, 0.91165884, 0.45747196], "xyz": [12.822417757107186, 4.486152760353428, 22.691315612239446], "label": "Li", "properties": {}}, {"species": [{"element": "Li", "occu": 1}], "abc": [0.3706608, 0.11384741, 0.41306931], "xyz": [4.09890319217309, 0.5277700052169501, 20.529931013324504], "label": "Li", "properties": {}}, {"species": [{"element": "Li", "occu": 1}], "abc": [0.34765903, 0.55829508, 0.48683974], "xyz": [6.023435377042564, 2.7515152879103395, 24.188404598255843], "label": "Li", "properties": {}}, {"species": [{"element": "Li", "occu": 1}], "abc": [0.67839422, 0.2514965, 0.40548385], "xyz": [7.801093260269612, 1.1959064111750082, 20.133201828817725], "label": "Li", "properties": {}}, {"species": [{"element": "Li", "occu": 1}], "abc": [0.08277584, 0.63008542, 0.54045665], "xyz": [3.7536519918051474, 3.12711839783573, 26.867101795294186], "label": "Li", "properties": {}}, {"species": [{"element": "Li", "occu": 1}], "abc": [0.38426426, 0.9805132, 0.55100683], "xyz": [8.428465127729266, 4.860227898629478, 27.366765829866115], "label": "Li", "properties": {}}, {"species": [{"element": "Li", "occu": 1}], "abc": [0.8115509, 0.53207846, 0.5914146], "xyz": [10.434094526419855, 2.5839634291943065, 29.36909269238617], "label": "Li", "properties": {}}, {"species": [{"element": "Li", "occu": 1}], "abc": [0.21411791, 0.35253672, 0.59260111], "xyz": [3.678146344336655, 1.7264028405319611, 29.463076021706154], "label": "Li", "properties": {}}, {"species": [{"element": "Li", "occu": 1}], "abc": [0.84935429, 0.29344999, 0.52732865], "xyz": [9.657465815895947, 1.3892304888047915, 26.1856944175951], "label": "Li", "properties": {}}, {"species": [{"element": "Li", "occu": 1}], "abc": [0.48334419, 0.01042005, 0.64346286], "xyz": [4.644674016340368, -0.007062512225305503, 31.99026855175558], "label": "Li", "properties": {}}, {"species": [{"element": "Li", "occu": 1}], "abc": [0.86556656, 0.03803729, 0.65269169], "xyz": [8.538531997922805, 0.1043746072030123, 32.429630704267865], "label": "Li", "properties": {}}, {"species": [{"element": "Li", "occu": 1}], "abc": [0.2153338, 0.85322839, 0.69134881], "xyz": [6.109236016682445, 4.22905446847417, 34.36140822555022], "label": "Li", "properties": {}}, {"species": [{"element": "Li", "occu": 1}], "abc": [0.33348686, 0.78994267, 0.61174449], "xyz": [6.9831605983066956, 3.9072270160903844, 30.396787279875678], "label": "Li", "properties": {}}, {"species": [{"element": "Li", "occu": 1}], "abc": [0.65214479, 0.0754619, 0.69131568], "xyz": [6.611207802848948, 0.30496550331430927, 34.36082473370413], "label": "Li", "properties": {}}, {"species": [{"element": "Li", "occu": 1}], "abc": [0.6144693, 0.11033602, 0.60095294], "xyz": [6.433532950308873, 0.485788476932856, 29.86580407783567], "label": "Li", "properties": {}}, {"species": [{"element": "Li", "occu": 1}], "abc": [0.93846807, 0.87659386, 0.74565408], "xyz": [13.325793300376224, 4.293801647088899, 37.026666665943594], "label": "Li", "properties": {}}, {"species": [{"element": "Li", "occu": 1}], "abc": [0.53537207, 0.87524436, 0.75398981], "xyz": [9.350304939797669, 4.314614195804295, 37.46147293131249], "label": "Li", "properties": {}}, {"species": [{"element": "Li", "occu": 1}], "abc": [0.75684123, 0.81921429, 0.79319902], "xyz": [11.246321595833836, 4.017201385741238, 39.40290594439229], "label": "Li", "properties": {}}, {"species": [{"element": "Li", "occu": 1}], "abc": [0.08727871, 0.50948727, 0.70698442], "xyz": [3.167167959135739, 2.516367425554702, 35.15576605987517], "label": "Li", "properties": {}}, {"species": [{"element": "Li", "occu": 1}], "abc": [0.17670357, 0.0836103, 0.79166387], "xyz": [1.9468826174520264, 0.37465130051041257, 39.37689996684922], "label": "Li", "properties": {}}, {"species": [{"element": "Li", "occu": 1}], "abc": [0.79565338, 0.38646398, 0.71305298], "xyz": [9.536088281385302, 1.8511793782009458, 35.42609447561269], "label": "Li", "properties": {}}, {"species": [{"element": "Li", "occu": 1}], "abc": [0.47272072, 0.88437953, 0.84705869], "xyz": [8.75482595526091, 4.360958122191705, 42.09483143089152], "label": "Li", "properties": {}}, {"species": [{"element": "Li", "occu": 1}], "abc": [0.08276742, 0.84602482, 0.85252658], "xyz": [4.728759224691612, 4.195710824128022, 42.387382710744134], "label": "Li", "properties": {}}, {"species": [{"element": "Li", "occu": 1}], "abc": [0.32857627, 0.73909691, 0.89029647], "xyz": [6.616207933422358, 3.6418530423098736, 44.25748506403717], "label": "Li", "properties": {}}, {"species": [{"element": "Li", "occu": 1}], "abc": [0.61584534, 0.50743739, 0.80959467], "xyz": [8.332744459038997, 2.4654071417025505, 40.234785694381216], "label": "Li", "properties": {}}, {"species": [{"element": "Li", "occu": 1}], "abc": [0.75859852, 0.01003887, 0.90516342], "xyz": [7.285372582839655, -0.038506069862482, 44.99714536798401], "label": "Li", "properties": {}}, {"species": [{"element": "Li", "occu": 1}], "abc": [0.3293658, 0.38515519, 0.81079602], "xyz": [4.916336443277492, 1.8729888891610655, 40.3123760922291], "label": "Li", "properties": {}}, {"species": [{"element": "Li", "occu": 1}], "abc": [0.04153369, 0.90921323, 0.94518679], "xyz": [4.608007530204757, 4.511203753542643, 46.997761142070786], "label": "Li", "properties": {}}, {"species": [{"element": "Li", "occu": 1}], "abc": [0.71986554, 0.63925307, 0.95742365], "xyz": [9.962460350739413, 3.1122152294003858, 47.580780482062615], "label": "Li", "properties": {}}, {"species": [{"element": "Li", "occu": 1}], "abc": [0.18756936, 0.43765198, 0.91627786], "xyz": [3.7505335057604325, 2.1414021797743614, 45.5659879300311], "label": "Li", "properties": {}}, {"species": [{"element": "Li", "occu": 1}], "abc": [0.23834446, 0.98439177, 0.98714306], "xyz": [6.901156641090585, 4.872277951113792, 49.07325376358604], "label": "Li", "properties": {}}, {"species": [{"element": "Li", "occu": 1}], "abc": [0.91702011, 0.28098273, 0.9045478], "xyz": [10.167119393016247, 1.3070210898964936, 44.950708587328684], "label": "Li", "properties": {}}, {"species": [{"element": "P", "occu": 1}], "abc": [0.10820103, 0.12461091, 0.04586091], "xyz": [1.6614704515550247, 0.6145324396091778, 2.2727190124465566], "label": "P", "properties": {}}, {"species": [{"element": "P", "occu": 1}], "abc": [0.62209558, 0.11170906, 0.1471507], "xyz": [6.63002244958, 0.5103107445787963, 7.287087984051212], "label": "P", "properties": {}}, {"species": [{"element": "P", "occu": 1}], "abc": [0.10493841, 0.10890127, 0.24897008], "xyz": [1.5013244557802665, 0.5279735426101544, 12.378754352610992], "label": "P", "properties": {}}, {"species": [{"element": "P", "occu": 1}], "abc": [0.57069507, 0.11992952, 0.35156167], "xyz": [6.1126443391299965, 0.5468368484292478, 17.459584327220377], "label": "P", "properties": {}}, {"species": [{"element": "P", "occu": 1}], "abc": [0.0311817, 0.18440619, 0.45637399], "xyz": [1.0916307801602119, 0.9027839880530137, 22.699301133926905], "label": "P", "properties": {}}, {"species": [{"element": "P", "occu": 1}], "abc": [0.50006652, 0.38178338, 0.5440517], "xyz": [6.647154449429179, 1.8549759141498954, 27.032499669939078], "label": "P", "properties": {}}, {"species": [{"element": "P", "occu": 1}], "abc": [0.97664395, 0.41509638, 0.64851555], "xyz": [11.473267606493664, 1.9845828332921331, 32.20529098279804], "label": "P", "properties": {}}, {"species": [{"element": "P", "occu": 1}], "abc": [0.43981732, 0.46716092, 0.74965976], "xyz": [6.41903224917385, 2.278350127634591, 37.26273601841094], "label": "P", "properties": {}}, {"species": [{"element": "P", "occu": 1}], "abc": [0.97356758, 0.45183406, 0.85208002], "xyz": [11.570857279445995, 2.1605680192636547, 42.33243411383393], "label": "P", "properties": {}}, {"species": [{"element": "P", "occu": 1}], "abc": [0.55217029, 0.36501349, 0.95724924], "xyz": [6.97356508739798, 1.7508617650053842, 47.58846783585085], "label": "P", "properties": {}}, {"species": [{"element": "S", "occu": 1}], "abc": [0.85193491, 0.39791245, 0.06507697], "xyz": [10.309662055721459, 1.9305531137579788, 3.1838203305805965], "label": "S", "properties": {}}, {"species": [{"element": "S", "occu": 1}], "abc": [0.17075614, 0.29512911, 0.02210176], "xyz": [3.115443640500982, 1.4648458503351687, 1.0825135129158698], "label": "S", "properties": {}}, {"species": [{"element": "S", "occu": 1}], "abc": [0.09075142, 0.9097747, 0.02041107], "xyz": [5.32890900783098, 4.54764779606287, 0.9843737609001083], "label": "S", "properties": {}}, {"species": [{"element": "S", "occu": 1}], "abc": [0.32554399, 0.88836973, 0.07345053], "xyz": [7.521562083275732, 4.422107834272246, 3.6122354746825156], "label": "S", "properties": {}}, {"species": [{"element": "S", "occu": 1}], "abc": [0.11666138, 0.61626142, 0.09640178], "xyz": [4.1319062260094555, 3.0733492522675343, 4.7724923852604615], "label": "S", "properties": {}}, {"species": [{"element": "S", "occu": 1}], "abc": [0.38930696, 0.35029866, 0.17176015], "xyz": [5.49762892934792, 1.719927268275291, 8.516080152803536], "label": "S", "properties": {}}, {"species": [{"element": "S", "occu": 1}], "abc": [0.63649389, 0.33653739, 0.12330183], "xyz": [7.875227259800309, 1.6358624897023895, 6.0932217012109735], "label": "S", "properties": {}}, {"species": [{"element": "S", "occu": 1}], "abc": [0.59582214, 0.90062205, 0.12240121], "xyz": [10.22875170800199, 4.462779048296896, 6.033916434709251], "label": "S", "properties": {}}, {"species": [{"element": "S", "occu": 1}], "abc": [0.86154754, 0.85952934, 0.17038917], "xyz": [12.630981930128243, 4.236734409852202, 8.40948693503778], "label": "S", "properties": {}}, {"species": [{"element": "S", "occu": 1}], "abc": [0.60868559, 0.62882021, 0.19703106], "xyz": [9.00968758736158, 3.0981354747276937, 9.754340033302551], "label": "S", "properties": {}}, {"species": [{"element": "S", "occu": 1}], "abc": [0.87768064, 0.30944588, 0.27356858], "xyz": [10.07846311275585, 1.4775162681436873, 13.558340200033056], "label": "S", "properties": {}}, {"species": [{"element": "S", "occu": 1}], "abc": [0.11365594, 0.34637092, 0.22608476], "xyz": [2.7520898592741365, 1.7171681380883597, 11.232740328771214], "label": "S", "properties": {}}, {"species": [{"element": "S", "occu": 1}], "abc": [0.09145053, 0.88675557, 0.22339258], "xyz": [5.172101176982835, 4.424225136383208, 11.084074692657023], "label": "S", "properties": {}}, {"species": [{"element": "S", "occu": 1}], "abc": [0.34976456, 0.85774609, 0.27124902], "xyz": [7.560414173344418, 4.2591929487230376, 13.453116126597061], "label": "S", "properties": {}}, {"species": [{"element": "S", "occu": 1}], "abc": [0.09413932, 0.59913348, 0.30036858], "xyz": [3.77509146475868, 2.9809885018714284, 14.922196646548903], "label": "S", "properties": {}}, {"species": [{"element": "S", "occu": 1}], "abc": [0.32466276, 0.36793453, 0.37366818], "xyz": [4.89651561625612, 1.8046081990638367, 18.56442872804746], "label": "S", "properties": {}}, {"species": [{"element": "S", "occu": 1}], "abc": [0.60016637, 0.32397445, 0.3271594], "xyz": [7.404866863059012, 1.5673162120535653, 16.238043844134758], "label": "S", "properties": {}}, {"species": [{"element": "S", "occu": 1}], "abc": [0.55537156, 0.90428105, 0.32532953], "xyz": [9.797238257174309, 4.475769823781034, 16.132234947505548], "label": "S", "properties": {}}, {"species": [{"element": "S", "occu": 1}], "abc": [0.80754547, 0.87456864, 0.37575466], "xyz": [12.121046701419964, 4.307540588420649, 18.629403717367758], "label": "S", "properties": {}}, {"species": [{"element": "S", "occu": 1}], "abc": [0.52071706, 0.69136989, 0.39803508], "xyz": [8.39851604882608, 3.4093261662011143, 19.757554916869555], "label": "S", "properties": {}}, {"species": [{"element": "S", "occu": 1}], "abc": [0.01281731, 0.00058821, 0.48720794], "xyz": [0.005819580695451798, -0.0174564727391603, 24.239696566921733], "label": "S", "properties": {}}, {"species": [{"element": "S", "occu": 1}], "abc": [0.81036761, 0.59080779, 0.45730767], "xyz": [10.743040395209302, 2.88344252975917, 22.695128720595285], "label": "S", "properties": {}}, {"species": [{"element": "S", "occu": 1}], "abc": [0.99986553, 0.04974152, 0.42164373], "xyz": [9.975694359864175, 0.16292918194882078, 20.927144567979497], "label": "S", "properties": {}}, {"species": [{"element": "S", "occu": 1}], "abc": [0.2739162, 0.09821196, 0.45955388], "xyz": [3.058781044879487, 0.4543267065884784, 22.847972002788396], "label": "S", "properties": {}}, {"species": [{"element": "S", "occu": 1}], "abc": [0.76660927, 0.10071176, 0.56061017], "xyz": [7.893934311782655, 0.4286896339721437, 27.851326242854928], "label": "S", "properties": {}}, {"species": [{"element": "S", "occu": 1}], "abc": [0.41241582, 0.24392067, 0.52007175], "xyz": [5.117695932216436, 1.1718000113945608, 25.847803947810558], "label": "S", "properties": {}}, {"species": [{"element": "S", "occu": 1}], "abc": [0.50231306, 0.62136342, 0.52074877], "xyz": [7.844647344615936, 3.055200738435273, 25.865967859478644], "label": "S", "properties": {}}, {"species": [{"element": "S", "occu": 1}], "abc": [0.29742222, 0.59383016, 0.57426334], "xyz": [5.680422245959886, 2.9293959733018773, 28.539500017294003], "label": "S", "properties": {}}, {"species": [{"element": "S", "occu": 1}], "abc": [0.49018071, 0.91264518, 0.59713089], "xyz": [9.127814445776405, 4.5112706024760545, 29.658327237512886], "label": "S", "properties": {}}, {"species": [{"element": "S", "occu": 1}], "abc": [0.2153948, 0.17867031, 0.67230693], "xyz": [2.821842600067769, 0.8526674333433738, 33.433755524391735], "label": "S", "properties": {}}, {"species": [{"element": "S", "occu": 1}], "abc": [0.98644898, 0.16751665, 0.62391795], "xyz": [10.367433114035252, 0.7453922474280547, 30.988234078048446], "label": "S", "properties": {}}, {"species": [{"element": "S", "occu": 1}], "abc": [0.96739857, 0.65955066, 0.62385426], "xyz": [12.581807346587732, 3.2100602130249665, 30.971604295158], "label": "S", "properties": {}}, {"species": [{"element": "S", "occu": 1}], "abc": [0.74348426, 0.64536806, 0.67291666], "xyz": [10.29667178490023, 3.1525900850564015, 33.42417949440861], "label": "S", "properties": {}}, {"species": [{"element": "S", "occu": 1}], "abc": [0.93978273, 0.95460715, 0.69953359], "xyz": [13.731208055393658, 4.686128026057114, 34.72965634573847], "label": "S", "properties": {}}, {"species": [{"element": "S", "occu": 1}], "abc": [0.67809646, 0.22424985, 0.77364513], "xyz": [7.5720754086826085, 1.0447719313834058, 38.451364930394135], "label": "S", "properties": {}}, {"species": [{"element": "S", "occu": 1}], "abc": [0.41684791, 0.24830428, 0.72588087], "xyz": [5.130673305522502, 1.1851963159247825, 36.08720072558259], "label": "S", "properties": {}}, {"species": [{"element": "S", "occu": 1}], "abc": [0.45760975, 0.68296057, 0.72475129], "xyz": [7.653833002604256, 3.358507677941594, 36.01624650573648], "label": "S", "properties": {}}, {"species": [{"element": "S", "occu": 1}], "abc": [0.20793285, 0.7164978, 0.77398805], "xyz": [5.3480694875158745, 3.5417211134159814, 38.477379824020105], "label": "S", "properties": {}}, {"species": [{"element": "S", "occu": 1}], "abc": [0.46881368, 0.94832223, 0.8005153], "xyz": [9.040277246543647, 4.683219097014566, 39.77745185018782], "label": "S", "properties": {}}, {"species": [{"element": "S", "occu": 1}], "abc": [0.20940246, 0.19512246, 0.87665653], "xyz": [2.7915158408370395, 0.9272644005345062, 43.60070063117054], "label": "S", "properties": {}}, {"species": [{"element": "S", "occu": 1}], "abc": [0.94535168, 0.24193893, 0.82757682], "xyz": [10.274796715472444, 1.1126717920446374, 41.12086013037651], "label": "S", "properties": {}}, {"species": [{"element": "S", "occu": 1}], "abc": [0.99616472, 0.65800543, 0.82653836], "xyz": [12.806100613670548, 3.1922147824608236, 41.054484255810934], "label": "S", "properties": {}}, {"species": [{"element": "S", "occu": 1}], "abc": [0.74434922, 0.6962703, 0.87738051], "xyz": [10.501963272822541, 3.399180675702213, 43.59545936669343], "label": "S", "properties": {}}, {"species": [{"element": "S", "occu": 1}], "abc": [0.05366206, 0.84462689, 0.89837839], "xyz": [4.423921791486071, 4.188890346959672, 44.670162989688144], "label": "S", "properties": {}}, {"species": [{"element": "S", "occu": 1}], "abc": [0.57336049, 0.55242578, 0.98759992], "xyz": [8.089260157218096, 2.686450754117787, 49.09198254950637], "label": "S", "properties": {}}, {"species": [{"element": "S", "occu": 1}], "abc": [0.77195743, 0.95866327, 0.95829021], "xyz": [12.034046529116457, 4.70768786085191, 47.611952958534125], "label": "S", "properties": {}}, {"species": [{"element": "S", "occu": 1}], "abc": [0.58293231, 0.49431468, 0.92232911], "xyz": [7.916292306664566, 2.397471792816728, 45.84575041816389], "label": "S", "properties": {}}, {"species": [{"element": "S", "occu": 1}], "abc": [0.30802397, 0.45581118, 0.96082877], "xyz": [5.013283795873922, 2.222193060303503, 47.77603784103256], "label": "S", "properties": {}}, {"species": [{"element": "Cl", "occu": 1}], "abc": [0.64845355, 0.08965852, 0.05347309], "xyz": [6.805453417101852, 0.401843222290427, 2.6256249678125174], "label": "Cl", "properties": {}}, {"species": [{"element": "Cl", "occu": 1}], "abc": [0.15741824, 0.03775394, 0.1468457], "xyz": [1.6962889288540692, 0.17223523205494537, 7.297173471979883], "label": "Cl", "properties": {}}, {"species": [{"element": "Cl", "occu": 1}], "abc": [0.63221766, 0.00665304, 0.25093919], "xyz": [6.190566699519016, -0.020505309824138705, 12.453512583325367], "label": "Cl", "properties": {}}, {"species": [{"element": "Cl", "occu": 1}], "abc": [0.1380112, 0.01666021, 0.34570475], "xyz": [1.3520612083033203, 0.06000888368961171, 17.192710071525752], "label": "Cl", "properties": {}}, {"species": [{"element": "Cl", "occu": 1}], "abc": [0.54048008, 0.29168095, 0.44853604], "xyz": [6.629178056562607, 1.4049102638146675, 22.280881172905858], "label": "Cl", "properties": {}}, {"species": [{"element": "Cl", "occu": 1}], "abc": [0.02625081, 0.36590215, 0.5539501], "xyz": [1.9043957566146448, 1.8078686789477258, 27.5489947360593], "label": "Cl", "properties": {}}, {"species": [{"element": "Cl", "occu": 1}], "abc": [0.52408528, 0.32314122, 0.64607595], "xyz": [6.571465446568519, 1.5556375413381969, 32.109097201166655], "label": "Cl", "properties": {}}, {"species": [{"element": "Cl", "occu": 1}], "abc": [0.90085563, 0.54869744, 0.74828699], "xyz": [11.35438702642742, 2.6547006835197755, 37.16913428945836], "label": "Cl", "properties": {}}, {"species": [{"element": "Cl", "occu": 1}], "abc": [0.43380269, 0.53809924, 0.84536851], "xyz": [6.681925072191458, 2.6300826446454297, 42.022812954512624], "label": "Cl", "properties": {}}, {"species": [{"element": "Cl", "occu": 1}], "abc": [0.04399671, 0.25625606, 0.9488333], "xyz": [1.4439588050595054, 1.241885722826255, 47.19818570583299], "label": "Cl", "properties": {}}]}, "formula": "(Li3PS4)10.0(Li2S)8.0(LiCl)10.0", "bandgap": 2.1388}