{"miller": "11-1_0.12", "final_energy": -517.71556468, "sigma": 0.0163841414410337, "incar_parameters": {"SYSTEM": "unknown system", "LCOMPAT": false, "PREC": "normal", "ENMAX": 520.0, "ENAUG": 628.945, "EDIFF": 1e-05, "IALGO": 38, "IWAVPR": 11, "NBANDS": 351, "NBANDSLOW": -1, "NBANDSHIGH": -1, "NELECT": 576.0, "TURBO": 0, "IRESTART": 0, "NREBOOT": 0, "NMIN": 0, "EREF": 0.0, "ISMEAR": 0, "SIGMA": 0.05, "KSPACING": 0.5, "KGAMMA": true, "KBLOWUP": true, "LREAL": true, "ROPT": [-0.0005, -0.0005, -0.0005, -0.0005], "LMAXPAW": -100, "LMAXMIX": 2, "NLSPLINE": false, "ISTART": 0, "ICHARG": 2, "INIWAV": 1, "ISPIN": 1, "LNONCOLLINEAR": false, "MAGMOM": [0.6, 0.6, 0.6, 0.6, 0.6, 0.6, 0.6, 0.6, 0.6, 0.6, 0.6, 0.6, 0.6, 0.6, 0.6, 0.6, 0.6, 0.6, 0.6, 0.6, 0.6, 0.6, 0.6, 0.6, 0.6, 0.6, 0.6, 0.6, 0.6, 0.6, 0.6, 0.6, 0.6, 0.6, 0.6, 0.6, 0.6, 0.6, 0.6, 0.6, 0.6, 0.6, 0.6, 0.6, 0.6, 0.6, 0.6, 0.6, 0.6, 0.6, 0.6, 0.6, 0.6, 0.6, 0.6, 0.6, 0.6, 0.6, 0.6, 0.6, 0.6, 0.6, 0.6, 0.6, 0.6, 0.6, 0.6, 0.6, 0.6, 0.6, 0.6, 0.6, 0.6, 0.6, 0.6, 0.6, 0.6, 0.6, 0.6, 0.6, 0.6, 0.6, 0.6, 0.6, 0.6, 0.6, 0.6, 0.6, 0.6, 0.6, 0.6, 0.6, 0.6, 0.6, 0.6, 0.6, 0.6, 0.6, 0.6, 0.6, 0.6, 0.6, 0.6, 0.6, 0.6, 0.6, 0.6, 0.6, 0.6, 0.6, 0.6, 0.6, 0.6, 0.6, 0.6, 0.6, 0.6, 0.6, 0.6, 0.6, 0.6, 0.6, 0.6, 0.6], "NUPDOWN": -1.0, "LSORBIT": false, "SAXIS": [0.0, 0.0, 1.0], "LSPIRAL": false, "QSPIRAL": [0.0, 0.0, 0.0], "LZEROZ": false, "LASPH": false, "LMETAGGA": false, "NELM": 100, "NELMDL": -5, "NELMIN": 6, "ENINI": 520.0, "LDIAG": true, "LSUBROT": false, "WEIMIN": 0.001, "EBREAK": 1e-08, "DEPER": 0.3, "NRMM": 4, "TIME": 0.4, "AMIX": 0.4, "BMIX": 1.0, "AMIN": 0.1, "AMIX_MAG": 1.6, "BMIX_MAG": 1.0, "IMIX": 4, "MIXFIRST": false, "MAXMIX": -45, "WC": 100.0, "INIMIX": 1, "MIXPRE": 1, "MREMOVE": 5, "LDIPOL": false, "LMONO": false, "IDIPOL": 0, "EPSILON": 1.0, "DIPOL": [-100.0, -100.0, -100.0], "EFIELD": 0.0, "NGX": 56, "NGY": 40, "NGZ": 280, "NGXF": 112, "NGYF": 80, "NGZF": 560, "ADDGRID": false, "NSW": 150, "IBRION": 2, "MDALGO": 0, "ISIF": 3, "PSTRESS": 0.0, "EDIFFG": -0.01, "NFREE": 1, "POTIM": 0.5, "SMASS": -3.0, "SCALEE": 1.0, "TEBEG": 0.0001, "TEEND": 0.0001, "NBLOCK": 1, "KBLOCK": 150, "NPACO": 256, "APACO": 10.0, "ISYM": 0, "SYMPREC": 1e-05, "LORBIT": 11, "RWIGS": [-1.0, -1.0, -1.0, -1.0], "NEDOS": 301, "EMIN": 10.0, "EMAX": -10.0, "EFERMI": 0.0, "NWRITE": 2, "LWAVE": false, "LDOWNSAMPLE": false, "LCHARG": false, "LPARD": false, "LVTOT": false, "LVHAR": false, "LELF": false, "LOPTICS": false, "STM": [0.0, 0.0, 0.0, 0.0, 0.0, 0.0, 0.0], "NPAR": 1, "NSIM": 4, "NBLK": -1, "LPLANE": true, "LSCALAPACK": true, "LSCAAWARE": false, "LSCALU": false, "LASYNC": false, "LORBITALREAL": false, "IDIOT": 3, "PHON_NSTRUCT": -1, "LMUSIC": false, "POMASS": [7.01, 30.974, 32.066, 35.453], "DARWINR": [0.0, 0.0, 0.0, 0.0], "DARWINV": [1.0, 1.0, 1.0, 1.0], "LCORR": true, "GGA_COMPAT": true, "LBERRY": false, "ICORELEVEL": 0, "LDAU": false, "I_CONSTRAINED_M": 0, "GGA": "--", "VOSKOWN": 0, "LHFCALC": false, "PRECFOCK": "", "LSYMGRAD": false, "LHFONE": false, "LRHFCALC": false, "LTHOMAS": false, "LMODELHF": false, "LFOCKACE": false, "ENCUT4O": -1.0, "EXXOEP": 0, "FOURORBIT": 0, "AEXX": 0.0, "HFALPHA": 0.0, "MCALPHA": 0.0, "ALDAX": 1.0, "AGGAX": 1.0, "ALDAC": 1.0, "AGGAC": 1.0, "NKREDX": 1, "NKREDY": 1, "NKREDZ": 1, "SHIFTRED": false, "ODDONLY": false, "EVENONLY": false, "LMAXFOCK": 0, "NMAXFOCKAE": 0, "LFOCKAEDFT": false, "HFSCREEN": 0.0, "HFSCREENC": 0.0, "NBANDSGWLOW": 0, "LUSE_VDW": false, "Zab_VDW": -0.8491, "PARAM1": 0.1234, "PARAM2": 1.0, "PARAM3": 0.0, "MODEL_GW": 0, "MODEL_EPS0": 11.9091576, "MODEL_ALPHA": 1.0, "LEPSILON": false, "LRPA": false, "LNABLA": false, "LVEL": false, "CSHIFT": 0.1, "OMEGAMAX": -1.0, "DEG_THRESHOLD": 0.002, "RTIME": -0.1, "WPLASMAI": 0.0, "DFIELD": [0.0, 0.0, 0.0], "WPLASMA": [0.0, 0.0, 0.0, 0.0, 0.0, 0.0, 0.0, 0.0, 0.0], "NUCIND": false, "MAGPOS": [0.0, 0.0, 0.0], "LNICSALL": true, "ORBITALMAG": false, "LMAGBLOCH": false, "LCHIMAG": false, "LGAUGE": true, "MAGATOM": 0, "MAGDIPOL": [0.0, 0.0, 0.0], "AVECCONST": [0.0, 0.0, 0.0], "LFINITE_TEMPERATURE": false, "LADDER": false, "LRPAFORCE": false, "LFXC": false, "LHARTREE": true, "IBSE": 0, "KPOINT": [-1, 0, 0, 0], "LTCTC": false, "LTCTE": false, "LTETE": false, "LTRIPLET": false, "LFXCEPS": false, "LFXHEG": false, "NATURALO": 2, "LHOLEGF": false, "L2ORDER": false, "LDMP1": false, "LMP2LT": false, "LSMP2LT": false, "LGWLF": false, "ENCUTGW": -2.0, "ENCUTGWSOFT": -2.0, "ENCUTLF": -1.0, "LESF_SPLINES": false, "LMAXMP2": -1, "SCISSOR": 0.0, "NOMEGA": 0, "NOMEGAR": 0, "NBANDSGW": -1, "NBANDSO": -1, "NBANDSV": -1, "NELMGW": 1, "NELMHF": 1, "DIM": 3, "IESPILON": 4, "ANTIRES": 0, "OMEGAMIN": -30.0, "OMEGATL": -200.0, "OMEGAGRID": 0, "LSELFENERGY": false, "LSPECTRAL": false, "LSPECTRALGW": false, "LSINGLES": false, "LFERMIGW": false, "ODDONLYGW": false, "EVENONLYGW": false, "NKREDLFX": 1, "NKREDLFY": 1, "NKREDLFZ": 1, "MAXMEM": 2800, "TELESCOPE": 0, "NTAUPAR": -1, "NOMEGAPAR": -1, "DAMP_NEWTON": 0.80000001, "LAMBDA": 1.0, "OFIELD_KAPPA": 0.0, "OFIELD_K": [0.0, 0.0, 0.0], "OFIELD_Q6_NEAR": 0.0, "OFIELD_Q6_FAR": 0.0, "OFIELD_A": 0.0, "KPOINTS_OPT_MODE": 1, "LKPOINTS_OPT": false, "@module": "pymatgen.io.vasp.inputs", "@class": "Incar"}, "relaxed_structures": {"@module": "pymatgen.core.structure", "@class": "Structure", "charge": 0, "lattice": {"matrix": [[9.84137167, 0.07293715, -0.02690345], [4.96136966, 5.07262187, -0.00629666], [-0.13505251, 0.05468442, 49.66230088]], "a": 9.841678717096519, "b": 7.095542346226818, "c": 49.662514618793686, "alpha": 90.1146881706731, "beta": 90.31196402114496, "gamma": 45.21065463741276, "volume": 2461.225907460148}, "sites": [{"species": [{"element": "Li", "occu": 1}], "abc": [0.53221931, 0.91003458, 0.043334], "xyz": [9.746933628955452, 4.657449567266911, 2.1320174323997976], "label": "Li", "properties": {}}, {"species": [{"element": "Li", "occu": 1}], "abc": [0.12761334, 0.63478844, 0.05570809], "xyz": [4.397786898343003, 3.2323958414797214, 2.7591616409394857], "label": "Li", "properties": {}}, {"species": [{"element": "Li", "occu": 1}], "abc": [0.80139307, 0.10847849, 0.08445466], "xyz": [8.413603130866743, 0.613340041452524, 4.171969445080166], "label": "Li", "properties": {}}, {"species": [{"element": "Li", "occu": 1}], "abc": [0.24985554, 0.8049757, 0.11054856], "xyz": [6.437773387460927, 4.1076063755233045, 5.478305214251958], "label": "Li", "properties": {}}, {"species": [{"element": "Li", "occu": 1}], "abc": [0.37957166, 0.26375972, 0.09681113], "xyz": [5.031040667694531, 1.3709322596918398, 4.795990874138032], "label": "Li", "properties": {}}, {"species": [{"element": "Li", "occu": 1}], "abc": [0.39916638, 0.55613484, 0.01326826], "xyz": [6.685743313977077, 2.850901377288477, 0.6446915755264234], "label": "Li", "properties": {}}, {"species": [{"element": "Li", "occu": 1}], "abc": [0.11736109, 0.69496383, 0.14852638], "xyz": [4.5829077068255035, 3.5419707852874547, 7.368628403010646], "label": "Li", "properties": {}}, {"species": [{"element": "Li", "occu": 1}], "abc": [0.54374979, 0.6599421, 0.15409219], "xyz": [8.604649954140237, 3.395722731426105, 7.633788526726965], "label": "Li", "properties": {}}, {"species": [{"element": "Li", "occu": 1}], "abc": [0.31717038, 0.03747688, 0.19138095], "xyz": [3.28148177001491, 0.2237051009387816, 9.495649364969204], "label": "Li", "properties": {}}, {"species": [{"element": "Li", "occu": 1}], "abc": [0.77023079, 0.72352561, 0.2076089], "xyz": [11.141767382711372, 3.737703243739277, 10.285057996851144], "label": "Li", "properties": {}}, {"species": [{"element": "Li", "occu": 1}], "abc": [0.90783007, 0.15934976, 0.19061545], "xyz": [9.69914310169712, 0.8849593108716406, 9.440974698120053], "label": "Li", "properties": {}}, {"species": [{"element": "Li", "occu": 1}], "abc": [0.95031192, 0.53394082, 0.09535096], "xyz": [11.988573205255918, 2.7830071358176043, 4.70641935168906], "label": "Li", "properties": {}}, {"species": [{"element": "Li", "occu": 1}], "abc": [0.61146718, 0.66508646, 0.24735134], "xyz": [9.284010146988729, 3.4318570604287397, 12.263398270138183], "label": "Li", "properties": {}}, {"species": [{"element": "Li", "occu": 1}], "abc": [0.0136603, 0.6626979, 0.25553878], "xyz": [3.387814190588077, 3.3765861940650255, 12.686103486311078], "label": "Li", "properties": {}}, {"species": [{"element": "Li", "occu": 1}], "abc": [0.79608597, 0.0358209, 0.29369229], "xyz": [7.972634757564215, 0.25583051508699034, 14.563791860998425], "label": "Li", "properties": {}}, {"species": [{"element": "Li", "occu": 1}], "abc": [0.26373583, 0.69298121, 0.30854385], "xyz": [5.991988654582461, 3.5513403226199642, 15.311538642592216], "label": "Li", "properties": {}}, {"species": [{"element": "Li", "occu": 1}], "abc": [0.38902068, 0.1514523, 0.28922628], "xyz": [4.540847210281391, 0.8124504803026206, 14.352222897710462], "label": "Li", "properties": {}}, {"species": [{"element": "Li", "occu": 1}], "abc": [0.45390549, 0.46156027, 0.21000854], "xyz": [6.728661569534441, 2.385911487940005, 10.414389389104874], "label": "Li", "properties": {}}, {"species": [{"element": "Li", "occu": 1}], "abc": [0.10543476, 0.51909496, 0.34837725], "xyz": [3.565995423260765, 2.6599133654655542, 17.295110685982223], "label": "Li", "properties": {}}, {"species": [{"element": "Li", "occu": 1}], "abc": [0.48908793, 0.73361224, 0.35706039], "xyz": [8.404795706290502, 3.776535812769412, 17.714663060992667], "label": "Li", "properties": {}}, {"species": [{"element": "Li", "occu": 1}], "abc": [0.30256688, 0.09526964, 0.39902395], "xyz": [3.3964518365297973, 0.5271556185944778, 19.807707489766937], "label": "Li", "properties": {}}, {"species": [{"element": "Li", "occu": 1}], "abc": [0.75811455, 0.76919622, 0.41057608], "xyz": [11.221704513329524, 3.9795883973445374, 20.364913555130126], "label": "Li", "properties": {}}, {"species": [{"element": "Li", "occu": 1}], "abc": [0.8923195, 0.20897967, 0.386491], "xyz": [9.766276662540966, 1.146293121817028, 19.1687099824309], "label": "Li", "properties": {}}, {"species": [{"element": "Li", "occu": 1}], "abc": [0.93917964, 0.44697354, 0.3117914], "xyz": [11.418308651149179, 2.352878972464934, 15.456196705700297], "label": "Li", "properties": {}}, {"species": [{"element": "Li", "occu": 1}], "abc": [0.60394756, 0.65621381, 0.44985661], "xyz": [9.138637430236038, 3.3973748855788948, 22.32053409044486], "label": "Li", "properties": {}}, {"species": [{"element": "Li", "occu": 1}], "abc": [0.88299578, 0.98308957, 0.45393268], "xyz": [13.506055671876972, 5.076067893930968, 22.51339551983548], "label": "Li", "properties": {}}, {"species": [{"element": "Li", "occu": 1}], "abc": [0.32994888, 0.26619945, 0.47249186], "xyz": [4.504052223271348, 1.4002326261236848, 23.454479984046362], "label": "Li", "properties": {}}, {"species": [{"element": "Li", "occu": 1}], "abc": [0.45408703, 0.48407653, 0.41378668], "xyz": [6.814638912077953, 2.5112846912514013, 20.534334029265636], "label": "Li", "properties": {}}, {"species": [{"element": "Li", "occu": 1}], "abc": [0.96317069, 0.64878459, 0.54144878], "xyz": [12.624656905866452, 3.3908986377391246, 26.859594432992573], "label": "Li", "properties": {}}, {"species": [{"element": "Li", "occu": 1}], "abc": [0.37179922, 0.91740787, 0.55489527], "xyz": [8.135673883698692, 4.7111253265518345, 27.541596568464815], "label": "Li", "properties": {}}, {"species": [{"element": "Li", "occu": 1}], "abc": [0.67799963, 0.45167326, 0.58534185], "xyz": [8.83431247329923, 2.3726280970524276, 29.048338510260795], "label": "Li", "properties": {}}, {"species": [{"element": "Li", "occu": 1}], "abc": [0.23832109, 0.76030131, 0.60939008], "xyz": [6.035242615508674, 3.907427657063697, 30.25251448787188], "label": "Li", "properties": {}}, {"species": [{"element": "Li", "occu": 1}], "abc": [0.11496261, 0.29573851, 0.59476247], "xyz": [2.5183336795435656, 1.5410789194668926, 29.532317681595593], "label": "Li", "properties": {}}, {"species": [{"element": "Li", "occu": 1}], "abc": [0.11108326, 0.98731629, 0.51229702], "xyz": [5.922465735588485, 5.044398967064799, 25.432643429245537], "label": "Li", "properties": {}}, {"species": [{"element": "Li", "occu": 1}], "abc": [0.37792699, 0.85958236, 0.64775193], "xyz": [7.896545289885726, 4.423323134556822, 32.153271205518664], "label": "Li", "properties": {}}, {"species": [{"element": "Li", "occu": 1}], "abc": [0.95636352, 0.88946321, 0.65307348], "xyz": [13.73668542304125, 4.617377905590352, 32.401801534950636], "label": "Li", "properties": {}}, {"species": [{"element": "Li", "occu": 1}], "abc": [0.18618985, 0.51203449, 0.69014869], "xyz": [4.2795495857334105, 2.648677890012634, 34.26613863830606], "label": "Li", "properties": {}}, {"species": [{"element": "Li", "occu": 1}], "abc": [0.73269435, 0.8247866, 0.70655223], "xyz": [11.207366979966023, 4.2759085818503015, 35.064104027091695], "label": "Li", "properties": {}}, {"species": [{"element": "Li", "occu": 1}], "abc": [0.59507642, 0.38916547, 0.68869321], "xyz": [7.694152230220204, 2.05515324102462, 34.18362935767304], "label": "Li", "properties": {}}, {"species": [{"element": "Li", "occu": 1}], "abc": [0.54704412, 0.01811791, 0.59518282], "xyz": [5.393173220034813, 0.1643523728474141, 29.543316828997487], "label": "Li", "properties": {}}, {"species": [{"element": "Li", "occu": 1}], "abc": [0.90400076, 0.86579334, 0.74630397], "xyz": [13.091338053657068, 4.498588670159727, 37.033399960539626], "label": "Li", "properties": {}}, {"species": [{"element": "Li", "occu": 1}], "abc": [0.49442949, 0.87502889, 0.753864], "xyz": [9.105394936769384, 4.515977577771257, 37.41980917212707], "label": "Li", "properties": {}}, {"species": [{"element": "Li", "occu": 1}], "abc": [0.71323045, 0.52324206, 0.79468851], "xyz": [9.507838548187589, 2.749687193426084, 39.44357685239932], "label": "Li", "properties": {}}, {"species": [{"element": "Li", "occu": 1}], "abc": [0.22847049, 0.8661239, 0.80834442], "xyz": [6.436454904112398, 4.454386869437332, 40.13264346858872], "label": "Li", "properties": {}}, {"species": [{"element": "Li", "occu": 1}], "abc": [0.11503611, 0.38427065, 0.78597444], "xyz": [2.9324740372016382, 2.0006306655858266, 39.0277846334049], "label": "Li", "properties": {}}, {"species": [{"element": "Li", "occu": 1}], "abc": [0.0433188, 0.09553352, 0.70912287], "xyz": [0.8045246952474954, 0.5265429455381877, 35.21490636356522], "label": "Li", "properties": {}}, {"species": [{"element": "Li", "occu": 1}], "abc": [0.4174921, 0.01350891, 0.84717172], "xyz": [4.061304954415459, 0.1453033703759791, 42.06117981681613], "label": "Li", "properties": {}}, {"species": [{"element": "Li", "occu": 1}], "abc": [0.81285612, 0.99267945, 0.85603656], "xyz": [12.809059010409841, 5.141586759504824, 42.48462600803291], "label": "Li", "properties": {}}, {"species": [{"element": "Li", "occu": 1}], "abc": [0.188433, 0.77293664, 0.88771828], "xyz": [5.569375000804569, 3.9831034294394643, 44.07619590101861], "label": "Li", "properties": {}}, {"species": [{"element": "Li", "occu": 1}], "abc": [0.96904219, 0.5146636, 0.90825455], "xyz": [11.967478669150712, 2.7310403819004017, 45.07669949791887], "label": "Li", "properties": {}}, {"species": [{"element": "Li", "occu": 1}], "abc": [0.58401429, 0.09978533, 0.89948798], "xyz": [6.121095487842422, 0.5979575636183123, 44.65430238715712], "label": "Li", "properties": {}}, {"species": [{"element": "Li", "occu": 1}], "abc": [0.49579884, 0.1913235, 0.80623328], "xyz": [5.71968343803034, 1.0507623240093484, 40.02485633249778], "label": "Li", "properties": {}}, {"species": [{"element": "Li", "occu": 1}], "abc": [0.94106745, 0.96910143, 0.94891895], "xyz": [13.941311088269691, 5.036414968234801, 47.09407834233575], "label": "Li", "properties": {}}, {"species": [{"element": "Li", "occu": 1}], "abc": [0.59649747, 0.6188743, 0.95953378], "xyz": [8.811230032439626, 3.2352936826346586, 47.63271060597461], "label": "Li", "properties": {}}, {"species": [{"element": "Li", "occu": 1}], "abc": [0.16331919, 0.29019602, 0.97273165], "xyz": [2.915684727825159, 1.5371599799937588, 48.30187076246535], "label": "Li", "properties": {}}, {"species": [{"element": "Li", "occu": 1}], "abc": [0.74205751, 0.34097685, 0.90730758], "xyz": [8.872041788756086, 1.8333857751631095, 45.036871106254935], "label": "Li", "properties": {}}, {"species": [{"element": "P", "occu": 1}], "abc": [0.09290706, 0.17860536, 0.04340786], "xyz": [1.794597781997639, 0.9151475650540434, 2.1521100662074617], "label": "P", "properties": {}}, {"species": [{"element": "P", "occu": 1}], "abc": [0.61418198, 0.09165757, 0.14901182], "xyz": [6.479015804793164, 0.5178895022854573, 7.383169088771853], "label": "P", "properties": {}}, {"species": [{"element": "P", "occu": 1}], "abc": [0.10518951, 0.0758113, 0.25164401], "xyz": [1.3773517922233747, 0.40599528817575165, 12.49391322056666], "label": "P", "properties": {}}, {"species": [{"element": "P", "occu": 1}], "abc": [0.60169185, 0.1218338, 0.35272615], "xyz": [6.478299093642261, 0.6811911120340166, 17.50023745692702], "label": "P", "properties": {}}, {"species": [{"element": "P", "occu": 1}], "abc": [0.09850404, 0.13846394, 0.45393906], "xyz": [1.5950800501165665, 0.7343832084028991, 22.540136220036995], "label": "P", "properties": {}}, {"species": [{"element": "P", "occu": 1}], "abc": [0.4047159, 0.37386856, 0.54286197], "xyz": [5.764544851438398, 1.9556987502365997, 26.94653211326267], "label": "P", "properties": {}}, {"species": [{"element": "P", "occu": 1}], "abc": [0.88327505, 0.46117567, 0.64790663], "xyz": [10.893199614328863, 2.439223752642715, 32.14986698866865], "label": "P", "properties": {}}, {"species": [{"element": "P", "occu": 1}], "abc": [0.40833843, 0.46213006, 0.74990502], "xyz": [6.210131760219657, 2.415002211533875, 37.228113146264235], "label": "P", "properties": {}}, {"species": [{"element": "P", "occu": 1}], "abc": [0.91916477, 0.40100039, 0.8512457], "xyz": [10.920390427722525, 2.1477144842787284, 42.24756640965906], "label": "P", "properties": {}}, {"species": [{"element": "P", "occu": 1}], "abc": [0.42504629, 0.37487244, 0.95607206], "xyz": [5.913799335586904, 1.9848700486942412, 47.46694265077266], "label": "P", "properties": {}}, {"species": [{"element": "S", "occu": 1}], "abc": [0.90540237, 0.58580413, 0.04249484], "xyz": [11.811053036549506, 3.0399241155237613, 2.0823444731030767], "label": "S", "properties": {}}, {"species": [{"element": "S", "occu": 1}], "abc": [0.29717402, 0.99529876, 0.01274372], "xyz": [7.860923980614897, 5.071146166169566, 0.6186203926919629], "label": "S", "properties": {}}, {"species": [{"element": "S", "occu": 1}], "abc": [0.93968269, 0.08756926, 0.03974936], "xyz": [9.676861823029151, 0.5149171914256209, 1.9482125759844846], "label": "S", "properties": {}}, {"species": [{"element": "S", "occu": 1}], "abc": [0.2582203, 0.04772541, 0.07822572], "xyz": [2.7674607663914044, 0.2652045394021441, 3.8776217155844677], "label": "S", "properties": {}}, {"species": [{"element": "S", "occu": 1}], "abc": [0.0793523, 0.70031272, 0.10258101], "xyz": [4.241591935810581, 3.5638189329539953, 5.0878645014673385], "label": "S", "properties": {}}, {"species": [{"element": "S", "occu": 1}], "abc": [0.37897006, 0.30207743, 0.17372949], "xyz": [5.204840404749454, 1.5694658703606688, 8.61570852317786], "label": "S", "properties": {}}, {"species": [{"element": "S", "occu": 1}], "abc": [0.58965912, 0.3498488, 0.12426746], "xyz": [7.522001148048213, 1.8244542237325372, 6.153341244516392], "label": "S", "properties": {}}, {"species": [{"element": "S", "occu": 1}], "abc": [0.6264564, 0.84764948, 0.12386098], "xyz": [10.353964943596903, 4.352270500609319, 6.129030057042345], "label": "S", "properties": {}}, {"species": [{"element": "S", "occu": 1}], "abc": [0.84558499, 0.8858615, 0.1745736], "xyz": [12.693225931365587, 4.564861434007695, 8.641399526732961], "label": "S", "properties": {}}, {"species": [{"element": "S", "occu": 1}], "abc": [0.61039611, 0.59492658, 0.20073826], "xyz": [8.931675462505735, 3.0733353887067003, 9.948956054622867], "label": "S", "properties": {}}, {"species": [{"element": "S", "occu": 1}], "abc": [0.86730174, 0.29261408, 0.27585269], "xyz": [9.949950793803767, 1.5626639431416602, 13.674303388967392], "label": "S", "properties": {}}, {"species": [{"element": "S", "occu": 1}], "abc": [0.09648385, 0.31955014, 0.22727562], "xyz": [2.5042456545044756, 1.6404227212254294, 11.28242237610973], "label": "S", "properties": {}}, {"species": [{"element": "S", "occu": 1}], "abc": [0.11911886, 0.82725886, 0.22750318], "xyz": [5.2459051076449015, 4.217500454993373, 11.289917700249323], "label": "S", "properties": {}}, {"species": [{"element": "S", "occu": 1}], "abc": [0.34237768, 0.85908764, 0.2763784], "xyz": [7.594391756139544, 4.397912395618026, 13.710966733958713], "label": "S", "properties": {}}, {"species": [{"element": "S", "occu": 1}], "abc": [0.09445621, 0.58414679, 0.30147524], "xyz": [3.7870318421771096, 2.98653114764526, 14.965734705100562], "label": "S", "properties": {}}, {"species": [{"element": "S", "occu": 1}], "abc": [0.36765714, 0.34884183, 0.37764447], "xyz": [5.297981999808981, 1.8170098288057306, 18.74260551092771], "label": "S", "properties": {}}, {"species": [{"element": "S", "occu": 1}], "abc": [0.58525918, 0.37123087, 0.32811022], "xyz": [7.557254580165182, 1.9437434836584362, 16.276625461786928], "label": "S", "properties": {}}, {"species": [{"element": "S", "occu": 1}], "abc": [0.60827606, 0.87769528, 0.32883807], "xyz": [10.29643111060337, 4.514564513885271, 16.308963899810326], "label": "S", "properties": {}}, {"species": [{"element": "S", "occu": 1}], "abc": [0.84628958, 0.90518123, 0.37580851], "xyz": [12.76883510599682, 4.673918924051811, 18.635047569039745], "label": "S", "properties": {}}, {"species": [{"element": "S", "occu": 1}], "abc": [0.59986308, 0.63418414, 0.40288812], "xyz": [8.995486420584955, 3.282760344783654, 19.988219408130945], "label": "S", "properties": {}}, {"species": [{"element": "S", "occu": 1}], "abc": [0.86707015, 0.30087419, 0.4778074], "xyz": [9.96137859918915, 1.615591242444316, 23.703793180586285], "label": "S", "properties": {}}, {"species": [{"element": "S", "occu": 1}], "abc": [0.08018944, 0.41765882, 0.43576802], "xyz": [2.8024823159498355, 2.1483037751723377, 21.636455294946746], "label": "S", "properties": {}}, {"species": [{"element": "S", "occu": 1}], "abc": [0.11720822, 0.9087712, 0.42542475], "xyz": [5.6047848350572975, 4.641665603176912, 21.118696407548228], "label": "S", "properties": {}}, {"species": [{"element": "S", "occu": 1}], "abc": [0.3326612, 0.91635861, 0.47913095], "xyz": [7.755528477305791, 4.69880508379718, 23.78002566725385], "label": "S", "properties": {}}, {"species": [{"element": "S", "occu": 1}], "abc": [0.59170878, 0.9668351, 0.54215622], "xyz": [10.546832797422216, 4.977193923426906, 26.902718482125415], "label": "S", "properties": {}}, {"species": [{"element": "S", "occu": 1}], "abc": [0.2010581, 0.55999646, 0.51187152], "xyz": [4.687907402141915, 2.8833062921027137, 25.411782174292668], "label": "S", "properties": {}}, {"species": [{"element": "S", "occu": 1}], "abc": [0.55993422, 0.46240833, 0.53976936], "xyz": [7.731802221875721, 2.4159795882078208, 26.788212571798798], "label": "S", "properties": {}}, {"species": [{"element": "S", "occu": 1}], "abc": [0.24009907, 0.50540186, 0.57744017], "xyz": [4.792404895469588, 2.6128016508392795, 28.66736562573777], "label": "S", "properties": {}}, {"species": [{"element": "S", "occu": 1}], "abc": [0.4103083, 0.86280965, 0.60210276], "xyz": [8.23739861043515, 4.43955945847139, 29.88533689995402], "label": "S", "properties": {}}, {"species": [{"element": "S", "occu": 1}], "abc": [0.11924352, 0.25067903, 0.67279165], "xyz": [2.3263689323597667, 1.3170884335942472, 33.40759484915247], "label": "S", "properties": {}}, {"species": [{"element": "S", "occu": 1}], "abc": [0.90360362, 0.20484937, 0.62336534], "xyz": [9.824845462151554, 1.1391180391562077, 30.932157151598904], "label": "S", "properties": {}}, {"species": [{"element": "S", "occu": 1}], "abc": [0.87103971, 0.70396771, 0.62265821], "xyz": [11.980778009320085, 3.6685428585761324, 30.894772751815374], "label": "S", "properties": {}}, {"species": [{"element": "S", "occu": 1}], "abc": [0.65333769, 0.66744626, 0.67334735], "xyz": [9.650249407634364, 3.470176693915177, 33.41819897240715], "label": "S", "properties": {}}, {"species": [{"element": "S", "occu": 1}], "abc": [0.89252429, 0.95319397, 0.69973678], "xyz": [13.418309696767496, 4.938555456559465, 34.72052458420942], "label": "S", "properties": {}}, {"species": [{"element": "S", "occu": 1}], "abc": [0.64908797, 0.24710147, 0.77357341], "xyz": [7.50940466480545, 1.3430973607155063, 38.39841682049901], "label": "S", "properties": {}}, {"species": [{"element": "S", "occu": 1}], "abc": [0.41023795, 0.22277351, 0.72578097], "xyz": [5.044547330945848, 1.1996562771689936, 36.03151335989284], "label": "S", "properties": {}}, {"species": [{"element": "S", "occu": 1}], "abc": [0.38138491, 0.72098091, 0.72572901], "xyz": [7.232391936572375, 3.724766730295932, 36.02657211045083], "label": "S", "properties": {}}, {"species": [{"element": "S", "occu": 1}], "abc": [0.1800937, 0.66159281, 0.77616267], "xyz": [4.949952815181822, 3.411589683686311, 38.53701308252787], "label": "S", "properties": {}}, {"species": [{"element": "S", "occu": 1}], "abc": [0.40617857, 0.96034712, 0.79979322], "xyz": [8.653977254153508, 4.944839539346022, 39.702596949278345], "label": "S", "properties": {}}, {"species": [{"element": "S", "occu": 1}], "abc": [0.15935974, 0.15064722, 0.87537631], "xyz": [2.197513209385873, 0.8236690738811326, 43.46796578932276], "label": "S", "properties": {}}, {"species": [{"element": "S", "occu": 1}], "abc": [0.90967376, 0.16960896, 0.82791196], "xyz": [9.682118730557512, 0.9719850166718024, 41.09047152719798], "label": "S", "properties": {}}, {"species": [{"element": "S", "occu": 1}], "abc": [0.90987423, 0.63715678, 0.82594572], "xyz": [12.004034744730602, 3.3435854126911053, 40.98987414172478], "label": "S", "properties": {}}, {"species": [{"element": "S", "occu": 1}], "abc": [0.68614957, 0.64660304, 0.87660855], "xyz": [9.842301459335488, 3.3779553461458014, 43.51186633393366], "label": "S", "properties": {}}, {"species": [{"element": "S", "occu": 1}], "abc": [0.90617481, 0.90012574, 0.90245885], "xyz": [13.261980306958467, 4.681441761303243, 44.788135926084664], "label": "S", "properties": {}}, {"species": [{"element": "S", "occu": 1}], "abc": [0.65034815, 0.23512709, 0.98013809], "xyz": [7.434500160415894, 1.2937436425037887, 48.65693560524988], "label": "S", "properties": {}}, {"species": [{"element": "S", "occu": 1}], "abc": [0.4387037, 0.09434824, 0.93965511], "xyz": [4.658639878974751, 0.56197523788285, 46.65303807440285], "label": "S", "properties": {}}, {"species": [{"element": "S", "occu": 1}], "abc": [0.41723522, 0.58466356, 0.92564522], "xyz": [6.881888211395304, 3.0468274808559523, 45.95476492924257], "label": "S", "properties": {}}, {"species": [{"element": "S", "occu": 1}], "abc": [0.18297725, 0.61697459, 0.97945458], "xyz": [4.729508336761451, 3.1965855432217642, 48.63316045173564], "label": "S", "properties": {}}, {"species": [{"element": "Cl", "occu": 1}], "abc": [0.47757872, 0.28911022, 0.05242379], "xyz": [6.127332394683575, 1.504246820100311, 2.588817088277486], "label": "Cl", "properties": {}}, {"species": [{"element": "Cl", "occu": 1}], "abc": [0.16277488, 0.00341215, 0.15567601], "xyz": [1.5978325942077334, 0.0376939348672767, 7.7268281574241335], "label": "Cl", "properties": {}}, {"species": [{"element": "Cl", "occu": 1}], "abc": [0.64675512, 0.9959314, 0.25291118], "xyz": [11.271985057130713, 5.112986177050241, 12.53648013163355], "label": "Cl", "properties": {}}, {"species": [{"element": "Cl", "occu": 1}], "abc": [0.12186437, 0.14920657, 0.35574153], "xyz": [1.8915377214333238, 0.785210469201994, 17.66272482334541], "label": "Cl", "properties": {}}, {"species": [{"element": "Cl", "occu": 1}], "abc": [0.59532475, 0.11362639, 0.44629633], "xyz": [6.362281213450871, 0.6442104574667904, 22.147370865709522], "label": "Cl", "properties": {}}, {"species": [{"element": "Cl", "occu": 1}], "abc": [0.02587266, 0.26301184, 0.55014821], "xyz": [1.4852225297158095, 1.366131225514148, 27.319273773666293], "label": "Cl", "properties": {}}, {"species": [{"element": "Cl", "occu": 1}], "abc": [0.33529706, 0.54876012, 0.65425955], "xyz": [5.934025402885277, 2.843886002076814, 32.47955862212734], "label": "Cl", "properties": {}}, {"species": [{"element": "Cl", "occu": 1}], "abc": [0.86280904, 0.54315453, 0.75072468], "xyz": [11.08462759635651, 2.8592013237448928, 37.25608233693166], "label": "Cl", "properties": {}}, {"species": [{"element": "Cl", "occu": 1}], "abc": [0.45233795, 0.32605847, 0.85405038], "xyz": [5.9539808393544424, 1.7336668164116606, 42.3998844074917], "label": "Cl", "properties": {}}, {"species": [{"element": "Cl", "occu": 1}], "abc": [0.91719472, 0.354057, 0.94602606], "xyz": [10.655298597063792, 1.9146277366944233, 46.95492575320152], "label": "Cl", "properties": {}}]}, "formula": "(Li3PS4)10.0(Li2S)8.0(LiCl)10.0", "bandgap": 2.1459}