{"miller": "11-1_0.35", "final_energy": -424.00821269, "sigma": 0.02034794478313552, "incar_parameters": {"SYSTEM": "unknown system", "LCOMPAT": false, "PREC": "normal", "ENMAX": 520.0, "ENAUG": 628.945, "EDIFF": 1e-05, "IALGO": 38, "IWAVPR": 11, "NBANDS": 289, "NBANDSLOW": -1, "NBANDSHIGH": -1, "NELECT": 472.0, "TURBO": 0, "IRESTART": 0, "NREBOOT": 0, "NMIN": 0, "EREF": 0.0, "ISMEAR": 0, "SIGMA": 0.05, "KSPACING": 0.5, "KGAMMA": true, "KBLOWUP": true, "LREAL": true, "ROPT": [-0.0005, -0.0005, -0.0005, -0.0005], "LMAXPAW": -100, "LMAXMIX": 2, "NLSPLINE": false, "ISTART": 0, "ICHARG": 2, "INIWAV": 1, "ISPIN": 1, "LNONCOLLINEAR": false, "MAGMOM": [0.6, 0.6, 0.6, 0.6, 0.6, 0.6, 0.6, 0.6, 0.6, 0.6, 0.6, 0.6, 0.6, 0.6, 0.6, 0.6, 0.6, 0.6, 0.6, 0.6, 0.6, 0.6, 0.6, 0.6, 0.6, 0.6, 0.6, 0.6, 0.6, 0.6, 0.6, 0.6, 0.6, 0.6, 0.6, 0.6, 0.6, 0.6, 0.6, 0.6, 0.6, 0.6, 0.6, 0.6, 0.6, 0.6, 0.6, 0.6, 0.6, 0.6, 0.6, 0.6, 0.6, 0.6, 0.6, 0.6, 0.6, 0.6, 0.6, 0.6, 0.6, 0.6, 0.6, 0.6, 0.6, 0.6, 0.6, 0.6, 0.6, 0.6, 0.6, 0.6, 0.6, 0.6, 0.6, 0.6, 0.6, 0.6, 0.6, 0.6, 0.6, 0.6, 0.6, 0.6, 0.6, 0.6, 0.6, 0.6, 0.6, 0.6, 0.6, 0.6, 0.6, 0.6, 0.6, 0.6, 0.6, 0.6, 0.6, 0.6, 0.6, 0.6, 0.6, 0.6], "NUPDOWN": -1.0, "LSORBIT": false, "SAXIS": [0.0, 0.0, 1.0], "LSPIRAL": false, "QSPIRAL": [0.0, 0.0, 0.0], "LZEROZ": false, "LASPH": false, "LMETAGGA": false, "NELM": 100, "NELMDL": -5, "NELMIN": 6, "ENINI": 520.0, "LDIAG": true, "LSUBROT": false, "WEIMIN": 0.001, "EBREAK": 1e-08, "DEPER": 0.3, "NRMM": 4, "TIME": 0.4, "AMIX": 0.4, "BMIX": 1.0, "AMIN": 0.1, "AMIX_MAG": 1.6, "BMIX_MAG": 1.0, "IMIX": 4, "MIXFIRST": false, "MAXMIX": -45, "WC": 100.0, "INIMIX": 1, "MIXPRE": 1, "MREMOVE": 5, "LDIPOL": false, "LMONO": false, "IDIPOL": 0, "EPSILON": 1.0, "DIPOL": [-100.0, -100.0, -100.0], "EFIELD": 0.0, "NGX": 54, "NGY": 40, "NGZ": 240, "NGXF": 108, "NGYF": 80, "NGZF": 480, "ADDGRID": false, "NSW": 150, "IBRION": 2, "MDALGO": 0, "ISIF": 3, "PSTRESS": 0.0, "EDIFFG": -0.01, "NFREE": 1, "POTIM": 0.5, "SMASS": -3.0, "SCALEE": 1.0, "TEBEG": 0.0001, "TEEND": 0.0001, "NBLOCK": 1, "KBLOCK": 150, "NPACO": 256, "APACO": 10.0, "ISYM": 0, "SYMPREC": 1e-05, "LORBIT": 11, "RWIGS": [-1.0, -1.0, -1.0, -1.0], "NEDOS": 301, "EMIN": 10.0, "EMAX": -10.0, "EFERMI": 0.0, "NWRITE": 2, "LWAVE": false, "LDOWNSAMPLE": false, "LCHARG": false, "LPARD": false, "LVTOT": false, "LVHAR": false, "LELF": false, "LOPTICS": false, "STM": [0.0, 0.0, 0.0, 0.0, 0.0, 0.0, 0.0], "NPAR": 1, "NSIM": 4, "NBLK": -1, "LPLANE": true, "LSCALAPACK": true, "LSCAAWARE": false, "LSCALU": false, "LASYNC": false, "LORBITALREAL": false, "IDIOT": 3, "PHON_NSTRUCT": -1, "LMUSIC": false, "POMASS": [7.01, 30.974, 32.066, 35.453], "DARWINR": [0.0, 0.0, 0.0, 0.0], "DARWINV": [1.0, 1.0, 1.0, 1.0], "LCORR": true, "GGA_COMPAT": true, "LBERRY": false, "ICORELEVEL": 0, "LDAU": false, "I_CONSTRAINED_M": 0, "GGA": "--", "VOSKOWN": 0, "LHFCALC": false, "PRECFOCK": "", "LSYMGRAD": false, "LHFONE": false, "LRHFCALC": false, "LTHOMAS": false, "LMODELHF": false, "LFOCKACE": false, "ENCUT4O": -1.0, "EXXOEP": 0, "FOURORBIT": 0, "AEXX": 0.0, "HFALPHA": 0.0, "MCALPHA": 0.0, "ALDAX": 1.0, "AGGAX": 1.0, "ALDAC": 1.0, "AGGAC": 1.0, "NKREDX": 1, "NKREDY": 1, "NKREDZ": 1, "SHIFTRED": false, "ODDONLY": false, "EVENONLY": false, "LMAXFOCK": 0, "NMAXFOCKAE": 0, "LFOCKAEDFT": false, "HFSCREEN": 0.0, "HFSCREENC": 0.0, "NBANDSGWLOW": 0, "LUSE_VDW": false, "Zab_VDW": -0.8491, "PARAM1": 0.1234, "PARAM2": 1.0, "PARAM3": 0.0, "MODEL_GW": 0, "MODEL_EPS0": 11.87819539, "MODEL_ALPHA": 1.0, "LEPSILON": false, "LRPA": false, "LNABLA": false, "LVEL": false, "CSHIFT": 0.1, "OMEGAMAX": -1.0, "DEG_THRESHOLD": 0.002, "RTIME": -0.1, "WPLASMAI": 0.0, "DFIELD": [0.0, 0.0, 0.0], "WPLASMA": [0.0, 0.0, 0.0, 0.0, 0.0, 0.0, 0.0, 0.0, 0.0], "NUCIND": false, "MAGPOS": [0.0, 0.0, 0.0], "LNICSALL": true, "ORBITALMAG": false, "LMAGBLOCH": false, "LCHIMAG": false, "LGAUGE": true, "MAGATOM": 0, "MAGDIPOL": [0.0, 0.0, 0.0], "AVECCONST": [0.0, 0.0, 0.0], "LFINITE_TEMPERATURE": false, "LADDER": false, "LRPAFORCE": false, "LFXC": false, "LHARTREE": true, "IBSE": 0, "KPOINT": [-1, 0, 0, 0], "LTCTC": false, "LTCTE": false, "LTETE": false, "LTRIPLET": false, "LFXCEPS": false, "LFXHEG": false, "NATURALO": 2, "LHOLEGF": false, "L2ORDER": false, "LDMP1": false, "LMP2LT": false, "LSMP2LT": false, "LGWLF": false, "ENCUTGW": -2.0, "ENCUTGWSOFT": -2.0, "ENCUTLF": -1.0, "LESF_SPLINES": false, "LMAXMP2": -1, "SCISSOR": 0.0, "NOMEGA": 0, "NOMEGAR": 0, "NBANDSGW": -1, "NBANDSO": -1, "NBANDSV": -1, "NELMGW": 1, "NELMHF": 1, "DIM": 3, "IESPILON": 4, "ANTIRES": 0, "OMEGAMIN": -30.0, "OMEGATL": -200.0, "OMEGAGRID": 0, "LSELFENERGY": false, "LSPECTRAL": false, "LSPECTRALGW": false, "LSINGLES": false, "LFERMIGW": false, "ODDONLYGW": false, "EVENONLYGW": false, "NKREDLFX": 1, "NKREDLFY": 1, "NKREDLFZ": 1, "MAXMEM": 2800, "TELESCOPE": 0, "NTAUPAR": -1, "NOMEGAPAR": -1, "DAMP_NEWTON": 0.80000001, "LAMBDA": 1.0, "OFIELD_KAPPA": 0.0, "OFIELD_K": [0.0, 0.0, 0.0], "OFIELD_Q6_NEAR": 0.0, "OFIELD_Q6_FAR": 0.0, "OFIELD_A": 0.0, "KPOINTS_OPT_MODE": 1, "LKPOINTS_OPT": false, "@module": "pymatgen.io.vasp.inputs", "@class": "Incar"}, "relaxed_structures": {"@module": "pymatgen.core.structure", "@class": "Structure", "charge": 0, "lattice": {"matrix": [[9.70156762, -0.01247552, -0.00193984], [4.84483613, 5.00554447, -0.01221077], [-0.01221066, -0.09100604, 42.3449114]], "a": 9.701575835245064, "b": 6.966208557788444, "c": 42.34501095375209, "alpha": 90.20040215561181, "beta": 90.02781984607185, "gamma": 46.00843050482153, "volume": 2058.887200226891}, "sites": [{"species": [{"element": "Li", "occu": 1}], "abc": [0.45543878, 0.73833705, 0.0111688], "xyz": [7.995455758478513, 3.6890806737553965, 0.4630427041812963], "label": "Li", "properties": {}}, {"species": [{"element": "Li", "occu": 1}], "abc": [0.9523414, 0.81011506, 0.02193265], "xyz": [13.163811389438537, 4.0411900008409845, 0.9169966024046379], "label": "Li", "properties": {}}, {"species": [{"element": "Li", "occu": 1}], "abc": [0.64182036, 0.90938996, 0.06574038], "xyz": [10.631706223471546, 4.53800207096204, 2.7714211860533204], "label": "Li", "properties": {}}, {"species": [{"element": "Li", "occu": 1}], "abc": [0.23072428, 0.59064685, 0.06320115], "xyz": [5.099202675192245, 2.9478789819858475, 2.6685872761042204], "label": "Li", "properties": {}}, {"species": [{"element": "Li", "occu": 1}], "abc": [0.11501919, 0.26122734, 0.03226678], "xyz": [2.381076105678547, 1.3032136710732298, 1.3629210344713107], "label": "Li", "properties": {}}, {"species": [{"element": "Li", "occu": 1}], "abc": [0.08941356, 0.27533547, 0.10757386], "xyz": [2.200093383582111, 1.3672985875911856, 4.5516700645587616], "label": "Li", "properties": {}}, {"species": [{"element": "Li", "occu": 1}], "abc": [0.93382248, 0.81055019, 0.11958057], "xyz": [12.985064622803586, 4.034712546049617, 5.051919733668348], "label": "Li", "properties": {}}, {"species": [{"element": "Li", "occu": 1}], "abc": [0.38268696, 0.67767529, 0.13613216], "xyz": [6.9942268856116385, 3.374970732693681, 5.755486965317265], "label": "Li", "properties": {}}, {"species": [{"element": "Li", "occu": 1}], "abc": [0.17145402, 0.08071013, 0.18196313], "xyz": [2.0521782327188633, 0.3852994229515856, 7.703894491716425], "label": "Li", "properties": {}}, {"species": [{"element": "Li", "occu": 1}], "abc": [0.64186521, 0.72704617, 0.20206985], "xyz": [9.747050884100021, 3.612864756561627, 8.546506985491073], "label": "Li", "properties": {}}, {"species": [{"element": "Li", "occu": 1}], "abc": [0.74419792, 0.19015657, 0.17898775], "xyz": [8.13897830567681, 0.9262639450267395, 7.575454832401959], "label": "Li", "properties": {}}, {"species": [{"element": "Li", "occu": 1}], "abc": [0.28358339, 0.51844993, 0.20003627], "xyz": [5.260565811573164, 2.5733818210407033, 8.463637350681473], "label": "Li", "properties": {}}, {"species": [{"element": "Li", "occu": 1}], "abc": [0.45236334, 0.69745797, 0.24586733], "xyz": [7.76470090165977, 3.463138004826816, 10.40183629364676], "label": "Li", "properties": {}}, {"species": [{"element": "Li", "occu": 1}], "abc": [0.85011366, 0.73745952, 0.25926564], "xyz": [11.817139879504424, 3.657186073012786, 10.967926521799052], "label": "Li", "properties": {}}, {"species": [{"element": "Li", "occu": 1}], "abc": [0.67428112, 0.68459769, 0.30133809], "xyz": [9.854667966633835, 3.390948587484029, 12.750467260072284], "label": "Li", "properties": {}}, {"species": [{"element": "Li", "occu": 1}], "abc": [0.81005632, 0.03154615, 0.32901663], "xyz": [8.007634581567482, 0.11785728227055889, 13.930223464042758], "label": "Li", "properties": {}}, {"species": [{"element": "Li", "occu": 1}], "abc": [0.24676879, 0.448212, 0.29822061], "xyz": [4.561916323716437, 2.2133266522501347, 12.62217360249112], "label": "Li", "properties": {}}, {"species": [{"element": "Li", "occu": 1}], "abc": [0.12153086, 0.14248796, 0.31913714], "xyz": [1.8654737977948355, 0.6826702522167085, 13.511858279618606], "label": "Li", "properties": {}}, {"species": [{"element": "Li", "occu": 1}], "abc": [0.92928728, 0.51460362, 0.36655759], "xyz": [11.504237686028755, 2.5309190075877526, 15.513762296465304], "label": "Li", "properties": {}}, {"species": [{"element": "Li", "occu": 1}], "abc": [0.32401711, 0.75246699, 0.37718996], "xyz": [6.784447424129353, 3.7281381341285393, 15.962258694471398], "label": "Li", "properties": {}}, {"species": [{"element": "Li", "occu": 1}], "abc": [0.16062342, 0.68940953, 0.42651447], "xyz": [4.89316714661773, 3.4100508068507227, 18.051987638026265], "label": "Li", "properties": {}}, {"species": [{"element": "Li", "occu": 1}], "abc": [0.46574874, 0.92720431, 0.43133661], "xyz": [9.005378931329258, 4.5960977119766975, 18.252685177418137], "label": "Li", "properties": {}}, {"species": [{"element": "Li", "occu": 1}], "abc": [0.73419399, 0.21673887, 0.41373957], "xyz": [8.16784491511616, 1.0380838004994213, 17.515694666962908], "label": "Li", "properties": {}}, {"species": [{"element": "Li", "occu": 1}], "abc": [0.57374594, 0.3424937, 0.47455947], "xyz": [7.219766201329894, 1.6640218889862515, 20.089883624059556], "label": "Li", "properties": {}}, {"species": [{"element": "Li", "occu": 1}], "abc": [0.2158835, 0.89308458, 0.47360706], "xyz": [6.4154737588388855, 4.42458021869271, 20.04352496426892], "label": "Li", "properties": {}}, {"species": [{"element": "Li", "occu": 1}], "abc": [0.85912479, 0.734872, 0.47236093], "xyz": [11.889423822015146, 3.624728749567682, 19.991441812067528], "label": "Li", "properties": {}}, {"species": [{"element": "Li", "occu": 1}], "abc": [0.07593849, 0.75924276, 0.51054297], "xyz": [4.408895084162553, 3.753013532605234, 21.609478583305894], "label": "Li", "properties": {}}, {"species": [{"element": "Li", "occu": 1}], "abc": [0.57711063, 0.6910941, 0.52098306], "xyz": [8.940753919064214, 3.4046898901001676, 22.05142322321293], "label": "Li", "properties": {}}, {"species": [{"element": "Li", "occu": 1}], "abc": [0.88233889, 0.59332803, 0.56531409], "xyz": [11.427744623630266, 2.907475206306418, 23.929218465840368], "label": "Li", "properties": {}}, {"species": [{"element": "Li", "occu": 1}], "abc": [0.29193895, 0.92078437, 0.56150022], "xyz": [7.286458559775742, 4.554285109625102, 23.764867265966075], "label": "Li", "properties": {}}, {"species": [{"element": "Li", "occu": 1}], "abc": [0.41770556, 0.23908607, 0.53182041], "xyz": [5.204237687498106, 1.1431459919693656, 22.51615843519719], "label": "Li", "properties": {}}, {"species": [{"element": "Li", "occu": 1}], "abc": [0.42906255, 0.23514301, 0.60710033], "xyz": [5.294395596884065, 1.1164162180248856, 25.70390609485155], "label": "Li", "properties": {}}, {"species": [{"element": "Li", "occu": 1}], "abc": [0.57936578, 0.70553761, 0.61894013], "xyz": [9.031412727898108, 3.4680447025084264, 26.19922593235775], "label": "Li", "properties": {}}, {"species": [{"element": "Li", "occu": 1}], "abc": [0.13690198, 0.83327209, 0.63566108], "xyz": [5.357468702711387, 4.11142358104239, 26.90657165125302], "label": "Li", "properties": {}}, {"species": [{"element": "Li", "occu": 1}], "abc": [0.34334921, 0.43552993, 0.68122343], "xyz": [5.432778530961188, 2.1137855259751306, 28.840361588619228], "label": "Li", "properties": {}}, {"species": [{"element": "Li", "occu": 1}], "abc": [0.8731024, 0.785739, 0.70085704], "xyz": [12.26868074171031, 3.8583768760435606, 29.66644110569761], "label": "Li", "properties": {}}, {"species": [{"element": "Li", "occu": 1}], "abc": [0.76983178, 0.32258177, 0.67760206], "xyz": [9.023156915500355, 1.5434274630018439, 28.687566872877706], "label": "Li", "properties": {}}, {"species": [{"element": "Li", "occu": 1}], "abc": [0.22256847, 0.00986676, 0.70159324], "xyz": [2.1984989806070416, -0.017237373907206796, 29.708351358681085], "label": "Li", "properties": {}}, {"species": [{"element": "Li", "occu": 1}], "abc": [0.06649559, 0.80408984, 0.74449075], "xyz": [4.53170424799332, 3.956324729958098, 31.515447299968667], "label": "Li", "properties": {}}, {"species": [{"element": "Li", "occu": 1}], "abc": [0.66968446, 0.76600634, 0.75801693], "xyz": [10.198908377587777, 3.7569400182452637, 32.08750713261083], "label": "Li", "properties": {}}, {"species": [{"element": "Li", "occu": 1}], "abc": [0.86485587, 0.78820285, 0.79989722], "xyz": [12.199404076819535, 3.861799411953229, 33.86027466428075], "label": "Li", "properties": {}}, {"species": [{"element": "Li", "occu": 1}], "abc": [0.72476485, 0.45021012, 0.82870137], "xyz": [9.20243046567119, 2.1690881280962895, 35.084382749635004], "label": "Li", "properties": {}}, {"species": [{"element": "Li", "occu": 1}], "abc": [0.30262612, 0.99852008, 0.80209478], "xyz": [7.763819820226369, 4.921365776782904, 33.95185264821261], "label": "Li", "properties": {}}, {"species": [{"element": "Li", "occu": 1}], "abc": [0.40924471, 0.33814238, 0.8177509], "xyz": [5.598574368695886, 1.6130609086017034, 34.62266655968258], "label": "Li", "properties": {}}, {"species": [{"element": "Li", "occu": 1}], "abc": [0.59989981, 0.98607545, 0.86662108], "xyz": [10.586760523649449, 4.849492701001287, 36.68378839980229], "label": "Li", "properties": {}}, {"species": [{"element": "Li", "occu": 1}], "abc": [0.21060028, 0.73369504, 0.87758239], "xyz": [5.587069235218452, 3.5900505040456476, 37.15178103851951], "label": "Li", "properties": {}}, {"species": [{"element": "Li", "occu": 1}], "abc": [0.36858688, 0.81091983, 0.92687209], "xyz": [7.493326511127805, 3.970145999179239, 39.23769957507696], "label": "Li", "properties": {}}, {"species": [{"element": "Li", "occu": 1}], "abc": [0.06456954, 0.57105445, 0.9317344], "xyz": [3.3817138980908688, 2.772839447602955, 39.44711234720926], "label": "Li", "properties": {}}, {"species": [{"element": "Li", "occu": 1}], "abc": [0.79632036, 0.28181038, 0.91395894], "xyz": [9.079720888685472, 1.3175040947680141, 38.696524481716985], "label": "Li", "properties": {}}, {"species": [{"element": "Li", "occu": 1}], "abc": [0.95759225, 0.1590212, 0.97507168], "xyz": [10.048671352198793, 0.6953038146930968, 41.28552455120059], "label": "Li", "properties": {}}, {"species": [{"element": "Li", "occu": 1}], "abc": [0.31180643, 0.6100096, 0.97423596], "xyz": [5.968511650655311, 2.960878875828121, 41.24588186738538], "label": "Li", "properties": {}}, {"species": [{"element": "Li", "occu": 1}], "abc": [0.67333627, 0.76088563, 0.97286272], "xyz": [10.206904249524793, 3.711710253835027, 41.18518851870878], "label": "Li", "properties": {}}, {"species": [{"element": "P", "occu": 1}], "abc": [0.4632535, 0.11468248, 0.12937368], "xyz": [5.048323240014243, 0.5564951389685384, 5.476018018036202], "label": "P", "properties": {}}, {"species": [{"element": "P", "occu": 1}], "abc": [0.95678631, 0.09667123, 0.25109631], "xyz": [9.747617300522158, 0.4491044531567545, 10.629614557306196], "label": "P", "properties": {}}, {"species": [{"element": "P", "occu": 1}], "abc": [0.4452378, 0.13260279, 0.3703002], "xyz": [4.957421801770708, 0.6244950342992073, 15.677846288138282], "label": "P", "properties": {}}, {"species": [{"element": "P", "occu": 1}], "abc": [0.05601857, 0.39189711, 0.6288385], "xyz": [2.4344666894828775, 1.9037314492945354, 26.623216534872196], "label": "P", "properties": {}}, {"species": [{"element": "P", "occu": 1}], "abc": [0.5609322, 0.40235437, 0.75049164], "xyz": [7.38209865912587, 1.9387054986445844, 31.773500826851283], "label": "P", "properties": {}}, {"species": [{"element": "P", "occu": 1}], "abc": [0.08352631, 0.36348474, 0.87065303], "xyz": [2.5607288974424387, 1.7391623116111552, 36.8631249592557], "label": "P", "properties": {}}, {"species": [{"element": "S", "occu": 1}], "abc": [0.49725393, 0.31675742, 0.10014971], "xyz": [6.3575575250094225, 1.5702256221494255, 4.23599815162071], "label": "S", "properties": {}}, {"species": [{"element": "S", "occu": 1}], "abc": [0.45301995, 0.88378883, 0.10140754], "xyz": [8.67557748001607, 4.408963932566105, 4.282422768240449], "label": "S", "properties": {}}, {"species": [{"element": "S", "occu": 1}], "abc": [0.15722458, 0.88412862, 0.02182509], "xyz": [5.808516677385681, 4.4215974512039065, 0.9130806205885214], "label": "S", "properties": {}}, {"species": [{"element": "S", "occu": 1}], "abc": [0.97759728, 0.60999162, 0.0697487], "xyz": [12.438683878960163, 3.034796592836608, 2.944157672083797], "label": "S", "properties": {}}, {"species": [{"element": "S", "occu": 1}], "abc": [0.21083812, 0.36965382, 0.15499992], "xyz": [3.834479809459044, 1.8335823904130364, 6.558535129412747], "label": "S", "properties": {}}, {"species": [{"element": "S", "occu": 1}], "abc": [0.9633097, 0.34324213, 0.22602688], "xyz": [11.005806128931532, 1.685526144981622, 9.565028290226245], "label": "S", "properties": {}}, {"species": [{"element": "S", "occu": 1}], "abc": [0.95753581, 0.86647198, 0.22009097], "xyz": [13.48482570761937, 4.305188663131121, 9.307294868265164], "label": "S", "properties": {}}, {"species": [{"element": "S", "occu": 1}], "abc": [0.69845939, 0.89477805, 0.15848154], "xyz": [11.109268862678684, 4.4557148985972495, 6.69860594140286], "label": "S", "properties": {}}, {"species": [{"element": "S", "occu": 1}], "abc": [0.45808743, 0.62938844, 0.19030891], "xyz": [7.491126234538374, 3.127397686153397, 8.050039998778864], "label": "S", "properties": {}}, {"species": [{"element": "S", "occu": 1}], "abc": [0.71803435, 0.31216464, 0.27925696], "xyz": [8.475035414596997, 1.5281820655153904, 11.819906586658668], "label": "S", "properties": {}}, {"species": [{"element": "S", "occu": 1}], "abc": [0.44971281, 0.36593016, 0.34212309], "xyz": [6.131613347289754, 1.7949340200253405, 14.481831274027053], "label": "S", "properties": {}}, {"species": [{"element": "S", "occu": 1}], "abc": [0.44302763, 0.88910497, 0.34289378], "xyz": [8.601443432628212, 4.413722060715967, 14.508090674698785], "label": "S", "properties": {}}, {"species": [{"element": "S", "occu": 1}], "abc": [0.19624116, 0.83667606, 0.27895821], "xyz": [5.9539990243047685, 4.160184132780398, 11.801863551367614], "label": "S", "properties": {}}, {"species": [{"element": "S", "occu": 1}], "abc": [0.95009579, 0.59640348, 0.31249118], "xyz": [12.103079956572072, 2.9450326173459676, 13.223285750842697], "label": "S", "properties": {}}, {"species": [{"element": "S", "occu": 1}], "abc": [0.20982702, 0.34082263, 0.39975906], "xyz": [3.6819994928151347, 1.6670046406580836, 16.923193239455085], "label": "S", "properties": {}}, {"species": [{"element": "S", "occu": 1}], "abc": [0.91868788, 0.0023343, 0.46404961], "xyz": [8.918355538461864, -0.042007983934021, 19.648329009557003], "label": "S", "properties": {}}, {"species": [{"element": "S", "occu": 1}], "abc": [0.68646184, 0.90496341, 0.39849011], "xyz": [11.039289557159051, 4.485005617173422, 16.861646475532623], "label": "S", "properties": {}}, {"species": [{"element": "S", "occu": 1}], "abc": [0.42608628, 0.63407696, 0.43021851], "xyz": [7.200450570431503, 3.1294322898447455, 18.20899558145976], "label": "S", "properties": {}}, {"species": [{"element": "S", "occu": 1}], "abc": [0.02660691, 0.18577235, 0.59915565], "xyz": [1.1508492438300308, 0.8750330411334353, 25.36887287747291], "label": "S", "properties": {}}, {"species": [{"element": "S", "occu": 1}], "abc": [0.06768276, 0.62194276, 0.60126972], "xyz": [3.662497727168935, 3.0575985891593938, 25.452987327182125], "label": "S", "properties": {}}, {"species": [{"element": "S", "occu": 1}], "abc": [0.3725294, 0.61680272, 0.52096218], "xyz": [6.596065975423463, 3.0353752412051036, 22.051843071270262], "label": "S", "properties": {}}, {"species": [{"element": "S", "occu": 1}], "abc": [0.54635043, 0.89666485, 0.56914967], "xyz": [9.637700209532627, 4.4296837180104, 24.088583548820676], "label": "S", "properties": {}}, {"species": [{"element": "S", "occu": 1}], "abc": [0.3059906, 0.13977338, 0.65484876], "xyz": [3.6377714828608103, 0.6362292850155862, 27.72721240919906], "label": "S", "properties": {}}, {"species": [{"element": "S", "occu": 1}], "abc": [0.55070528, 0.16087902, 0.72492099], "xyz": [6.113285237530273, 0.7324445655524943, 30.693682356708884], "label": "S", "properties": {}}, {"species": [{"element": "S", "occu": 1}], "abc": [0.55616504, 0.63766102, 0.72008376], "xyz": [8.476243193863775, 3.1193701728498286, 30.483017814534485], "label": "S", "properties": {}}, {"species": [{"element": "S", "occu": 1}], "abc": [0.81800451, 0.6141619, 0.65753042], "xyz": [10.903410949621136, 3.0041704309013615, 27.833981190132448], "label": "S", "properties": {}}, {"species": [{"element": "S", "occu": 1}], "abc": [0.05645443, 0.88597079, 0.68963581], "xyz": [4.831658855210465, 4.3713008659851855, 29.191639374612333], "label": "S", "properties": {}}, {"species": [{"element": "S", "occu": 1}], "abc": [0.80057845, 0.18298194, 0.77840659], "xyz": [8.643878623627032, 0.8350969041465243, 32.95777074224219], "label": "S", "properties": {}}, {"species": [{"element": "S", "occu": 1}], "abc": [0.07878862, 0.12502804, 0.843332], "xyz": [1.3598158497524497, 0.5481021794870764, 35.70913929482819], "label": "S", "properties": {}}, {"species": [{"element": "S", "occu": 1}], "abc": [0.0887917, 0.59990382, 0.84255873], "xyz": [3.7575661851237085, 2.9250595926189624, 35.67057724188706], "label": "S", "properties": {}}, {"species": [{"element": "S", "occu": 1}], "abc": [0.32171416, 0.65719403, 0.77892371], "xyz": [6.295617885927054, 3.2147136288369422, 32.97480656816746], "label": "S", "properties": {}}, {"species": [{"element": "S", "occu": 1}], "abc": [0.58734408, 0.88340576, 0.81263899], "xyz": [9.968191593415167, 4.340644337487726, 34.399199613643304], "label": "S", "properties": {}}, {"species": [{"element": "S", "occu": 1}], "abc": [0.31919614, 0.15767919, 0.89984217], "xyz": [3.8496451061225896, 0.7033969871933797, 38.10119238887064], "label": "S", "properties": {}}, {"species": [{"element": "S", "occu": 1}], "abc": [0.61088003, 0.49682433, 0.9643531], "xyz": [8.321750995175625, 2.391493274768365, 40.82819496067391], "label": "S", "properties": {}}, {"species": [{"element": "S", "occu": 1}], "abc": [0.8418605, 0.5966436, 0.89888597], "xyz": [11.047031046411838, 2.8942193724946734, 38.054328205909165], "label": "S", "properties": {}}, {"species": [{"element": "S", "occu": 1}], "abc": [0.10422861, 0.86460803, 0.93061002], "xyz": [5.1887017673389195, 4.241842504470947, 39.395839128230925], "label": "S", "properties": {}}, {"species": [{"element": "Cl", "occu": 1}], "abc": [0.480633, 0.05199117, 0.01635134], "xyz": [4.914582588107148, 0.25275989617607636, 0.690828840233655], "label": "Cl", "properties": {}}, {"species": [{"element": "Cl", "occu": 1}], "abc": [0.01413525, 0.05880233, 0.13633453], "xyz": [0.42035700202069803, 0.2817540674699739, 5.772328151760188], "label": "Cl", "properties": {}}, {"species": [{"element": "Cl", "occu": 1}], "abc": [0.50866896, 0.99046561, 0.25327437], "xyz": [9.730437237266779, 4.9284242496296224, 10.711799673388834], "label": "Cl", "properties": {}}, {"species": [{"element": "Cl", "occu": 1}], "abc": [0.96650479, 0.11206121, 0.3674789], "xyz": [9.915042614313345, 0.5154269207067118, 15.557618243556396], "label": "Cl", "properties": {}}, {"species": [{"element": "Cl", "occu": 1}], "abc": [0.54074463, 0.97457724, 0.48273877], "xyz": [9.961843057935274, 4.827611500011235, 20.428581148407044], "label": "Cl", "properties": {}}, {"species": [{"element": "Cl", "occu": 1}], "abc": [0.04813029, 0.44786375, 0.51589431], "xyz": [2.6304663303071525, 2.194251968518829, 21.839936722409792], "label": "Cl", "properties": {}}, {"species": [{"element": "Cl", "occu": 1}], "abc": [0.5050907, 0.4500507, 0.63592188], "xyz": [7.072828446111685, 2.1885747914268103, 26.921580405191907], "label": "Cl", "properties": {}}, {"species": [{"element": "Cl", "occu": 1}], "abc": [0.00908832, 0.51216927, 0.74966563], "xyz": [2.5603932228823076, 2.4953485753241056, 31.738253070931474], "label": "Cl", "properties": {}}, {"species": [{"element": "Cl", "occu": 1}], "abc": [0.56495863, 0.38084222, 0.86754765], "xyz": [7.315509169345021, 1.82032243943798, 36.73048206842468], "label": "Cl", "properties": {}}, {"species": [{"element": "Cl", "occu": 1}], "abc": [0.9912736, 0.52278515, 0.98325753], "xyz": [12.137710019877032, 2.5149752888528676, 41.62764646982656], "label": "Cl", "properties": {}}]}, "formula": "(Li3PS4)6.0(Li2S)12.0(LiCl)10.0", "bandgap": 2.2758}