{"miller": "001_0.16", "final_energy": -421.04389359, "sigma": 0.011038545103053342, "incar_parameters": {"SYSTEM": "unknown system", "LCOMPAT": false, "PREC": "normal", "ENMAX": 520.0, "ENAUG": 628.945, "EDIFF": 1e-05, "IALGO": 38, "IWAVPR": 11, "NBANDS": 278, "NBANDSLOW": -1, "NBANDSHIGH": -1, "NELECT": 456.0, "TURBO": 0, "IRESTART": 0, "NREBOOT": 0, "NMIN": 0, "EREF": 0.0, "ISMEAR": 0, "SIGMA": 0.05, "KSPACING": 0.5, "KGAMMA": true, "KBLOWUP": true, "LREAL": true, "ROPT": [-0.0005, -0.0005, -0.0005], "LMAXPAW": -100, "LMAXMIX": 2, "NLSPLINE": false, "ISTART": 0, "ICHARG": 2, "INIWAV": 1, "ISPIN": 1, "LNONCOLLINEAR": false, "MAGMOM": [0.6, 0.6, 0.6, 0.6, 0.6, 0.6, 0.6, 0.6, 0.6, 0.6, 0.6, 0.6, 0.6, 0.6, 0.6, 0.6, 0.6, 0.6, 0.6, 0.6, 0.6, 0.6, 0.6, 0.6, 0.6, 0.6, 0.6, 0.6, 0.6, 0.6, 0.6, 0.6, 0.6, 0.6, 0.6, 0.6, 0.6, 0.6, 0.6, 0.6, 0.6, 0.6, 0.6, 0.6, 0.6, 0.6, 0.6, 0.6, 0.6, 0.6, 0.6, 0.6, 0.6, 0.6, 0.6, 0.6, 0.6, 0.6, 0.6, 0.6, 0.6, 0.6, 0.6, 0.6, 0.6, 0.6, 0.6, 0.6, 0.6, 0.6, 0.6, 0.6, 0.6, 0.6, 0.6, 0.6, 0.6, 0.6, 0.6, 0.6, 0.6, 0.6, 0.6, 0.6, 0.6, 0.6, 0.6, 0.6, 0.6, 0.6, 0.6, 0.6, 0.6, 0.6, 0.6, 0.6], "NUPDOWN": -1.0, "LSORBIT": false, "SAXIS": [0.0, 0.0, 1.0], "LSPIRAL": false, "QSPIRAL": [0.0, 0.0, 0.0], "LZEROZ": false, "LASPH": false, "LMETAGGA": false, "NELM": 100, "NELMDL": -5, "NELMIN": 6, "ENINI": 520.0, "LDIAG": true, "LSUBROT": false, "WEIMIN": 0.001, "EBREAK": 1e-08, "DEPER": 0.3, "NRMM": 4, "TIME": 0.4, "AMIX": 0.4, "BMIX": 1.0, "AMIN": 0.1, "AMIX_MAG": 1.6, "BMIX_MAG": 1.0, "IMIX": 4, "MIXFIRST": false, "MAXMIX": -45, "WC": 100.0, "INIMIX": 1, "MIXPRE": 1, "MREMOVE": 5, "LDIPOL": false, "LMONO": false, "IDIPOL": 0, "EPSILON": 1.0, "DIPOL": [-100.0, -100.0, -100.0], "EFIELD": 0.0, "NGX": 36, "NGY": 48, "NGZ": 224, "NGXF": 72, "NGYF": 96, "NGZF": 448, "ADDGRID": false, "NSW": 150, "IBRION": 2, "MDALGO": 0, "ISIF": 3, "PSTRESS": 0.0, "EDIFFG": -0.01, "NFREE": 1, "POTIM": 0.5, "SMASS": -3.0, "SCALEE": 1.0, "TEBEG": 0.0001, "TEEND": 0.0001, "NBLOCK": 1, "KBLOCK": 150, "NPACO": 256, "APACO": 10.0, "ISYM": 0, "SYMPREC": 1e-05, "LORBIT": 11, "RWIGS": [-1.0, -1.0, -1.0], "NEDOS": 301, "EMIN": 10.0, "EMAX": -10.0, "EFERMI": 0.0, "NWRITE": 2, "LWAVE": false, "LDOWNSAMPLE": false, "LCHARG": false, "LPARD": false, "LVTOT": false, "LVHAR": false, "LELF": false, "LOPTICS": false, "STM": [0.0, 0.0, 0.0, 0.0, 0.0, 0.0, 0.0], "NPAR": 2, "NSIM": 4, "NBLK": -1, "LPLANE": true, "LSCALAPACK": true, "LSCAAWARE": false, "LSCALU": false, "LASYNC": false, "LORBITALREAL": false, "IDIOT": 3, "PHON_NSTRUCT": -1, "LMUSIC": false, "POMASS": [7.01, 30.974, 32.066], "DARWINR": [0.0, 0.0, 0.0], "DARWINV": [1.0, 1.0, 1.0], "LCORR": true, "GGA_COMPAT": true, "LBERRY": false, "ICORELEVEL": 0, "LDAU": false, "I_CONSTRAINED_M": 0, "GGA": "--", "VOSKOWN": 0, "LHFCALC": false, "PRECFOCK": "", "LSYMGRAD": false, "LHFONE": false, "LRHFCALC": false, "LTHOMAS": false, "LMODELHF": false, "LFOCKACE": false, "ENCUT4O": -1.0, "EXXOEP": 0, "FOURORBIT": 0, "AEXX": 0.0, "HFALPHA": 0.0, "MCALPHA": 0.0, "ALDAX": 1.0, "AGGAX": 1.0, "ALDAC": 1.0, "AGGAC": 1.0, "NKREDX": 1, "NKREDY": 1, "NKREDZ": 1, "SHIFTRED": false, "ODDONLY": false, "EVENONLY": false, "LMAXFOCK": 0, "NMAXFOCKAE": 0, "LFOCKAEDFT": false, "HFSCREEN": 0.0, "HFSCREENC": 0.0, "NBANDSGWLOW": 0, "LUSE_VDW": false, "Zab_VDW": -0.8491, "PARAM1": 0.1234, "PARAM2": 1.0, "PARAM3": 0.0, "MODEL_GW": 0, "MODEL_EPS0": 12.3862444, "MODEL_ALPHA": 1.0, "LEPSILON": false, "LRPA": false, "LNABLA": false, "LVEL": false, "CSHIFT": 0.1, "OMEGAMAX": -1.0, "DEG_THRESHOLD": 0.002, "RTIME": -0.1, "WPLASMAI": 0.0, "DFIELD": [0.0, 0.0, 0.0], "WPLASMA": [0.0, 0.0, 0.0, 0.0, 0.0, 0.0, 0.0, 0.0, 0.0], "NUCIND": false, "MAGPOS": [0.0, 0.0, 0.0], "LNICSALL": true, "ORBITALMAG": false, "LMAGBLOCH": false, "LCHIMAG": false, "LGAUGE": true, "MAGATOM": 0, "MAGDIPOL": [0.0, 0.0, 0.0], "AVECCONST": [0.0, 0.0, 0.0], "LFINITE_TEMPERATURE": false, "LADDER": false, "LRPAFORCE": false, "LFXC": false, "LHARTREE": true, "IBSE": 0, "KPOINT": [-1, 0, 0, 0], "LTCTC": false, "LTCTE": false, "LTETE": false, "LTRIPLET": false, "LFXCEPS": false, "LFXHEG": false, "NATURALO": 2, "LHOLEGF": false, "L2ORDER": false, "LDMP1": false, "LMP2LT": false, "LSMP2LT": false, "LGWLF": false, "ENCUTGW": -2.0, "ENCUTGWSOFT": -2.0, "ENCUTLF": -1.0, "LESF_SPLINES": false, "LMAXMP2": -1, "SCISSOR": 0.0, "NOMEGA": 0, "NOMEGAR": 0, "NBANDSGW": -1, "NBANDSO": -1, "NBANDSV": -1, "NELMGW": 1, "NELMHF": 1, "DIM": 3, "IESPILON": 4, "ANTIRES": 0, "OMEGAMIN": -30.0, "OMEGATL": -200.0, "OMEGAGRID": 0, "LSELFENERGY": false, "LSPECTRAL": false, "LSPECTRALGW": false, "LSINGLES": false, "LFERMIGW": false, "ODDONLYGW": false, "EVENONLYGW": false, "NKREDLFX": 1, "NKREDLFY": 1, "NKREDLFZ": 1, "MAXMEM": 2800, "TELESCOPE": 0, "NTAUPAR": -1, "NOMEGAPAR": -1, "DAMP_NEWTON": 0.80000001, "LAMBDA": 1.0, "OFIELD_KAPPA": 0.0, "OFIELD_K": [0.0, 0.0, 0.0], "OFIELD_Q6_NEAR": 0.0, "OFIELD_Q6_FAR": 0.0, "OFIELD_A": 0.0, "KPOINTS_OPT_MODE": 1, "LKPOINTS_OPT": false, "@module": "pymatgen.io.vasp.inputs", "@class": "Incar"}, "relaxed_structures": {"@module": "pymatgen.core.structure", "@class": "Structure", "charge": 0, "lattice": {"matrix": [[6.259951, 0.0, 0.0], [0.0, 8.106791, 0.0], [0.0, 0.0, 39.05167957]], "a": 6.259951, "b": 8.106791, "c": 39.05167957, "alpha": 90.0, "beta": 90.0, "gamma": 90.0, "volume": 1981.7991033943094}, "sites": [{"species": [{"element": "Li", "occu": 1}], "abc": [0.11415239, 0.96768744, 0.19394351], "xyz": [0.71458836793289, 7.844839829405039, 7.573819807201091], "label": "Li", "properties": {}}, {"species": [{"element": "Li", "occu": 1}], "abc": [0.61192287, 0.03654232, 0.1387163], "xyz": [3.83060718197937, 0.29624095089512, 5.41710449873599], "label": "Li", "properties": {}}, {"species": [{"element": "Li", "occu": 1}], "abc": [0.37230843, 0.99840186, 0.02701475], "xyz": [2.3306325286869303, 8.093835213031259, 1.0549713606636575], "label": "Li", "properties": {}}, {"species": [{"element": "Li", "occu": 1}], "abc": [0.37129957, 0.50046827, 0.02701424], "xyz": [2.32431711452107, 4.05719166702157, 1.0549514443070767], "label": "Li", "properties": {}}, {"species": [{"element": "Li", "occu": 1}], "abc": [0.61160728, 0.46327215, 0.13868044], "xyz": [3.82863160404328, 3.7556504961706496, 5.41570410550661], "label": "Li", "properties": {}}, {"species": [{"element": "Li", "occu": 1}], "abc": [0.11408312, 0.53233206, 0.19395694], "xyz": [0.71415474112712, 4.31550475301946, 7.574344271257715], "label": "Li", "properties": {}}, {"species": [{"element": "Li", "occu": 1}], "abc": [0.50023457, 3.994e-05, 0.24999825], "xyz": [3.1314438967060703, 0.00032378523254, 9.762851552060752], "label": "Li", "properties": {}}, {"species": [{"element": "Li", "occu": 1}], "abc": [0.98192759, 0.97866891, 0.08489482], "xyz": [6.14681859894809, 7.93386431156781, 3.315285307792827], "label": "Li", "properties": {}}, {"species": [{"element": "Li", "occu": 1}], "abc": [0.98096173, 0.5217662, 0.08488736], "xyz": [6.1407723626752295, 4.2298495342642, 3.3149939822632346], "label": "Li", "properties": {}}, {"species": [{"element": "Li", "occu": 1}], "abc": [0.50024261, 0.4999856, 0.24999136], "xyz": [3.1314942267121104, 4.053278762209599, 9.762582485988514], "label": "Li", "properties": {}}, {"species": [{"element": "Li", "occu": 1}], "abc": [0.89007222, 0.03360913, 0.30604424], "xyz": [5.57180848366122, 0.27246219260182997, 11.951541594724176], "label": "Li", "properties": {}}, {"species": [{"element": "Li", "occu": 1}], "abc": [0.62725545, 0.0015345, 0.47294206], "xyz": [3.9265883814829503, 0.012439870789499999, 18.469181782295713], "label": "Li", "properties": {}}, {"species": [{"element": "Li", "occu": 1}], "abc": [0.38833885, 0.96295361, 0.36132082], "xyz": [2.4309821723963503, 7.80646365896551, 14.110184884609646], "label": "Li", "properties": {}}, {"species": [{"element": "Li", "occu": 1}], "abc": [0.38831262, 0.53708047, 0.36132241], "xyz": [2.43081797388162, 4.35399912047177, 14.110246976780163], "label": "Li", "properties": {}}, {"species": [{"element": "Li", "occu": 1}], "abc": [0.62725195, 0.49880491, 0.4729754], "xyz": [3.92656647165445, 4.043707155143809, 18.470483765292578], "label": "Li", "properties": {}}, {"species": [{"element": "Li", "occu": 1}], "abc": [0.89013018, 0.46647984, 0.30604074], "xyz": [5.57217131042118, 3.7816545685934395, 11.95140491384568], "label": "Li", "properties": {}}, {"species": [{"element": "Li", "occu": 1}], "abc": [0.01756117, 0.0213259, 0.4151298], "xyz": [0.10993206370267, 0.1728846141869, 16.211515929558185], "label": "Li", "properties": {}}, {"species": [{"element": "Li", "occu": 1}], "abc": [0.01787651, 0.47865337, 0.4150859], "xyz": [0.11190607665101002, 3.88034283203567, 16.209801560825063], "label": "Li", "properties": {}}, {"species": [{"element": "Li", "occu": 1}], "abc": [0.3901021, 0.03393895, 0.69392598], "xyz": [2.4420200309971, 0.27513597440945, 27.09897501625823], "label": "Li", "properties": {}}, {"species": [{"element": "Li", "occu": 1}], "abc": [0.88835308, 0.96307813, 0.63865674], "xyz": [5.56104675149908, 7.807473116580829, 24.940618365700796], "label": "Li", "properties": {}}, {"species": [{"element": "Li", "occu": 1}], "abc": [0.12714479, 0.0013241, 0.52704784], "xyz": [0.79592015530529, 0.010734201963099998, 20.58210336574063], "label": "Li", "properties": {}}, {"species": [{"element": "Li", "occu": 1}], "abc": [0.12727219, 0.49880704, 0.52701753], "xyz": [0.79671767306269, 4.04372442260864, 20.58091970933286], "label": "Li", "properties": {}}, {"species": [{"element": "Li", "occu": 1}], "abc": [0.88817586, 0.53676813, 0.63871447], "xyz": [5.55993736298286, 4.35146704537083, 24.94287281916238], "label": "Li", "properties": {}}, {"species": [{"element": "Li", "occu": 1}], "abc": [0.3851497, 0.46847591, 0.69408971], "xyz": [2.4110182496647, 3.79783629090481, 27.105368947754222], "label": "Li", "properties": {}}, {"species": [{"element": "Li", "occu": 1}], "abc": [0.00028121, 0.99990734, 0.74997831], "xyz": [0.00176036082071, 8.10603982474594, 29.287912646570128], "label": "Li", "properties": {}}, {"species": [{"element": "Li", "occu": 1}], "abc": [0.51773598, 0.02129431, 0.5849121], "xyz": [3.24100186573698, 0.17262852065921, 22.841799905815797], "label": "Li", "properties": {}}, {"species": [{"element": "Li", "occu": 1}], "abc": [0.51785872, 0.47873349, 0.58492361], "xyz": [3.24177021212272, 3.8809923481305897, 22.84224939064765], "label": "Li", "properties": {}}, {"species": [{"element": "Li", "occu": 1}], "abc": [0.99956671, 0.49991479, 0.7500121], "xyz": [6.25723862583121, 4.052704720338889, 29.289232202822795], "label": "Li", "properties": {}}, {"species": [{"element": "Li", "occu": 1}], "abc": [0.61470814, 0.96839734, 0.80597484], "xyz": [3.84804283570114, 7.85059484033594, 31.474671193162017], "label": "Li", "properties": {}}, {"species": [{"element": "Li", "occu": 1}], "abc": [0.87238766, 0.99847022, 0.97292867], "xyz": [5.46110400460466, 8.094389393264018, 37.994498665306274], "label": "Li", "properties": {}}, {"species": [{"element": "Li", "occu": 1}], "abc": [0.11166622, 0.03668025, 0.86131418], "xyz": [0.69902506555522, 0.29735912057774994, 33.6357653664573], "label": "Li", "properties": {}}, {"species": [{"element": "Li", "occu": 1}], "abc": [0.11145837, 0.46323566, 0.86132714], "xyz": [0.69772393473987, 3.7553546793670596, 33.63627147622453], "label": "Li", "properties": {}}, {"species": [{"element": "Li", "occu": 1}], "abc": [0.87146705, 0.50051751, 0.97297777], "xyz": [5.45534103111455, 4.0575908454104095, 37.99641610277315], "label": "Li", "properties": {}}, {"species": [{"element": "Li", "occu": 1}], "abc": [0.60951286, 0.53389179, 0.80606225], "xyz": [3.8155206374698603, 4.328149158145889, 31.47808470047323], "label": "Li", "properties": {}}, {"species": [{"element": "Li", "occu": 1}], "abc": [0.4819742, 0.97863643, 0.91507754], "xyz": [3.0171348752642, 7.933601002996129, 35.73531487378386], "label": "Li", "properties": {}}, {"species": [{"element": "Li", "occu": 1}], "abc": [0.48193026, 0.52137569, 0.91507137], "xyz": [3.01685981301726, 4.226683751310789, 35.73507392492091], "label": "Li", "properties": {}}, {"species": [{"element": "P", "occu": 1}], "abc": [0.84847685, 0.24986611, 0.22002427], "xyz": [5.31142350563435, 2.0256123317530097, 8.592317289663162], "label": "P", "properties": {}}, {"species": [{"element": "P", "occu": 1}], "abc": [0.1532715, 0.75012969, 0.28007204], "xyz": [0.9594720796965001, 6.081144619724789, 10.937283562596223], "label": "P", "properties": {}}, {"species": [{"element": "P", "occu": 1}], "abc": [0.35304248, 0.74987459, 0.11205995], "xyz": [2.21002862571848, 6.07907657734069, 4.376129260030221], "label": "P", "properties": {}}, {"species": [{"element": "P", "occu": 1}], "abc": [0.65622652, 0.24955849, 0.05572727], "xyz": [4.1079458601005205, 2.02311852070559, 2.1762434913508737], "label": "P", "properties": {}}, {"species": [{"element": "P", "occu": 1}], "abc": [0.34237391, 0.75008386, 0.44430752], "xyz": [2.14324390027841, 6.08077308549326, 17.350954901581364], "label": "P", "properties": {}}, {"species": [{"element": "P", "occu": 1}], "abc": [0.64693722, 0.25007673, 0.38785996], "xyz": [4.04979529727622, 2.02731978407343, 15.146582875953017], "label": "P", "properties": {}}, {"species": [{"element": "P", "occu": 1}], "abc": [0.65209795, 0.74979385, 0.72000857], "xyz": [4.08210121420045, 6.0784220350353495, 28.11754396329391], "label": "P", "properties": {}}, {"species": [{"element": "P", "occu": 1}], "abc": [0.34752062, 0.2498188, 0.78000094], "xyz": [2.1754620526896202, 2.0252287994708, 30.46034677317879], "label": "P", "properties": {}}, {"species": [{"element": "P", "occu": 1}], "abc": [0.14678819, 0.25004928, 0.612111], "xyz": [0.9188868767786901, 2.0270972526604796, 23.90396263327227], "label": "P", "properties": {}}, {"species": [{"element": "P", "occu": 1}], "abc": [0.84238162, 0.75004391, 0.55570997], "xyz": [5.2732676645006205, 6.0804492191928095, 21.701407682294313], "label": "P", "properties": {}}, {"species": [{"element": "P", "occu": 1}], "abc": [0.15691247, 0.24987102, 0.94422801], "xyz": [0.98226437348897, 2.02565213609682, 36.87368968753875], "label": "P", "properties": {}}, {"species": [{"element": "P", "occu": 1}], "abc": [0.85299358, 0.74999303, 0.88788264], "xyz": [5.33969801411458, 6.080036745666729, 34.67330835304566], "label": "P", "properties": {}}, {"species": [{"element": "S", "occu": 1}], "abc": [0.73182621, 0.46353442, 0.1985902], "xyz": [4.58119621511571, 3.7577766642462196, 7.755280856142213], "label": "S", "properties": {}}, {"species": [{"element": "S", "occu": 1}], "abc": [0.27083849, 0.5365146, 0.30139959], "xyz": [1.69543567631399, 4.349411730648599, 11.770160211209376], "label": "S", "properties": {}}, {"species": [{"element": "S", "occu": 1}], "abc": [0.23501363, 0.5378797, 0.13377289], "xyz": [1.47117380813213, 4.3604783110427, 5.224056035432858], "label": "S", "properties": {}}, {"species": [{"element": "S", "occu": 1}], "abc": [0.76010915, 0.46712829, 0.03375637], "xyz": [4.75824603365165, 3.78691141721739, 1.3182429446863608], "label": "S", "properties": {}}, {"species": [{"element": "S", "occu": 1}], "abc": [0.76077308, 0.03226313, 0.03373458], "xyz": [4.76240220291908, 0.26155045191583, 1.3173920085885304], "label": "S", "properties": {}}, {"species": [{"element": "S", "occu": 1}], "abc": [0.23529249, 0.96200487, 0.13375966], "xyz": [1.47291945806799, 7.79877242207217, 5.223539381712146], "label": "S", "properties": {}}, {"species": [{"element": "S", "occu": 1}], "abc": [0.27068834, 0.96382952, 0.3013989], "xyz": [1.6944957446713402, 7.81356447827032, 11.770133265550474], "label": "S", "properties": {}}, {"species": [{"element": "S", "occu": 1}], "abc": [0.73226891, 0.03582415, 0.19868065], "xyz": [4.58396749542341, 0.29041889680265, 7.758813080559319], "label": "S", "properties": {}}, {"species": [{"element": "S", "occu": 1}], "abc": [0.27364118, 0.75007683, 0.23005786], "xyz": [1.71298037838218, 6.08071609475253, 8.98414583127992], "label": "S", "properties": {}}, {"species": [{"element": "S", "occu": 1}], "abc": [0.72783996, 0.25008739, 0.26998833], "xyz": [4.55624248544196, 2.02740620246549, 10.543497750799418], "label": "S", "properties": {}}, {"species": [{"element": "S", "occu": 1}], "abc": [0.79466033, 0.2497099, 0.10436208], "xyz": [4.97453472744383, 2.0243459699309, 4.075514507418705], "label": "S", "properties": {}}, {"species": [{"element": "S", "occu": 1}], "abc": [0.2361926, 0.74964593, 0.06172541], "xyz": [1.4785541025626001, 6.0772228785106295, 2.4104809326468737], "label": "S", "properties": {}}, {"species": [{"element": "S", "occu": 1}], "abc": [0.17399631, 0.24997972, 0.21627657], "xyz": [1.08920837478081, 2.0265333442785196, 8.445963310138675], "label": "S", "properties": {}}, {"species": [{"element": "S", "occu": 1}], "abc": [0.82819395, 0.75006887, 0.28405437], "xyz": [5.184453545496449, 6.080651564696169, 11.09280023769822], "label": "S", "properties": {}}, {"species": [{"element": "S", "occu": 1}], "abc": [0.67962763, 0.7498599, 0.11721691], "xyz": [4.25443566204613, 6.0789574885809, 4.577517209505528], "label": "S", "properties": {}}, {"species": [{"element": "S", "occu": 1}], "abc": [0.33158302, 0.24936424, 0.05752297], "xyz": [2.07569345763202, 2.0215437765538398, 2.2463685923547225], "label": "S", "properties": {}}, {"species": [{"element": "S", "occu": 1}], "abc": [0.23844615, 0.53254065, 0.46626465], "xyz": [1.49266121513865, 4.317195748554149, 18.2084177066182], "label": "S", "properties": {}}, {"species": [{"element": "S", "occu": 1}], "abc": [0.76496617, 0.46200642, 0.36611316], "xyz": [4.78865074085767, 3.7453894875982194, 14.29733381068014], "label": "S", "properties": {}}, {"species": [{"element": "S", "occu": 1}], "abc": [0.76493484, 0.03810984, 0.36612718], "xyz": [4.78845461659284, 0.30894850792344, 14.29788131522771], "label": "S", "properties": {}}, {"species": [{"element": "S", "occu": 1}], "abc": [0.23835941, 0.96758776, 0.46627089], "xyz": [1.49211822698891, 7.844031744478159, 18.208661389098715], "label": "S", "properties": {}}, {"species": [{"element": "S", "occu": 1}], "abc": [0.76335401, 0.25015842, 0.43822267], "xyz": [4.77855869825351, 2.0279820278302196, 17.11333128914985], "label": "S", "properties": {}}, {"species": [{"element": "S", "occu": 1}], "abc": [0.20402959, 0.75004968, 0.39567558], "xyz": [1.2772152359500901, 6.08049599537688, 15.4517959638339], "label": "S", "properties": {}}, {"species": [{"element": "S", "occu": 1}], "abc": [0.66689186, 0.7501102, 0.44243289], "xyz": [4.17471036589886, 6.0809866183681995, 17.277747451509057], "label": "S", "properties": {}}, {"species": [{"element": "S", "occu": 1}], "abc": [0.32039212, 0.25006629, 0.38274795], "xyz": [2.00563897198612, 2.02723514917539, 14.94695029947438], "label": "S", "properties": {}}, {"species": [{"element": "S", "occu": 1}], "abc": [0.76754084, 0.53550604, 0.69868897], "xyz": [4.80476804889884, 4.34123554551764, 27.28497777553334], "label": "S", "properties": {}}, {"species": [{"element": "S", "occu": 1}], "abc": [0.22914449, 0.46308649, 0.80138764], "xyz": [1.43443327931999, 3.7541453893535897, 31.295533328638513], "label": "S", "properties": {}}, {"species": [{"element": "S", "occu": 1}], "abc": [0.26473626, 0.46205266, 0.63384741], "xyz": [1.65723601552326, 3.74576434561406, 24.75280595159441], "label": "S", "properties": {}}, {"species": [{"element": "S", "occu": 1}], "abc": [0.7384187, 0.53250407, 0.53374412], "xyz": [4.6224648794837, 4.3168992021393695, 20.843604346611627], "label": "S", "properties": {}}, {"species": [{"element": "S", "occu": 1}], "abc": [0.73830822, 0.9675871, 0.53375222], "xyz": [4.62177328009722, 7.8440263939961, 20.843920665216142], "label": "S", "properties": {}}, {"species": [{"element": "S", "occu": 1}], "abc": [0.26486203, 0.03810283, 0.63385577], "xyz": [1.6580233295605302, 0.30889167931852995, 24.75313242363562], "label": "S", "properties": {}}, {"species": [{"element": "S", "occu": 1}], "abc": [0.23202484, 0.0355976, 0.80133169], "xyz": [1.4524641291828402, 0.2885823033016, 31.293348387166574], "label": "S", "properties": {}}, {"species": [{"element": "S", "occu": 1}], "abc": [0.77037557, 0.9630207, 0.69858664], "xyz": [4.82251331979707, 7.807007543573699, 27.280981617162944], "label": "S", "properties": {}}, {"species": [{"element": "S", "occu": 1}], "abc": [0.22711481, 0.24995187, 0.73000417], "xyz": [1.42172758197431, 2.0263075701491697, 28.5078889316038], "label": "S", "properties": {}}, {"species": [{"element": "S", "occu": 1}], "abc": [0.77258476, 0.75002752, 0.76999209], "xyz": [4.83634274094676, 6.080316348888319, 30.0694843701146], "label": "S", "properties": {}}, {"species": [{"element": "S", "occu": 1}], "abc": [0.70410254, 0.74998635, 0.60435276], "xyz": [4.4076473993755405, 6.07998259230285, 23.600990330765114], "label": "S", "properties": {}}, {"species": [{"element": "S", "occu": 1}], "abc": [0.2633558, 0.25016998, 0.56176513], "xyz": [1.6485944035657998, 2.0280757423341798, 21.93787185035939], "label": "S", "properties": {}}, {"species": [{"element": "S", "occu": 1}], "abc": [0.32671796, 0.75106869, 0.71620627], "xyz": [2.04523842041996, 6.0887568964737895, 27.969057762064903], "label": "S", "properties": {}}, {"species": [{"element": "S", "occu": 1}], "abc": [0.67287142, 0.25108004, 0.78385283], "xyz": [4.21214211850042, 2.03545340855164, 30.61076954719768], "label": "S", "properties": {}}, {"species": [{"element": "S", "occu": 1}], "abc": [0.82023282, 0.24997921, 0.61724373], "xyz": [5.13461726179182, 2.0265292098151098, 24.104404360551595], "label": "S", "properties": {}}, {"species": [{"element": "S", "occu": 1}], "abc": [0.16691767, 0.7500749, 0.55758051], "xyz": [1.0448964352341699, 6.080700448645899, 21.774455410997177], "label": "S", "properties": {}}, {"species": [{"element": "S", "occu": 1}], "abc": [0.26069648, 0.46746926, 0.96619911], "xyz": [1.63194719067248, 3.7896755897446597, 37.73169804453918], "label": "S", "properties": {}}, {"species": [{"element": "S", "occu": 1}], "abc": [0.73488071, 0.53814644, 0.86612167], "xyz": [4.60031723544521, 4.36264071647404, 33.82350592547328], "label": "S", "properties": {}}, {"species": [{"element": "S", "occu": 1}], "abc": [0.73515916, 0.96213693, 0.86619859], "xyz": [4.60206031880116, 7.799843004891629, 33.8265097806658], "label": "S", "properties": {}}, {"species": [{"element": "S", "occu": 1}], "abc": [0.26111032, 0.03244633, 0.96621536], "xyz": [1.63453780879432, 0.26303561602703, 37.73233263433219], "label": "S", "properties": {}}, {"species": [{"element": "S", "occu": 1}], "abc": [0.73628784, 0.74986651, 0.9382276], "xyz": [4.60912580029584, 6.07901107446941, 36.63936359893013], "label": "S", "properties": {}}, {"species": [{"element": "S", "occu": 1}], "abc": [0.29549911, 0.24990834, 0.89560681], "xyz": [1.84980994914361, 2.02595468153694, 34.97495016482987], "label": "S", "properties": {}}, {"species": [{"element": "S", "occu": 1}], "abc": [0.8323017, 0.24968857, 0.94237568], "xyz": [5.210167859216701, 2.02417305207887, 36.80135308992086], "label": "S", "properties": {}}, {"species": [{"element": "S", "occu": 1}], "abc": [0.1795294, 0.74992794, 0.88274727], "xyz": [1.1238452470594, 6.079509074640539, 34.47276352933227], "label": "S", "properties": {}}]}, "formula": "(Li3PS4)12.0", "bandgap": 2.6301999999999994}