{"miller": "001_0.07", "final_energy": -421.04404292, "sigma": 0.011037073816861878, "incar_parameters": {"SYSTEM": "unknown system", "LCOMPAT": false, "PREC": "normal", "ENMAX": 520.0, "ENAUG": 628.945, "EDIFF": 1e-05, "IALGO": 38, "IWAVPR": 11, "NBANDS": 278, "NBANDSLOW": -1, "NBANDSHIGH": -1, "NELECT": 456.0, "TURBO": 0, "IRESTART": 0, "NREBOOT": 0, "NMIN": 0, "EREF": 0.0, "ISMEAR": 0, "SIGMA": 0.05, "KSPACING": 0.5, "KGAMMA": true, "KBLOWUP": true, "LREAL": true, "ROPT": [-0.0005, -0.0005, -0.0005], "LMAXPAW": -100, "LMAXMIX": 2, "NLSPLINE": false, "ISTART": 0, "ICHARG": 2, "INIWAV": 1, "ISPIN": 1, "LNONCOLLINEAR": false, "MAGMOM": [0.6, 0.6, 0.6, 0.6, 0.6, 0.6, 0.6, 0.6, 0.6, 0.6, 0.6, 0.6, 0.6, 0.6, 0.6, 0.6, 0.6, 0.6, 0.6, 0.6, 0.6, 0.6, 0.6, 0.6, 0.6, 0.6, 0.6, 0.6, 0.6, 0.6, 0.6, 0.6, 0.6, 0.6, 0.6, 0.6, 0.6, 0.6, 0.6, 0.6, 0.6, 0.6, 0.6, 0.6, 0.6, 0.6, 0.6, 0.6, 0.6, 0.6, 0.6, 0.6, 0.6, 0.6, 0.6, 0.6, 0.6, 0.6, 0.6, 0.6, 0.6, 0.6, 0.6, 0.6, 0.6, 0.6, 0.6, 0.6, 0.6, 0.6, 0.6, 0.6, 0.6, 0.6, 0.6, 0.6, 0.6, 0.6, 0.6, 0.6, 0.6, 0.6, 0.6, 0.6, 0.6, 0.6, 0.6, 0.6, 0.6, 0.6, 0.6, 0.6, 0.6, 0.6, 0.6, 0.6], "NUPDOWN": -1.0, "LSORBIT": false, "SAXIS": [0.0, 0.0, 1.0], "LSPIRAL": false, "QSPIRAL": [0.0, 0.0, 0.0], "LZEROZ": false, "LASPH": false, "LMETAGGA": false, "NELM": 100, "NELMDL": -5, "NELMIN": 6, "ENINI": 520.0, "LDIAG": true, "LSUBROT": false, "WEIMIN": 0.001, "EBREAK": 1e-08, "DEPER": 0.3, "NRMM": 4, "TIME": 0.4, "AMIX": 0.4, "BMIX": 1.0, "AMIN": 0.1, "AMIX_MAG": 1.6, "BMIX_MAG": 1.0, "IMIX": 4, "MIXFIRST": false, "MAXMIX": -45, "WC": 100.0, "INIMIX": 1, "MIXPRE": 1, "MREMOVE": 5, "LDIPOL": false, "LMONO": false, "IDIPOL": 0, "EPSILON": 1.0, "DIPOL": [-100.0, -100.0, -100.0], "EFIELD": 0.0, "NGX": 36, "NGY": 48, "NGZ": 224, "NGXF": 72, "NGYF": 96, "NGZF": 448, "ADDGRID": false, "NSW": 150, "IBRION": 2, "MDALGO": 0, "ISIF": 3, "PSTRESS": 0.0, "EDIFFG": -0.01, "NFREE": 1, "POTIM": 0.5, "SMASS": -3.0, "SCALEE": 1.0, "TEBEG": 0.0001, "TEEND": 0.0001, "NBLOCK": 1, "KBLOCK": 150, "NPACO": 256, "APACO": 10.0, "ISYM": 0, "SYMPREC": 1e-05, "LORBIT": 11, "RWIGS": [-1.0, -1.0, -1.0], "NEDOS": 301, "EMIN": 10.0, "EMAX": -10.0, "EFERMI": 0.0, "NWRITE": 2, "LWAVE": false, "LDOWNSAMPLE": false, "LCHARG": false, "LPARD": false, "LVTOT": false, "LVHAR": false, "LELF": false, "LOPTICS": false, "STM": [0.0, 0.0, 0.0, 0.0, 0.0, 0.0, 0.0], "NPAR": 2, "NSIM": 4, "NBLK": -1, "LPLANE": true, "LSCALAPACK": true, "LSCAAWARE": false, "LSCALU": false, "LASYNC": false, "LORBITALREAL": false, "IDIOT": 3, "PHON_NSTRUCT": -1, "LMUSIC": false, "POMASS": [7.01, 30.974, 32.066], "DARWINR": [0.0, 0.0, 0.0], "DARWINV": [1.0, 1.0, 1.0], "LCORR": true, "GGA_COMPAT": true, "LBERRY": false, "ICORELEVEL": 0, "LDAU": false, "I_CONSTRAINED_M": 0, "GGA": "--", "VOSKOWN": 0, "LHFCALC": false, "PRECFOCK": "", "LSYMGRAD": false, "LHFONE": false, "LRHFCALC": false, "LTHOMAS": false, "LMODELHF": false, "LFOCKACE": false, "ENCUT4O": -1.0, "EXXOEP": 0, "FOURORBIT": 0, "AEXX": 0.0, "HFALPHA": 0.0, "MCALPHA": 0.0, "ALDAX": 1.0, "AGGAX": 1.0, "ALDAC": 1.0, "AGGAC": 1.0, "NKREDX": 1, "NKREDY": 1, "NKREDZ": 1, "SHIFTRED": false, "ODDONLY": false, "EVENONLY": false, "LMAXFOCK": 0, "NMAXFOCKAE": 0, "LFOCKAEDFT": false, "HFSCREEN": 0.0, "HFSCREENC": 0.0, "NBANDSGWLOW": 0, "LUSE_VDW": false, "Zab_VDW": -0.8491, "PARAM1": 0.1234, "PARAM2": 1.0, "PARAM3": 0.0, "MODEL_GW": 0, "MODEL_EPS0": 12.38583076, "MODEL_ALPHA": 1.0, "LEPSILON": false, "LRPA": false, "LNABLA": false, "LVEL": false, "CSHIFT": 0.1, "OMEGAMAX": -1.0, "DEG_THRESHOLD": 0.002, "RTIME": -0.1, "WPLASMAI": 0.0, "DFIELD": [0.0, 0.0, 0.0], "WPLASMA": [0.0, 0.0, 0.0, 0.0, 0.0, 0.0, 0.0, 0.0, 0.0], "NUCIND": false, "MAGPOS": [0.0, 0.0, 0.0], "LNICSALL": true, "ORBITALMAG": false, "LMAGBLOCH": false, "LCHIMAG": false, "LGAUGE": true, "MAGATOM": 0, "MAGDIPOL": [0.0, 0.0, 0.0], "AVECCONST": [0.0, 0.0, 0.0], "LFINITE_TEMPERATURE": false, "LADDER": false, "LRPAFORCE": false, "LFXC": false, "LHARTREE": true, "IBSE": 0, "KPOINT": [-1, 0, 0, 0], "LTCTC": false, "LTCTE": false, "LTETE": false, "LTRIPLET": false, "LFXCEPS": false, "LFXHEG": false, "NATURALO": 2, "LHOLEGF": false, "L2ORDER": false, "LDMP1": false, "LMP2LT": false, "LSMP2LT": false, "LGWLF": false, "ENCUTGW": -2.0, "ENCUTGWSOFT": -2.0, "ENCUTLF": -1.0, "LESF_SPLINES": false, "LMAXMP2": -1, "SCISSOR": 0.0, "NOMEGA": 0, "NOMEGAR": 0, "NBANDSGW": -1, "NBANDSO": -1, "NBANDSV": -1, "NELMGW": 1, "NELMHF": 1, "DIM": 3, "IESPILON": 4, "ANTIRES": 0, "OMEGAMIN": -30.0, "OMEGATL": -200.0, "OMEGAGRID": 0, "LSELFENERGY": false, "LSPECTRAL": false, "LSPECTRALGW": false, "LSINGLES": false, "LFERMIGW": false, "ODDONLYGW": false, "EVENONLYGW": false, "NKREDLFX": 1, "NKREDLFY": 1, "NKREDLFZ": 1, "MAXMEM": 2800, "TELESCOPE": 0, "NTAUPAR": -1, "NOMEGAPAR": -1, "DAMP_NEWTON": 0.80000001, "LAMBDA": 1.0, "OFIELD_KAPPA": 0.0, "OFIELD_K": [0.0, 0.0, 0.0], "OFIELD_Q6_NEAR": 0.0, "OFIELD_Q6_FAR": 0.0, "OFIELD_A": 0.0, "KPOINTS_OPT_MODE": 1, "LKPOINTS_OPT": false, "@module": "pymatgen.io.vasp.inputs", "@class": "Incar"}, "relaxed_structures": {"@module": "pymatgen.core.structure", "@class": "Structure", "charge": 0, "lattice": {"matrix": [[6.259951, 0.0, 0.0], [0.0, 8.106791, 0.0], [0.0, 0.0, 39.05037544]], "a": 6.259951, "b": 8.106791, "c": 39.05037544, "alpha": 90.0, "beta": 90.0, "gamma": 90.0, "volume": 1981.7329212558418}, "sites": [{"species": [{"element": "Li", "occu": 1}], "abc": [0.11451612, 0.9685645, 0.1940671], "xyz": [0.71686529991012, 7.8519499715195, 7.578393115552024], "label": "Li", "properties": {}}, {"species": [{"element": "Li", "occu": 1}], "abc": [0.61158917, 0.03656509, 0.13869808], "xyz": [3.82851823633067, 0.29642554252618997, 5.416212096807156], "label": "Li", "properties": {}}, {"species": [{"element": "Li", "occu": 1}], "abc": [0.37114318, 0.99932713, 0.02711902], "xyz": [2.32333812078418, 8.101336183539829, 1.0590079125648688], "label": "Li", "properties": {}}, {"species": [{"element": "Li", "occu": 1}], "abc": [0.37106457, 0.50058733, 0.02709418], "xyz": [2.32284602603607, 4.05815686155803, 1.0580379012389391], "label": "Li", "properties": {}}, {"species": [{"element": "Li", "occu": 1}], "abc": [0.61123906, 0.46296004, 0.13865519], "xyz": [3.8263265648860596, 3.7531202856316397, 5.414537226204534], "label": "Li", "properties": {}}, {"species": [{"element": "Li", "occu": 1}], "abc": [0.10938809, 0.53414332, 0.19390345], "xyz": [0.68476408338359, 4.330188259286119, 7.572002521611269], "label": "Li", "properties": {}}, {"species": [{"element": "Li", "occu": 1}], "abc": [0.49992065, 0.99998952, 0.25000327], "xyz": [3.12947877288815, 8.10670604083032, 9.76272155472769], "label": "Li", "properties": {}}, {"species": [{"element": "Li", "occu": 1}], "abc": [0.98179219, 0.9785215, 0.08491503], "xyz": [6.14597100158269, 7.932669289506499, 3.3159638019988638], "label": "Li", "properties": {}}, {"species": [{"element": "Li", "occu": 1}], "abc": [0.98173781, 0.52122131, 0.08492121], "xyz": [6.14563058544731, 4.22543222491621, 3.3162051333190825], "label": "Li", "properties": {}}, {"species": [{"element": "Li", "occu": 1}], "abc": [0.49993674, 0.50004387, 0.25000009], "xyz": [3.12957949549974, 4.053751144921169, 9.76259737453379], "label": "Li", "properties": {}}, {"species": [{"element": "Li", "occu": 1}], "abc": [0.88508452, 0.03163021, 0.30597815], "xyz": [5.54058572605852, 0.25641950175610995, 11.948561633936638], "label": "Li", "properties": {}}, {"species": [{"element": "Li", "occu": 1}], "abc": [0.62730963, 0.00134428, 0.47293017], "xyz": [3.92692754562813, 0.01089779700548, 18.468100695403027], "label": "Li", "properties": {}}, {"species": [{"element": "Li", "occu": 1}], "abc": [0.3881615, 0.96325622, 0.36128668], "xyz": [2.4298719700865, 7.808916854990019, 14.108380495471142], "label": "Li", "properties": {}}, {"species": [{"element": "Li", "occu": 1}], "abc": [0.38839857, 0.53673913, 0.36134064], "xyz": [2.43135601667007, 4.351231948431829, 14.110487653729882], "label": "Li", "properties": {}}, {"species": [{"element": "Li", "occu": 1}], "abc": [0.62726673, 0.49879266, 0.4729741], "xyz": [3.92665899373023, 4.0436078469540595, 18.469816178396105], "label": "Li", "properties": {}}, {"species": [{"element": "Li", "occu": 1}], "abc": [0.89041591, 0.46582839, 0.3061021], "xyz": [5.57395996622041, 3.7763733995964897, 11.953401927972424], "label": "Li", "properties": {}}, {"species": [{"element": "Li", "occu": 1}], "abc": [0.01793771, 0.02124541, 0.41506787], "xyz": [0.11228918565221, 0.17223209857931, 16.208556156581114], "label": "Li", "properties": {}}, {"species": [{"element": "Li", "occu": 1}], "abc": [0.01790341, 0.47875547, 0.41506712], "xyz": [0.11207446933291002, 3.88117053539677, 16.208526868799535], "label": "Li", "properties": {}}, {"species": [{"element": "Li", "occu": 1}], "abc": [0.39043307, 0.03382097, 0.6939025], "xyz": [2.44409188697957, 0.27417953520726995, 27.0971531437546], "label": "Li", "properties": {}}, {"species": [{"element": "Li", "occu": 1}], "abc": [0.88849317, 0.96332594, 0.63866174], "xyz": [5.56192370803467, 7.8094820604585395, 24.939980726163668], "label": "Li", "properties": {}}, {"species": [{"element": "Li", "occu": 1}], "abc": [0.12722155, 0.0012065, 0.52702997], "xyz": [0.7964006691440499, 0.009780843341500001, 20.58071819663194], "label": "Li", "properties": {}}, {"species": [{"element": "Li", "occu": 1}], "abc": [0.12721066, 0.49873483, 0.52702578], "xyz": [0.7963324982776601, 4.04313903123053, 20.580554575558846], "label": "Li", "properties": {}}, {"species": [{"element": "Li", "occu": 1}], "abc": [0.88850514, 0.53671388, 0.63865381], "xyz": [5.56199863964814, 4.35102725195908, 24.93967105668643], "label": "Li", "properties": {}}, {"species": [{"element": "Li", "occu": 1}], "abc": [0.39055499, 0.4662987, 0.69392465], "xyz": [2.44485510020549, 3.7801861044717, 27.0980181095706], "label": "Li", "properties": {}}, {"species": [{"element": "Li", "occu": 1}], "abc": [0.00040043, 7.954e-05, 0.75000675], "xyz": [0.0025066721789300003, 0.00064481415614, 29.288045170034223], "label": "Li", "properties": {}}, {"species": [{"element": "Li", "occu": 1}], "abc": [0.51793517, 0.02118774, 0.58491979], "xyz": [3.24224878537667, 0.17176457994233998, 22.84133740178596], "label": "Li", "properties": {}}, {"species": [{"element": "Li", "occu": 1}], "abc": [0.51790556, 0.47882917, 0.58492067], "xyz": [3.24206342822756, 3.88176800589347, 22.84137176611635], "label": "Li", "properties": {}}, {"species": [{"element": "Li", "occu": 1}], "abc": [0.00024569, 0.49997973, 0.75000961], "xyz": [0.00153800736119, 4.05323117534643, 29.28815685410798], "label": "Li", "properties": {}}, {"species": [{"element": "Li", "occu": 1}], "abc": [0.61455215, 0.96837378, 0.80592527], "xyz": [3.8470663459446497, 7.850403844339979, 31.471684370083373], "label": "Li", "properties": {}}, {"species": [{"element": "Li", "occu": 1}], "abc": [0.8723412, 0.9984884, 0.97298095], "xyz": [5.4608131672812, 8.0945367747244, 37.99527139346787], "label": "Li", "properties": {}}, {"species": [{"element": "Li", "occu": 1}], "abc": [0.11169413, 0.03666338, 0.86131334], "xyz": [0.69919978078763, 0.29722235901358, 33.63460929848038], "label": "Li", "properties": {}}, {"species": [{"element": "Li", "occu": 1}], "abc": [0.11167677, 0.46331926, 0.86131629], "xyz": [0.69909110803827, 3.75603240709466, 33.63472449708792], "label": "Li", "properties": {}}, {"species": [{"element": "Li", "occu": 1}], "abc": [0.87142032, 0.50058472, 0.97297286], "xyz": [5.455048503604321, 4.058135702833519, 37.99495547593057], "label": "Li", "properties": {}}, {"species": [{"element": "Li", "occu": 1}], "abc": [0.61398566, 0.53251706, 0.80607421], "xyz": [3.84352014630266, 4.31700450935446, 31.477500533001404], "label": "Li", "properties": {}}, {"species": [{"element": "Li", "occu": 1}], "abc": [0.4821278, 0.97882274, 0.91528558], "xyz": [3.0180964037378, 7.935111379227339, 35.74224553381816], "label": "Li", "properties": {}}, {"species": [{"element": "Li", "occu": 1}], "abc": [0.48174139, 0.52121824, 0.91507587], "xyz": [3.01567749607189, 4.22540733706784, 35.734056279584635], "label": "Li", "properties": {}}, {"species": [{"element": "P", "occu": 1}], "abc": [0.84714212, 0.24968887, 0.21995706], "xyz": [5.30306816123612, 2.02417548411617, 8.589405773678607], "label": "P", "properties": {}}, {"species": [{"element": "P", "occu": 1}], "abc": [0.35247922, 0.74994526, 0.11210597], "xyz": [2.2065026457182197, 6.079649484260659, 4.377780217565377], "label": "P", "properties": {}}, {"species": [{"element": "P", "occu": 1}], "abc": [0.65617281, 0.24972791, 0.0558137], "xyz": [4.107609638132311, 2.0244919732368096, 2.179545939695528], "label": "P", "properties": {}}, {"species": [{"element": "P", "occu": 1}], "abc": [0.15229068, 0.75034083, 0.28002134], "xyz": [0.9533321945566801, 6.082856287576529, 10.93493845821189], "label": "P", "properties": {}}, {"species": [{"element": "P", "occu": 1}], "abc": [0.34218258, 0.75001695, 0.44427716], "xyz": [2.14204618385358, 6.08023066010745, 17.349189897416952], "label": "P", "properties": {}}, {"species": [{"element": "P", "occu": 1}], "abc": [0.64674467, 0.24993851, 0.38789054], "xyz": [4.04858994371117, 2.0261992634214097, 15.14727121662434], "label": "P", "properties": {}}, {"species": [{"element": "P", "occu": 1}], "abc": [0.65381425, 0.7501922, 0.71986881], "xyz": [4.09284516810175, 6.0816513752302, 28.11114729804603], "label": "P", "properties": {}}, {"species": [{"element": "P", "occu": 1}], "abc": [0.14729691, 0.25003317, 0.61208882], "xyz": [0.92207143905141, 2.02696665225747, 23.90229822362658], "label": "P", "properties": {}}, {"species": [{"element": "P", "occu": 1}], "abc": [0.84220867, 0.75001163, 0.55575041], "xyz": [5.27218500597517, 6.0801875319793295, 21.702262161433932], "label": "P", "properties": {}}, {"species": [{"element": "P", "occu": 1}], "abc": [0.34857775, 0.25037054, 0.77998109], "xyz": [2.18207963469025, 2.0297016403371395, 30.458554400600434], "label": "P", "properties": {}}, {"species": [{"element": "P", "occu": 1}], "abc": [0.15706489, 0.24993592, 0.94428666], "xyz": [0.98321851522039, 2.0261782668327197, 36.87474859598363], "label": "P", "properties": {}}, {"species": [{"element": "P", "occu": 1}], "abc": [0.85307408, 0.74998815, 0.88793021], "xyz": [5.34020194017008, 6.07999718452665, 34.67400806501805], "label": "P", "properties": {}}, {"species": [{"element": "S", "occu": 1}], "abc": [0.72875174, 0.46303159, 0.19860287], "xyz": [4.56195018356474, 3.7537003265276896, 7.755516636961513], "label": "S", "properties": {}}, {"species": [{"element": "S", "occu": 1}], "abc": [0.23456041, 0.53798732, 0.13386696], "xyz": [1.46833667313991, 4.36135076389012, 5.227555047011463], "label": "S", "properties": {}}, {"species": [{"element": "S", "occu": 1}], "abc": [0.76004914, 0.46709881, 0.03378826], "xyz": [4.75787037399214, 3.7866724290187097, 1.3194442384643346], "label": "S", "properties": {}}, {"species": [{"element": "S", "occu": 1}], "abc": [0.75984774, 0.03223237, 0.03381648], "xyz": [4.75660961986074, 0.26130108702467003, 1.3205462400592514], "label": "S", "properties": {}}, {"species": [{"element": "S", "occu": 1}], "abc": [0.23477878, 0.9620564, 0.1338366], "xyz": [1.46970365863978, 7.7991901650124, 5.226369477613105], "label": "S", "properties": {}}, {"species": [{"element": "S", "occu": 1}], "abc": [0.73146507, 0.03531683, 0.19867143], "xyz": [4.57893549641157, 0.28630615959253, 7.7581939307016805], "label": "S", "properties": {}}, {"species": [{"element": "S", "occu": 1}], "abc": [0.27238828, 0.75027185, 0.2300121], "xyz": [1.70513728577428, 6.082297081133349, 8.982058860742825], "label": "S", "properties": {}}, {"species": [{"element": "S", "occu": 1}], "abc": [0.72704352, 0.24977146, 0.26996614], "xyz": [4.55125681006752, 2.02484502398486, 10.542279123087603], "label": "S", "properties": {}}, {"species": [{"element": "S", "occu": 1}], "abc": [0.79509679, 0.2498082, 0.10440136], "xyz": [4.97726694565729, 2.0251428674862, 4.076912304446599], "label": "S", "properties": {}}, {"species": [{"element": "S", "occu": 1}], "abc": [0.23558016, 0.7499876, 0.06176458], "xyz": [1.4747202581721601, 6.079992725791599, 2.4119300378939155], "label": "S", "properties": {}}, {"species": [{"element": "S", "occu": 1}], "abc": [0.17241687, 0.25123223, 0.21599949], "xyz": [1.07932115777337, 2.0366871810739298, 8.434861179348525], "label": "S", "properties": {}}, {"species": [{"element": "S", "occu": 1}], "abc": [0.67906056, 0.74973982, 0.11721217], "xyz": [4.25088583163256, 6.077984025117619, 4.577179244637105], "label": "S", "properties": {}}, {"species": [{"element": "S", "occu": 1}], "abc": [0.33143177, 0.24991322, 0.05779056], "xyz": [2.07474664004327, 2.0259942426770197, 2.2567430648878464], "label": "S", "properties": {}}, {"species": [{"element": "S", "occu": 1}], "abc": [0.27082233, 0.53705588, 0.30138276], "xyz": [1.69533451550583, 4.35379977448108, 11.769109929143417], "label": "S", "properties": {}}, {"species": [{"element": "S", "occu": 1}], "abc": [0.23820289, 0.53255464, 0.46625025], "xyz": [1.49113841945839, 4.31730916256024, 18.207247311493862], "label": "S", "properties": {}}, {"species": [{"element": "S", "occu": 1}], "abc": [0.76487437, 0.46183585, 0.36612278], "xyz": [4.78807607735587, 3.7440067122573497, 14.297232016136524], "label": "S", "properties": {}}, {"species": [{"element": "S", "occu": 1}], "abc": [0.76460814, 0.03783499, 0.36618839], "xyz": [4.78640949060114, 0.30672035641708995, 14.299794111269142], "label": "S", "properties": {}}, {"species": [{"element": "S", "occu": 1}], "abc": [0.23821802, 0.96747084, 0.46625274], "xyz": [1.49123313251702, 7.84308389847444, 18.207344546928706], "label": "S", "properties": {}}, {"species": [{"element": "S", "occu": 1}], "abc": [0.26784387, 0.96470492, 0.30131366], "xyz": [1.6766895018503698, 7.820661163111719, 11.76641154820051], "label": "S", "properties": {}}, {"species": [{"element": "S", "occu": 1}], "abc": [0.76319065, 0.25002378, 0.43824309], "xyz": [4.77753607265815, 2.0268905294899797, 17.11355719848571], "label": "S", "properties": {}}, {"species": [{"element": "S", "occu": 1}], "abc": [0.20409299, 0.75000456, 0.39561236], "xyz": [1.27761211684349, 6.0801302169669595, 15.44881118670444], "label": "S", "properties": {}}, {"species": [{"element": "S", "occu": 1}], "abc": [0.82699622, 0.74880121, 0.28398391], "xyz": [5.17695581438522, 6.07037491001711, 11.089678304419172], "label": "S", "properties": {}}, {"species": [{"element": "S", "occu": 1}], "abc": [0.66668315, 0.74998758, 0.44241616], "xyz": [4.17340385152565, 6.07999256365578, 17.276517148723112], "label": "S", "properties": {}}, {"species": [{"element": "S", "occu": 1}], "abc": [0.32015628, 0.25003709, 0.38275182], "xyz": [2.00416262514228, 2.02699843087819, 14.946602271343304], "label": "S", "properties": {}}, {"species": [{"element": "S", "occu": 1}], "abc": [0.77162025, 0.53644352, 0.69860997], "xyz": [4.83030495560775, 4.348835499944319, 27.28098161462714], "label": "S", "properties": {}}, {"species": [{"element": "S", "occu": 1}], "abc": [0.26520065, 0.46197362, 0.63385939], "xyz": [1.66014307416815, 3.7451235848534195, 24.752447155669383], "label": "S", "properties": {}}, {"species": [{"element": "S", "occu": 1}], "abc": [0.73829033, 0.5325341, 0.53376414], "xyz": [4.62166128957383, 4.3171426490731, 20.843690063408726], "label": "S", "properties": {}}, {"species": [{"element": "S", "occu": 1}], "abc": [0.73827218, 0.96744505, 0.53375358], "xyz": [4.62154767146318, 7.84287482433455, 20.843277691444076], "label": "S", "properties": {}}, {"species": [{"element": "S", "occu": 1}], "abc": [0.2651821, 0.03805571, 0.63385196], "xyz": [1.6600269520770998, 0.30850968732661, 24.752157011379865], "label": "S", "properties": {}}, {"species": [{"element": "S", "occu": 1}], "abc": [0.77136124, 0.96409529, 0.69863207], "xyz": [4.828683565699239, 7.81571902011439, 27.281844627924364], "label": "S", "properties": {}}, {"species": [{"element": "S", "occu": 1}], "abc": [0.22812879, 0.25016811, 0.72999964], "xyz": [1.42807504708929, 2.02806058263501, 28.50676001306484], "label": "S", "properties": {}}, {"species": [{"element": "S", "occu": 1}], "abc": [0.7733202, 0.75021006, 0.769928], "xyz": [4.8409465593102, 6.08179616251746, 30.06597746176832], "label": "S", "properties": {}}, {"species": [{"element": "S", "occu": 1}], "abc": [0.704045, 0.75002937, 0.60440083], "xyz": [4.407287201795, 6.08033134645167, 23.602079327747617], "label": "S", "properties": {}}, {"species": [{"element": "S", "occu": 1}], "abc": [0.26357623, 0.25000502, 0.5617129], "xyz": [1.64997428456473, 2.02673844609082, 21.935099634491177], "label": "S", "properties": {}}, {"species": [{"element": "S", "occu": 1}], "abc": [0.32894243, 0.75004275, 0.71563252], "xyz": [2.05916349362093, 6.080439815315249, 27.94571858307331], "label": "S", "properties": {}}, {"species": [{"element": "S", "occu": 1}], "abc": [0.82066306, 0.25005051, 0.6172196], "xyz": [5.13731054311006, 2.02710722401341, 24.102657108926625], "label": "S", "properties": {}}, {"species": [{"element": "S", "occu": 1}], "abc": [0.16671052, 0.74997858, 0.55761179], "xyz": [1.04359968638452, 6.079919602536779, 21.77494974927044], "label": "S", "properties": {}}, {"species": [{"element": "S", "occu": 1}], "abc": [0.23180291, 0.46415451, 0.80136039], "xyz": [1.45107485825741, 3.76280360427741, 31.293424092244827], "label": "S", "properties": {}}, {"species": [{"element": "S", "occu": 1}], "abc": [0.26089247, 0.46741726, 0.96626297], "xyz": [1.63317407846897, 3.7892540366126597, 37.732931752269465], "label": "S", "properties": {}}, {"species": [{"element": "S", "occu": 1}], "abc": [0.73517542, 0.53786773, 0.86621789], "xyz": [4.60216210560442, 4.36038127275443, 33.826133817344626], "label": "S", "properties": {}}, {"species": [{"element": "S", "occu": 1}], "abc": [0.73499981, 0.96196745, 0.86620688], "xyz": [4.601062795609311, 7.798469065952949, 33.82570387271103], "label": "S", "properties": {}}, {"species": [{"element": "S", "occu": 1}], "abc": [0.26111266, 0.03254577, 0.96631114], "xyz": [1.63455245707966, 0.26384175532407, 37.7348128088544], "label": "S", "properties": {}}, {"species": [{"element": "S", "occu": 1}], "abc": [0.23222222, 0.03640519, 0.80134578], "xyz": [1.4536997183112201, 0.29512926664528993, 31.292853566259645], "label": "S", "properties": {}}, {"species": [{"element": "S", "occu": 1}], "abc": [0.7362927, 0.74983746, 0.93828222], "xyz": [4.6091562236577, 6.078775572190859, 36.64027295967668], "label": "S", "properties": {}}, {"species": [{"element": "S", "occu": 1}], "abc": [0.29548579, 0.24991295, 0.89566188], "xyz": [1.84972656659629, 2.0259920538434497, 34.97593268129623], "label": "S", "properties": {}}, {"species": [{"element": "S", "occu": 1}], "abc": [0.67409352, 0.25057692, 0.78380025], "xyz": [4.21979240461752, 2.0313747198637198, 30.60769403246586], "label": "S", "properties": {}}, {"species": [{"element": "S", "occu": 1}], "abc": [0.8325134, 0.24963123, 0.94244384], "xyz": [5.211493090843399, 2.02370820868293, 36.8027857831153], "label": "S", "properties": {}}, {"species": [{"element": "S", "occu": 1}], "abc": [0.17963736, 0.75002294, 0.88278857], "xyz": [1.12452107136936, 6.08027921978554, 34.473225092640725], "label": "S", "properties": {}}]}, "formula": "(Li3PS4)12.0", "bandgap": 2.6302000000000003}