{"miller": "001_0.10", "final_energy": -421.04015695, "sigma": 0.011075360658095855, "incar_parameters": {"SYSTEM": "unknown system", "LCOMPAT": false, "PREC": "normal", "ENMAX": 520.0, "ENAUG": 628.945, "EDIFF": 1e-05, "IALGO": 38, "IWAVPR": 11, "NBANDS": 278, "NBANDSLOW": -1, "NBANDSHIGH": -1, "NELECT": 456.0, "TURBO": 0, "IRESTART": 0, "NREBOOT": 0, "NMIN": 0, "EREF": 0.0, "ISMEAR": 0, "SIGMA": 0.05, "KSPACING": 0.5, "KGAMMA": true, "KBLOWUP": true, "LREAL": true, "ROPT": [-0.0005, -0.0005, -0.0005], "LMAXPAW": -100, "LMAXMIX": 2, "NLSPLINE": false, "ISTART": 0, "ICHARG": 2, "INIWAV": 1, "ISPIN": 1, "LNONCOLLINEAR": false, "MAGMOM": [0.6, 0.6, 0.6, 0.6, 0.6, 0.6, 0.6, 0.6, 0.6, 0.6, 0.6, 0.6, 0.6, 0.6, 0.6, 0.6, 0.6, 0.6, 0.6, 0.6, 0.6, 0.6, 0.6, 0.6, 0.6, 0.6, 0.6, 0.6, 0.6, 0.6, 0.6, 0.6, 0.6, 0.6, 0.6, 0.6, 0.6, 0.6, 0.6, 0.6, 0.6, 0.6, 0.6, 0.6, 0.6, 0.6, 0.6, 0.6, 0.6, 0.6, 0.6, 0.6, 0.6, 0.6, 0.6, 0.6, 0.6, 0.6, 0.6, 0.6, 0.6, 0.6, 0.6, 0.6, 0.6, 0.6, 0.6, 0.6, 0.6, 0.6, 0.6, 0.6, 0.6, 0.6, 0.6, 0.6, 0.6, 0.6, 0.6, 0.6, 0.6, 0.6, 0.6, 0.6, 0.6, 0.6, 0.6, 0.6, 0.6, 0.6, 0.6, 0.6, 0.6, 0.6, 0.6, 0.6], "NUPDOWN": -1.0, "LSORBIT": false, "SAXIS": [0.0, 0.0, 1.0], "LSPIRAL": false, "QSPIRAL": [0.0, 0.0, 0.0], "LZEROZ": false, "LASPH": false, "LMETAGGA": false, "NELM": 100, "NELMDL": -5, "NELMIN": 6, "ENINI": 520.0, "LDIAG": true, "LSUBROT": false, "WEIMIN": 0.001, "EBREAK": 1e-08, "DEPER": 0.3, "NRMM": 4, "TIME": 0.4, "AMIX": 0.4, "BMIX": 1.0, "AMIN": 0.1, "AMIX_MAG": 1.6, "BMIX_MAG": 1.0, "IMIX": 4, "MIXFIRST": false, "MAXMIX": -45, "WC": 100.0, "INIMIX": 1, "MIXPRE": 1, "MREMOVE": 5, "LDIPOL": false, "LMONO": false, "IDIPOL": 0, "EPSILON": 1.0, "DIPOL": [-100.0, -100.0, -100.0], "EFIELD": 0.0, "NGX": 36, "NGY": 48, "NGZ": 224, "NGXF": 72, "NGYF": 96, "NGZF": 448, "ADDGRID": false, "NSW": 150, "IBRION": 2, "MDALGO": 0, "ISIF": 3, "PSTRESS": 0.0, "EDIFFG": -0.01, "NFREE": 1, "POTIM": 0.5, "SMASS": -3.0, "SCALEE": 1.0, "TEBEG": 0.0001, "TEEND": 0.0001, "NBLOCK": 1, "KBLOCK": 150, "NPACO": 256, "APACO": 10.0, "ISYM": 0, "SYMPREC": 1e-05, "LORBIT": 11, "RWIGS": [-1.0, -1.0, -1.0], "NEDOS": 301, "EMIN": 10.0, "EMAX": -10.0, "EFERMI": 0.0, "NWRITE": 2, "LWAVE": false, "LDOWNSAMPLE": false, "LCHARG": false, "LPARD": false, "LVTOT": false, "LVHAR": false, "LELF": false, "LOPTICS": false, "STM": [0.0, 0.0, 0.0, 0.0, 0.0, 0.0, 0.0], "NPAR": 2, "NSIM": 4, "NBLK": -1, "LPLANE": true, "LSCALAPACK": true, "LSCAAWARE": false, "LSCALU": false, "LASYNC": false, "LORBITALREAL": false, "IDIOT": 3, "PHON_NSTRUCT": -1, "LMUSIC": false, "POMASS": [7.01, 30.974, 32.066], "DARWINR": [0.0, 0.0, 0.0], "DARWINV": [1.0, 1.0, 1.0], "LCORR": true, "GGA_COMPAT": true, "LBERRY": false, "ICORELEVEL": 0, "LDAU": false, "I_CONSTRAINED_M": 0, "GGA": "--", "VOSKOWN": 0, "LHFCALC": false, "PRECFOCK": "", "LSYMGRAD": false, "LHFONE": false, "LRHFCALC": false, "LTHOMAS": false, "LMODELHF": false, "LFOCKACE": false, "ENCUT4O": -1.0, "EXXOEP": 0, "FOURORBIT": 0, "AEXX": 0.0, "HFALPHA": 0.0, "MCALPHA": 0.0, "ALDAX": 1.0, "AGGAX": 1.0, "ALDAC": 1.0, "AGGAC": 1.0, "NKREDX": 1, "NKREDY": 1, "NKREDZ": 1, "SHIFTRED": false, "ODDONLY": false, "EVENONLY": false, "LMAXFOCK": 0, "NMAXFOCKAE": 0, "LFOCKAEDFT": false, "HFSCREEN": 0.0, "HFSCREENC": 0.0, "NBANDSGWLOW": 0, "LUSE_VDW": false, "Zab_VDW": -0.8491, "PARAM1": 0.1234, "PARAM2": 1.0, "PARAM3": 0.0, "MODEL_GW": 0, "MODEL_EPS0": 12.38821032, "MODEL_ALPHA": 1.0, "LEPSILON": false, "LRPA": false, "LNABLA": false, "LVEL": false, "CSHIFT": 0.1, "OMEGAMAX": -1.0, "DEG_THRESHOLD": 0.002, "RTIME": -0.1, "WPLASMAI": 0.0, "DFIELD": [0.0, 0.0, 0.0], "WPLASMA": [0.0, 0.0, 0.0, 0.0, 0.0, 0.0, 0.0, 0.0, 0.0], "NUCIND": false, "MAGPOS": [0.0, 0.0, 0.0], "LNICSALL": true, "ORBITALMAG": false, "LMAGBLOCH": false, "LCHIMAG": false, "LGAUGE": true, "MAGATOM": 0, "MAGDIPOL": [0.0, 0.0, 0.0], "AVECCONST": [0.0, 0.0, 0.0], "LFINITE_TEMPERATURE": false, "LADDER": false, "LRPAFORCE": false, "LFXC": false, "LHARTREE": true, "IBSE": 0, "KPOINT": [-1, 0, 0, 0], "LTCTC": false, "LTCTE": false, "LTETE": false, "LTRIPLET": false, "LFXCEPS": false, "LFXHEG": false, "NATURALO": 2, "LHOLEGF": false, "L2ORDER": false, "LDMP1": false, "LMP2LT": false, "LSMP2LT": false, "LGWLF": false, "ENCUTGW": -2.0, "ENCUTGWSOFT": -2.0, "ENCUTLF": -1.0, "LESF_SPLINES": false, "LMAXMP2": -1, "SCISSOR": 0.0, "NOMEGA": 0, "NOMEGAR": 0, "NBANDSGW": -1, "NBANDSO": -1, "NBANDSV": -1, "NELMGW": 1, "NELMHF": 1, "DIM": 3, "IESPILON": 4, "ANTIRES": 0, "OMEGAMIN": -30.0, "OMEGATL": -200.0, "OMEGAGRID": 0, "LSELFENERGY": false, "LSPECTRAL": false, "LSPECTRALGW": false, "LSINGLES": false, "LFERMIGW": false, "ODDONLYGW": false, "EVENONLYGW": false, "NKREDLFX": 1, "NKREDLFY": 1, "NKREDLFZ": 1, "MAXMEM": 2800, "TELESCOPE": 0, "NTAUPAR": -1, "NOMEGAPAR": -1, "DAMP_NEWTON": 0.80000001, "LAMBDA": 1.0, "OFIELD_KAPPA": 0.0, "OFIELD_K": [0.0, 0.0, 0.0], "OFIELD_Q6_NEAR": 0.0, "OFIELD_Q6_FAR": 0.0, "OFIELD_A": 0.0, "KPOINTS_OPT_MODE": 1, "LKPOINTS_OPT": false, "@module": "pymatgen.io.vasp.inputs", "@class": "Incar"}, "relaxed_structures": {"@module": "pymatgen.core.structure", "@class": "Structure", "charge": 0, "lattice": {"matrix": [[6.259951, 0.0, 0.0], [0.0, 8.106791, 0.0], [0.0, 0.0, 39.0578778]], "a": 6.259951, "b": 8.106791, "c": 39.0578778, "alpha": 90.0, "beta": 90.0, "gamma": 90.0, "volume": 1982.1136518795959}, "sites": [{"species": [{"element": "Li", "occu": 1}], "abc": [0.11415334, 0.96782479, 0.19393475], "xyz": [0.7145943148863401, 7.845953297148889, 7.574679766673549], "label": "Li", "properties": {}}, {"species": [{"element": "Li", "occu": 1}], "abc": [0.61186072, 0.03612692, 0.1389878], "xyz": [3.8302181260247203, 0.29287338991372, 5.42856850809084], "label": "Li", "properties": {}}, {"species": [{"element": "Li", "occu": 1}], "abc": [0.37082021, 0.99950272, 0.0270407], "xyz": [2.32131634440971, 8.10275965497152, 1.05615235622646], "label": "Li", "properties": {}}, {"species": [{"element": "Li", "occu": 1}], "abc": [0.37081078, 0.5004858, 0.02704273], "xyz": [2.32125731307178, 4.0573337790677995, 1.056231643718394], "label": "Li", "properties": {}}, {"species": [{"element": "Li", "occu": 1}], "abc": [0.61187709, 0.46386813, 0.13899092], "xyz": [3.83032060142259, 3.7604819814708295, 5.428690368669575], "label": "Li", "properties": {}}, {"species": [{"element": "Li", "occu": 1}], "abc": [0.11414745, 0.53219352, 0.19393156], "xyz": [0.71455744377495, 4.31438163819432, 7.574555172043368], "label": "Li", "properties": {}}, {"species": [{"element": "Li", "occu": 1}], "abc": [0.49999458, 0.99999285, 0.25000368], "xyz": [3.1299415710655802, 8.10673303644435, 9.764613182990304], "label": "Li", "properties": {}}, {"species": [{"element": "Li", "occu": 1}], "abc": [0.98073339, 0.97804578, 0.0849581], "xyz": [6.13934296546389, 7.928812726891979, 3.3182830879201797], "label": "Li", "properties": {}}, {"species": [{"element": "Li", "occu": 1}], "abc": [0.98071719, 0.52195342, 0.08495546], "xyz": [6.139241554257691, 4.231367287675219, 3.318179975122788], "label": "Li", "properties": {}}, {"species": [{"element": "Li", "occu": 1}], "abc": [0.49999761, 0.50000623, 0.25000316], "xyz": [3.12996053871711, 4.053446005307929, 9.764592872893848], "label": "Li", "properties": {}}, {"species": [{"element": "Li", "occu": 1}], "abc": [0.88581809, 0.03218142, 0.30606668], "xyz": [5.54517783831359, 0.26088804602322, 11.954314986091703], "label": "Li", "properties": {}}, {"species": [{"element": "Li", "occu": 1}], "abc": [0.62916583, 0.00045489, 0.47295882], "xyz": [3.9385472666743304, 0.0036876981579899997, 18.472767795992198], "label": "Li", "properties": {}}, {"species": [{"element": "Li", "occu": 1}], "abc": [0.38813267, 0.96386109, 0.36101534], "xyz": [2.42969149569917, 7.813820409662189, 14.100493033645453], "label": "Li", "properties": {}}, {"species": [{"element": "Li", "occu": 1}], "abc": [0.38790801, 0.53616085, 0.36098255], "xyz": [2.4282851351075103, 4.3465439533323496, 14.09921232583239], "label": "Li", "properties": {}}, {"species": [{"element": "Li", "occu": 1}], "abc": [0.62914823, 0.49952879, 0.47296069], "xyz": [3.9384370915367297, 4.04957549901289, 18.472840834223682], "label": "Li", "properties": {}}, {"species": [{"element": "Li", "occu": 1}], "abc": [0.88580269, 0.46782022, 0.3060658], "xyz": [5.54508143506819, 3.79252074911402, 11.95428061515924], "label": "Li", "properties": {}}, {"species": [{"element": "Li", "occu": 1}], "abc": [0.01926464, 0.02196279, 0.41504514], "xyz": [0.12059570243263999, 0.17804774830689, 16.21078235960389], "label": "Li", "properties": {}}, {"species": [{"element": "Li", "occu": 1}], "abc": [0.01925989, 0.47803202, 0.41504655], "xyz": [0.12056596766539002, 3.8753056774478196, 16.21083743121159], "label": "Li", "properties": {}}, {"species": [{"element": "Li", "occu": 1}], "abc": [0.3858219, 0.03217319, 0.69393752], "xyz": [2.4152261887269, 0.26082132713329, 27.103726856995056], "label": "Li", "properties": {}}, {"species": [{"element": "Li", "occu": 1}], "abc": [0.88814317, 0.9638752, 0.63899345], "xyz": [5.55973272518467, 7.8139347964832, 24.95772808510041], "label": "Li", "properties": {}}, {"species": [{"element": "Li", "occu": 1}], "abc": [0.12919977, 0.00051911, 0.52704917], "xyz": [0.8087842294112699, 0.00420831627601, 20.585422076451426], "label": "Li", "properties": {}}, {"species": [{"element": "Li", "occu": 1}], "abc": [0.12921082, 0.49938984, 0.52706549], "xyz": [0.80885340186982, 4.048449060403439, 20.58605950101712], "label": "Li", "properties": {}}, {"species": [{"element": "Li", "occu": 1}], "abc": [0.88814873, 0.53612005, 0.63898812], "xyz": [5.5597675305122305, 4.34621319625955, 24.957519906611736], "label": "Li", "properties": {}}, {"species": [{"element": "Li", "occu": 1}], "abc": [0.38584314, 0.46783786, 0.69393877], "xyz": [2.41535915008614, 3.7926637529072598, 27.10377567934231], "label": "Li", "properties": {}}, {"species": [{"element": "Li", "occu": 1}], "abc": [5.72e-06, 2.99e-06, 0.75000063], "xyz": [3.5806919720000004e-05, 2.423930509e-05, 29.29343295646301], "label": "Li", "properties": {}}, {"species": [{"element": "Li", "occu": 1}], "abc": [0.51914632, 0.02173825, 0.58495959], "xyz": [3.2498305250303203, 0.17622744945575, 22.8472801841581], "label": "Li", "properties": {}}, {"species": [{"element": "Li", "occu": 1}], "abc": [0.51918255, 0.47821964, 0.58495959], "xyz": [3.2500573230550502, 3.87682667357524, 22.8472801841581], "label": "Li", "properties": {}}, {"species": [{"element": "Li", "occu": 1}], "abc": [0.99997441, 0.50000766, 0.75000232], "xyz": [6.25979080785391, 4.053457598019059, 29.293498964276495], "label": "Li", "properties": {}}, {"species": [{"element": "Li", "occu": 1}], "abc": [0.61416592, 0.96783234, 0.80606682], "xyz": [3.84464856506992, 7.846014503420939, 31.483259354194594], "label": "Li", "properties": {}}, {"species": [{"element": "Li", "occu": 1}], "abc": [0.87083231, 0.99953692, 0.97295877], "xyz": [5.451367589816811, 8.10303690722372, 38.00170474309831], "label": "Li", "properties": {}}, {"species": [{"element": "Li", "occu": 1}], "abc": [0.11195933, 0.03615793, 0.86100282], "xyz": [0.70085991979283, 0.29312478150262994, 33.628942929015395], "label": "Li", "properties": {}}, {"species": [{"element": "Li", "occu": 1}], "abc": [0.11208073, 0.4638361, 0.86097927], "xyz": [0.7016198778442301, 3.7602223209550996, 33.6280231159932], "label": "Li", "properties": {}}, {"species": [{"element": "Li", "occu": 1}], "abc": [0.87083094, 0.50045884, 0.97295791], "xyz": [5.45135901368394, 4.057115219982439, 38.0016711533234], "label": "Li", "properties": {}}, {"species": [{"element": "Li", "occu": 1}], "abc": [0.61418831, 0.53216086, 0.80606439], "xyz": [3.8447887253728097, 4.31411687040026, 31.48316444355154], "label": "Li", "properties": {}}, {"species": [{"element": "Li", "occu": 1}], "abc": [0.48073558, 0.97803654, 0.9150433], "xyz": [3.00938117475658, 7.928737820143139, 35.73964939310874], "label": "Li", "properties": {}}, {"species": [{"element": "Li", "occu": 1}], "abc": [0.48074142, 0.52196019, 0.91504179], "xyz": [3.00941773287042, 4.23142217065029, 35.73959041571326], "label": "Li", "properties": {}}, {"species": [{"element": "P", "occu": 1}], "abc": [0.84859648, 0.25003142, 0.22018321], "xyz": [5.31217238357248, 2.02695246537322, 8.599888909791737], "label": "P", "properties": {}}, {"species": [{"element": "P", "occu": 1}], "abc": [0.15132221, 0.74997303, 0.27981956], "xyz": [0.9472696198117101, 6.07987460984673, 10.929158180529768], "label": "P", "properties": {}}, {"species": [{"element": "P", "occu": 1}], "abc": [0.3529347, 0.74998244, 0.11210201], "xyz": [2.2093539281997, 6.07995089475004, 4.378466607714378], "label": "P", "properties": {}}, {"species": [{"element": "P", "occu": 1}], "abc": [0.65501499, 0.249989, 0.0559706], "xyz": [4.100361741665489, 2.026608575299, 2.18609285519268], "label": "P", "properties": {}}, {"species": [{"element": "P", "occu": 1}], "abc": [0.34491132, 0.74996623, 0.44403709], "xyz": [2.15912796254532, 6.079819483667929, 17.3431463998876], "label": "P", "properties": {}}, {"species": [{"element": "P", "occu": 1}], "abc": [0.64700975, 0.24999444, 0.3878964], "xyz": [4.0502493315222505, 2.02665267624204, 15.150410190259919], "label": "P", "properties": {}}, {"species": [{"element": "P", "occu": 1}], "abc": [0.65140893, 0.75008037, 0.72017799], "xyz": [4.07778798276243, 6.08074479279267, 28.128623927669622], "label": "P", "properties": {}}, {"species": [{"element": "P", "occu": 1}], "abc": [0.34861088, 0.2500465, 0.77981736], "xyz": [2.18228702686688, 2.0270747157815, 30.45801115319861], "label": "P", "properties": {}}, {"species": [{"element": "P", "occu": 1}], "abc": [0.14713087, 0.25000087, 0.61212394], "xyz": [0.92103203678737, 2.02670480290817, 23.908262046974535], "label": "P", "properties": {}}, {"species": [{"element": "P", "occu": 1}], "abc": [0.84509364, 0.74999893, 0.55596596], "xyz": [5.29024477681164, 6.080084575733629, 21.714850526639687], "label": "P", "properties": {}}, {"species": [{"element": "P", "occu": 1}], "abc": [0.15501763, 0.2500008, 0.94401485], "xyz": [0.9704027679361299, 2.0267042354328, 36.87121665268533], "label": "P", "properties": {}}, {"species": [{"element": "P", "occu": 1}], "abc": [0.85296493, 0.75000275, 0.88789203], "xyz": [5.33951866651843, 6.08011554367525, 34.679178407333936], "label": "P", "properties": {}}, {"species": [{"element": "S", "occu": 1}], "abc": [0.73221566, 0.46398722, 0.19883086], "xyz": [4.58363415303266, 3.7614474192110197, 7.765911432748908], "label": "S", "properties": {}}, {"species": [{"element": "S", "occu": 1}], "abc": [0.23513514, 0.53789356, 0.13381514], "xyz": [1.47193445477814, 4.360590671165959, 5.226535385909892], "label": "S", "properties": {}}, {"species": [{"element": "S", "occu": 1}], "abc": [0.75914315, 0.46720593, 0.03389336], "xyz": [4.75219892098565, 3.78754082847063, 1.3238027131114078], "label": "S", "properties": {}}, {"species": [{"element": "S", "occu": 1}], "abc": [0.75915493, 0.03276675, 0.03389708], "xyz": [4.75227266320843, 0.26563319399924995, 1.323948008416824], "label": "S", "properties": {}}, {"species": [{"element": "S", "occu": 1}], "abc": [0.23512643, 0.96204745, 0.13382414], "xyz": [1.47187993060493, 7.799117609232949, 5.226886906810092], "label": "S", "properties": {}}, {"species": [{"element": "S", "occu": 1}], "abc": [0.73214276, 0.036101, 0.19882594], "xyz": [4.5831778026047605, 0.292663261891, 7.765719267990132], "label": "S", "properties": {}}, {"species": [{"element": "S", "occu": 1}], "abc": [0.27272491, 0.74998319, 0.22990147], "xyz": [1.70724457307941, 6.07995697484329, 8.979463521300366], "label": "S", "properties": {}}, {"species": [{"element": "S", "occu": 1}], "abc": [0.727227, 0.25000287, 0.27010159], "xyz": [4.552405385877, 2.02672101649017, 10.549594895805702], "label": "S", "properties": {}}, {"species": [{"element": "S", "occu": 1}], "abc": [0.79350118, 0.24999744, 0.10459388], "xyz": [4.96727850524218, 2.02667699661504, 4.085214983667864], "label": "S", "properties": {}}, {"species": [{"element": "S", "occu": 1}], "abc": [0.23584191, 0.75000261, 0.06178757], "xyz": [1.4763588003464099, 6.080114408724509, 2.413291358618946], "label": "S", "properties": {}}, {"species": [{"element": "S", "occu": 1}], "abc": [0.17406242, 0.24999351, 0.21637151], "xyz": [1.08962222014142, 2.02664513692641, 8.451011996981478], "label": "S", "properties": {}}, {"species": [{"element": "S", "occu": 1}], "abc": [0.679652, 0.74999331, 0.11723634], "xyz": [4.254588217052, 6.08003901556821, 4.579002641439252], "label": "S", "properties": {}}, {"species": [{"element": "S", "occu": 1}], "abc": [0.33038228, 0.24998667, 0.05780225], "xyz": [2.0681768840682797, 2.02658968647597, 2.25763321706505], "label": "S", "properties": {}}, {"species": [{"element": "S", "occu": 1}], "abc": [0.26767283, 0.53598787, 0.30117352], "xyz": [1.6756187998313299, 4.34514164062517, 11.763198540755855], "label": "S", "properties": {}}, {"species": [{"element": "S", "occu": 1}], "abc": [0.24073459, 0.53277931, 0.4661223], "xyz": [1.50698673740509, 4.319130515294209, 18.20574783325494], "label": "S", "properties": {}}, {"species": [{"element": "S", "occu": 1}], "abc": [0.76481987, 0.46207337, 0.36618373], "xyz": [4.78773491002637, 3.7459322372556696, 14.302359378688193], "label": "S", "properties": {}}, {"species": [{"element": "S", "occu": 1}], "abc": [0.76482635, 0.03789482, 0.36618638], "xyz": [4.78777547450885, 0.30720538572262, 14.302462882064363], "label": "S", "properties": {}}, {"species": [{"element": "S", "occu": 1}], "abc": [0.24079247, 0.96720759, 0.46610323], "xyz": [1.5073490633689701, 7.84094978574369, 18.205002999525295], "label": "S", "properties": {}}, {"species": [{"element": "S", "occu": 1}], "abc": [0.26774293, 0.96388713, 0.30117933], "xyz": [1.6760576223964299, 7.81403151049983, 11.763425467025876], "label": "S", "properties": {}}, {"species": [{"element": "S", "occu": 1}], "abc": [0.76405251, 0.24999441, 0.43821289], "xyz": [4.78293127402701, 2.02665243303831, 17.11566550800484], "label": "S", "properties": {}}, {"species": [{"element": "S", "occu": 1}], "abc": [0.20648017, 0.74997832, 0.39541315], "xyz": [1.29255574667167, 6.079917494771119, 15.44399849321307], "label": "S", "properties": {}}, {"species": [{"element": "S", "occu": 1}], "abc": [0.82584775, 0.75000059, 0.28361907], "xyz": [5.16976644846025, 6.080098033006689, 11.077558977809645], "label": "S", "properties": {}}, {"species": [{"element": "S", "occu": 1}], "abc": [0.6695291, 0.74997616, 0.44219577], "xyz": [4.1912193590741, 6.07989998410256, 17.271228348336905], "label": "S", "properties": {}}, {"species": [{"element": "S", "occu": 1}], "abc": [0.32029887, 0.2499884, 0.38275588], "xyz": [2.00505523155537, 2.0266037112244, 14.949632388271464], "label": "S", "properties": {}}, {"species": [{"element": "S", "occu": 1}], "abc": [0.7678206, 0.53613225, 0.69882356], "xyz": [4.8065193327906, 4.34631209910975, 27.294565210240968], "label": "S", "properties": {}}, {"species": [{"element": "S", "occu": 1}], "abc": [0.26488902, 0.46212717, 0.63382984], "xyz": [1.6581922856380198, 3.7463683826114695, 24.756048436713552], "label": "S", "properties": {}}, {"species": [{"element": "S", "occu": 1}], "abc": [0.74091112, 0.53277158, 0.53390293], "xyz": [4.63806730655512, 4.31906784979978, 20.853115397001954], "label": "S", "properties": {}}, {"species": [{"element": "S", "occu": 1}], "abc": [0.74090714, 0.96721491, 0.53390083], "xyz": [4.63804239195014, 7.84100912745381, 20.853033375458573], "label": "S", "properties": {}}, {"species": [{"element": "S", "occu": 1}], "abc": [0.26487021, 0.03790326, 0.63384533], "xyz": [1.65807453595971, 0.30727380703866, 24.756653443240673], "label": "S", "properties": {}}, {"species": [{"element": "S", "occu": 1}], "abc": [0.76773567, 0.96406917, 0.69882956], "xyz": [4.80598767515217, 7.81550727073347, 27.294799557507766], "label": "S", "properties": {}}, {"species": [{"element": "S", "occu": 1}], "abc": [0.22724479, 0.25002053, 0.72989736], "xyz": [1.4225412504052901, 2.02686418241923, 28.50824189342261], "label": "S", "properties": {}}, {"species": [{"element": "S", "occu": 1}], "abc": [0.77277774, 0.75001946, 0.77010053], "xyz": [4.83755078629074, 6.080251008152859, 30.078492394455235], "label": "S", "properties": {}}, {"species": [{"element": "S", "occu": 1}], "abc": [0.70669398, 0.74999807, 0.60459309], "xyz": [4.423869686794981, 6.080077603893369, 23.614123027944405], "label": "S", "properties": {}}, {"species": [{"element": "S", "occu": 1}], "abc": [0.26449537, 0.24992971, 0.56182463], "xyz": [1.6557280559268701, 2.02612792366061, 21.943677743570216], "label": "S", "properties": {}}, {"species": [{"element": "S", "occu": 1}], "abc": [0.32593117, 0.75000705, 0.71637265], "xyz": [2.04031315357267, 6.08015040287655, 27.979995422962173], "label": "S", "properties": {}}, {"species": [{"element": "S", "occu": 1}], "abc": [0.82041765, 0.24999812, 0.61724115], "xyz": [5.13577428853515, 2.02668250923292, 24.10812940983147], "label": "S", "properties": {}}, {"species": [{"element": "S", "occu": 1}], "abc": [0.16974518, 0.74999696, 0.5577496], "xyz": [1.06259650928618, 6.08006860535536, 21.78451571979888], "label": "S", "properties": {}}, {"species": [{"element": "S", "occu": 1}], "abc": [0.23226629, 0.46401816, 0.80116992], "xyz": [1.45397559435179, 3.76169824332456, 31.291996832395775], "label": "S", "properties": {}}, {"species": [{"element": "S", "occu": 1}], "abc": [0.25915737, 0.46720895, 0.96609647], "xyz": [1.62231243748887, 3.78756531097945, 37.733677868271364], "label": "S", "properties": {}}, {"species": [{"element": "S", "occu": 1}], "abc": [0.73517125, 0.53793132, 0.86617404], "xyz": [4.60213600160875, 4.36089678359412, 33.83091980785231], "label": "S", "properties": {}}, {"species": [{"element": "S", "occu": 1}], "abc": [0.73515645, 0.96209696, 0.86618417], "xyz": [4.60204335433395, 7.799518976455359, 33.83131546415443], "label": "S", "properties": {}}, {"species": [{"element": "S", "occu": 1}], "abc": [0.25916276, 0.03278984, 0.96609585], "xyz": [1.62234617862476, 0.26582037980344, 37.733653652387126], "label": "S", "properties": {}}, {"species": [{"element": "S", "occu": 1}], "abc": [0.23216094, 0.03610293, 0.80117547], "xyz": [1.45331610851394, 0.29267890799762997, 31.292213603617565], "label": "S", "properties": {}}, {"species": [{"element": "S", "occu": 1}], "abc": [0.73590264, 0.74999321, 0.93820849], "xyz": [4.60671446717064, 6.080038204889109, 36.64443255334252], "label": "S", "properties": {}}, {"species": [{"element": "S", "occu": 1}], "abc": [0.29347477, 0.25000329, 0.89538749], "xyz": [1.83713767993627, 2.0267244213423896, 34.97193516806872], "label": "S", "properties": {}}, {"species": [{"element": "S", "occu": 1}], "abc": [0.67408557, 0.25000418, 0.78362408], "xyz": [4.21974263800707, 2.02673163638638, 30.606693557777422], "label": "S", "properties": {}}, {"species": [{"element": "S", "occu": 1}], "abc": [0.83039971, 0.24999959, 0.94218847], "xyz": [5.1982614950142105, 2.02669442621569, 36.799882125828965], "label": "S", "properties": {}}, {"species": [{"element": "S", "occu": 1}], "abc": [0.17967559, 0.7500013, 0.88275692], "xyz": [1.12476038929609, 6.0801037888283, 34.47861190846437], "label": "S", "properties": {}}]}, "formula": "(Li3PS4)12.0", "bandgap": 2.6353}