{"miller": "001_0.08", "final_energy": -501.47661386, "gamma": 0.03048980988850926, "work_function": "Not calculated", "ionization_potentail": "Not calculated", "electron_affinity": "Not calculated", "is_stochiometric": true, "incar_parameters": {"SYSTEM": "unknown system", "LCOMPAT": false, "PREC": "normal", "ENMAX": 520.0, "ENAUG": 628.945, "EDIFF": 1e-05, "IALGO": 38, "IWAVPR": 11, "NBANDS": 231, "NBANDSLOW": -1, "NBANDSHIGH": -1, "NELECT": 380.0, "TURBO": 0, "IRESTART": 0, "NREBOOT": 0, "NMIN": 0, "EREF": 0.0, "ISMEAR": 0, "SIGMA": 0.05, "KSPACING": 0.5, "KGAMMA": true, "KBLOWUP": true, "LREAL": true, "ROPT": [-0.0005, -0.0005, -0.0005], "LMAXPAW": -100, "LMAXMIX": 2, "NLSPLINE": false, "ISTART": 0, "ICHARG": 2, "INIWAV": 1, "ISPIN": 1, "LNONCOLLINEAR": false, "MAGMOM": [0.6, 0.6, 0.6, 0.6, 0.6, 0.6, 0.6, 0.6, 0.6, 0.6, 0.6, 0.6, 0.6, 0.6, 0.6, 0.6, 0.6, 0.6, 0.6, 0.6, 0.6, 0.6, 0.6, 0.6, 0.6, 0.6, 0.6, 0.6, 0.6, 0.6, 0.6, 0.6, 0.6, 0.6, 0.6, 0.6, 0.6, 0.6, 0.6, 0.6, 0.6, 0.6, 0.6, 0.6, 0.6, 0.6, 0.6, 0.6, 0.6, 0.6, 0.6, 0.6, 0.6, 0.6, 0.6, 0.6, 0.6, 0.6, 0.6, 0.6, 0.6, 0.6, 0.6, 0.6, 0.6, 0.6, 0.6, 0.6, 0.6, 0.6, 0.6, 0.6, 0.6, 0.6, 0.6, 0.6, 0.6, 0.6, 0.6, 0.6], "NUPDOWN": -1.0, "LSORBIT": false, "SAXIS": [0.0, 0.0, 1.0], "LSPIRAL": false, "QSPIRAL": [0.0, 0.0, 0.0], "LZEROZ": false, "LASPH": false, "LMETAGGA": false, "NELM": 100, "NELMDL": -5, "NELMIN": 6, "ENINI": 520.0, "LDIAG": true, "LSUBROT": false, "WEIMIN": 0.001, "EBREAK": 1e-08, "DEPER": 0.3, "NRMM": 4, "TIME": 0.4, "AMIX": 0.4, "BMIX": 1.0, "AMIN": 0.1, "AMIX_MAG": 1.6, "BMIX_MAG": 1.0, "IMIX": 4, "MIXFIRST": false, "MAXMIX": -45, "WC": 100.0, "INIMIX": 1, "MIXPRE": 1, "MREMOVE": 5, "LDIPOL": false, "LMONO": false, "IDIPOL": 0, "EPSILON": 1.0, "DIPOL": [-100.0, -100.0, -100.0], "EFIELD": 0.0, "NGX": 28, "NGY": 36, "NGZ": 294, "NGXF": 56, "NGYF": 72, "NGZF": 588, "ADDGRID": false, "NSW": 150, "IBRION": 2, "MDALGO": 0, "ISIF": 2, "PSTRESS": 0.0, "EDIFFG": -0.01, "NFREE": 1, "POTIM": 0.5, "SMASS": -3.0, "SCALEE": 1.0, "TEBEG": 0.0001, "TEEND": 0.0001, "NBLOCK": 1, "KBLOCK": 150, "NPACO": 256, "APACO": 10.0, "ISYM": 0, "SYMPREC": 1e-05, "LORBIT": 11, "RWIGS": [-1.0, -1.0, -1.0], "NEDOS": 301, "EMIN": 10.0, "EMAX": -10.0, "EFERMI": 0.0, "NWRITE": 2, "LWAVE": false, "LDOWNSAMPLE": false, "LCHARG": false, "LPARD": false, "LVTOT": false, "LVHAR": false, "LELF": false, "LOPTICS": false, "STM": [0.0, 0.0, 0.0, 0.0, 0.0, 0.0, 0.0], "NPAR": 1, "NSIM": 4, "NBLK": -1, "LPLANE": true, "LSCALAPACK": true, "LSCAAWARE": false, "LSCALU": false, "LASYNC": false, "LORBITALREAL": false, "IDIOT": 3, "PHON_NSTRUCT": -1, "LMUSIC": false, "POMASS": [7.01, 30.974, 16.0], "DARWINR": [0.0, 0.0, 0.0], "DARWINV": [1.0, 1.0, 1.0], "LCORR": true, "GGA_COMPAT": true, "LBERRY": false, "ICORELEVEL": 0, "LDAU": false, "I_CONSTRAINED_M": 0, "GGA": "--", "VOSKOWN": 0, "LHFCALC": false, "PRECFOCK": "", "LSYMGRAD": false, "LHFONE": false, "LRHFCALC": false, "LTHOMAS": false, "LMODELHF": false, "LFOCKACE": false, "ENCUT4O": -1.0, "EXXOEP": 0, "FOURORBIT": 0, "AEXX": 0.0, "HFALPHA": 0.0, "MCALPHA": 0.0, "ALDAX": 1.0, "AGGAX": 1.0, "ALDAC": 1.0, "AGGAC": 1.0, "NKREDX": 1, "NKREDY": 1, "NKREDZ": 1, "SHIFTRED": false, "ODDONLY": false, "EVENONLY": false, "LMAXFOCK": 0, "NMAXFOCKAE": 0, "LFOCKAEDFT": false, "HFSCREEN": 0.0, "HFSCREENC": 0.0, "NBANDSGWLOW": 0, "LUSE_VDW": false, "Zab_VDW": -0.8491, "PARAM1": 0.1234, "PARAM2": 1.0, "PARAM3": 0.0, "MODEL_GW": 0, "MODEL_EPS0": 12.11948311, "MODEL_ALPHA": 1.0, "LEPSILON": false, "LRPA": false, "LNABLA": false, "LVEL": false, "CSHIFT": 0.1, "OMEGAMAX": -1.0, "DEG_THRESHOLD": 0.002, "RTIME": -0.1, "WPLASMAI": 0.0, "DFIELD": [0.0, 0.0, 0.0], "WPLASMA": [0.0, 0.0, 0.0, 0.0, 0.0, 0.0, 0.0, 0.0, 0.0], "NUCIND": false, "MAGPOS": [0.0, 0.0, 0.0], "LNICSALL": true, "ORBITALMAG": false, "LMAGBLOCH": false, "LCHIMAG": false, "LGAUGE": true, "MAGATOM": 0, "MAGDIPOL": [0.0, 0.0, 0.0], "AVECCONST": [0.0, 0.0, 0.0], "LFINITE_TEMPERATURE": false, "LADDER": false, "LRPAFORCE": false, "LFXC": false, "LHARTREE": true, "IBSE": 0, "KPOINT": [-1, 0, 0, 0], "LTCTC": false, "LTCTE": false, "LTETE": false, "LTRIPLET": false, "LFXCEPS": false, "LFXHEG": false, "NATURALO": 2, "LHOLEGF": false, "L2ORDER": false, "LDMP1": false, "LMP2LT": false, "LSMP2LT": false, "LGWLF": false, "ENCUTGW": -2.0, "ENCUTGWSOFT": -2.0, "ENCUTLF": -1.0, "LESF_SPLINES": false, "LMAXMP2": -1, "SCISSOR": 0.0, "NOMEGA": 0, "NOMEGAR": 0, "NBANDSGW": -1, "NBANDSO": -1, "NBANDSV": -1, "NELMGW": 1, "NELMHF": 1, "DIM": 3, "IESPILON": 4, "ANTIRES": 0, "OMEGAMIN": -30.0, "OMEGATL": -200.0, "OMEGAGRID": 0, "LSELFENERGY": false, "LSPECTRAL": false, "LSPECTRALGW": false, "LSINGLES": false, "LFERMIGW": false, "ODDONLYGW": false, "EVENONLYGW": false, "NKREDLFX": 1, "NKREDLFY": 1, "NKREDLFZ": 1, "MAXMEM": 2800, "TELESCOPE": 0, "NTAUPAR": -1, "NOMEGAPAR": -1, "DAMP_NEWTON": 0.80000001, "LAMBDA": 1.0, "OFIELD_KAPPA": 0.0, "OFIELD_K": [0.0, 0.0, 0.0], "OFIELD_Q6_NEAR": 0.0, "OFIELD_Q6_FAR": 0.0, "OFIELD_A": 0.0, "KPOINTS_OPT_MODE": 1, "LKPOINTS_OPT": false, "@module": "pymatgen.io.vasp.inputs", "@class": "Incar"}, "relaxed_structures": {"@module": "pymatgen.core.structure", "@class": "Structure", "charge": 0, "lattice": {"matrix": [[4.977846, 0.0, 0.0], [0.0, 6.151192, 0.0], [0.0, 0.0, 52.774253]], "a": 4.977846, "b": 6.151192, "c": 52.774253, "alpha": 90.0, "beta": 90.0, "gamma": 90.0, "volume": 1615.9310817322892}, "sites": [{"species": [{"element": "Li", "occu": 1}], "abc": [0.80356424, 0.49900371, 0.09872587], "xyz": [4.00001903782704, 3.06946762892232, 5.2101840410251095], "label": "Li", "properties": {}}, {"species": [{"element": "Li", "occu": 1}], "abc": [0.30262883, 0.50096245, 0.06388462], "xyz": [1.5064397109001801, 3.0815162147404, 3.37146309868886], "label": "Li", "properties": {}}, {"species": [{"element": "Li", "occu": 1}], "abc": [0.6750834, 0.48863429, 0.002317690000000004], "xyz": [3.3604612023564004, 3.0056833355736803, 0.12231435843557023], "label": "Li", "properties": {}}, {"species": [{"element": "Li", "occu": 1}], "abc": [0.67508074, 0.0113659, 0.002317800000000002], "xyz": [3.3604479612860403, 0.0699138331528, 0.1223201636034001], "label": "Li", "properties": {}}, {"species": [{"element": "Li", "occu": 1}], "abc": [0.30262877, 0.99903692, 0.06388457], "xyz": [1.50643941222942, 6.14526791000864, 3.3714604599762104], "label": "Li", "properties": {}}, {"species": [{"element": "Li", "occu": 1}], "abc": [0.80356332, 0.00099847, 0.09872592999999999], "xyz": [4.00001445820872, 0.00614178067624, 5.210187207480289], "label": "Li", "properties": {}}, {"species": [{"element": "Li", "occu": 1}], "abc": [0.20393715, 0.75000016, 0.11679387], "xyz": [1.0151677263789, 4.6133949841907205, 6.16370924422911], "label": "Li", "properties": {}}, {"species": [{"element": "Li", "occu": 1}], "abc": [0.8003294, 0.25000034, 0.14644811], "xyz": [3.9839165024724004, 1.5378000914052798, 7.7286896085118295], "label": "Li", "properties": {}}, {"species": [{"element": "Li", "occu": 1}], "abc": [0.70864519, 0.25000054, 0.047149210000000004], "xyz": [3.5275266244607404, 1.5378013216436799, 2.48826433729013], "label": "Li", "properties": {}}, {"species": [{"element": "Li", "occu": 1}], "abc": [0.27523736, 0.74999631, 0.0148743], "xyz": [1.37008919152656, 4.61337130210152, 0.7849800713979], "label": "Li", "properties": {}}, {"species": [{"element": "Li", "occu": 1}], "abc": [0.80069429, 0.49828981, 0.29962434], "xyz": [3.9857328686993405, 3.06507629295352, 15.81245072411802], "label": "Li", "properties": {}}, {"species": [{"element": "Li", "occu": 1}], "abc": [0.20212552, 0.50077274, 0.16453907], "xyz": [1.00614971122992, 3.0803492721060803, 8.683426508564711], "label": "Li", "properties": {}}, {"species": [{"element": "Li", "occu": 1}], "abc": [0.3029661, 0.50211444, 0.26503598], "xyz": [1.5081185890206001, 3.0886023264124804, 13.987075862622941], "label": "Li", "properties": {}}, {"species": [{"element": "Li", "occu": 1}], "abc": [0.70036863, 0.4982484, 0.19920406000000002], "xyz": [3.4863271833709804, 3.0648215720928, 10.512845461067181], "label": "Li", "properties": {}}, {"species": [{"element": "Li", "occu": 1}], "abc": [0.70036857, 0.00175231, 0.19920399], "xyz": [3.4863268847002202, 0.01077879525352, 10.512841766869471], "label": "Li", "properties": {}}, {"species": [{"element": "Li", "occu": 1}], "abc": [0.30296595, 0.99788619, 0.2650361], "xyz": [1.5081178423437, 6.13818954883848, 13.9870821955333], "label": "Li", "properties": {}}, {"species": [{"element": "Li", "occu": 1}], "abc": [0.20212541, 0.99922638, 0.16453918], "xyz": [1.00614916366686, 6.14643331484496, 8.68343231373254], "label": "Li", "properties": {}}, {"species": [{"element": "Li", "occu": 1}], "abc": [0.80069487, 0.00171054, 0.2996246], "xyz": [3.98573575585002, 0.01052185996368, 15.812464445423801], "label": "Li", "properties": {}}, {"species": [{"element": "Li", "occu": 1}], "abc": [0.2012423, 0.75000004, 0.31784011], "xyz": [1.0017531780858002, 4.61339424604768, 16.773774378687833], "label": "Li", "properties": {}}, {"species": [{"element": "Li", "occu": 1}], "abc": [0.79588223, 0.24999999, 0.34756994], "xyz": [3.9617791750765803, 1.53779793848808, 18.342743948754823], "label": "Li", "properties": {}}, {"species": [{"element": "Li", "occu": 1}], "abc": [0.70265776, 0.25000013, 0.24695823], "xyz": [3.49772211998496, 1.53779879965496, 13.03303611045219], "label": "Li", "properties": {}}, {"species": [{"element": "Li", "occu": 1}], "abc": [0.30080384, 0.75000015, 0.21703582999999999], "xyz": [1.49735519172864, 4.6133949226788, 11.453903802484989], "label": "Li", "properties": {}}, {"species": [{"element": "Li", "occu": 1}], "abc": [0.19386345, 0.50133169, 0.36555601], "xyz": [0.9650223991287, 3.08378748087448, 19.29194535741053], "label": "Li", "properties": {}}, {"species": [{"element": "Li", "occu": 1}], "abc": [0.3225155, 0.51075734, 0.46190490999999995], "xyz": [1.6054324916130003, 3.1417664637492795, 24.37668658228223], "label": "Li", "properties": {}}, {"species": [{"element": "Li", "occu": 1}], "abc": [0.69647992, 0.49902635, 0.40034859], "xyz": [3.4669697838523206, 3.0696068919092, 21.12809777685327], "label": "Li", "properties": {}}, {"species": [{"element": "Li", "occu": 1}], "abc": [0.69647948, 0.00097412, 0.40034868], "xyz": [3.4669675936000806, 0.0059919991510399995, 21.12810252653604], "label": "Li", "properties": {}}, {"species": [{"element": "Li", "occu": 1}], "abc": [0.32251547, 0.98924337, 0.46190486000000003], "xyz": [1.6054323422776202, 6.08502590359704, 24.37668394356958], "label": "Li", "properties": {}}, {"species": [{"element": "Li", "occu": 1}], "abc": [0.19386352, 0.99866847, 0.36555607], "xyz": [0.9650227475779202, 6.14300150331624, 19.29194852386571], "label": "Li", "properties": {}}, {"species": [{"element": "Li", "occu": 1}], "abc": [0.72524245, 0.25000033, 0.4492498], "xyz": [3.6101452287627, 1.5378000298933598, 23.708822605399398], "label": "Li", "properties": {}}, {"species": [{"element": "Li", "occu": 1}], "abc": [0.29252169, 0.75000011, 0.41708959], "xyz": [1.45612792447974, 4.61339467663112, 22.011591546326272], "label": "Li", "properties": {}}, {"species": [{"element": "P", "occu": 1}], "abc": [0.30811696, 0.2499988, 0.11372568], "xyz": [1.5337587768681602, 1.5377906185696, 6.00178780891704], "label": "P", "properties": {}}, {"species": [{"element": "P", "occu": 1}], "abc": [0.80940471, 0.75000082, 0.04911255], "xyz": [4.0290919980546605, 4.61339904397744, 2.59187813917515], "label": "P", "properties": {}}, {"species": [{"element": "P", "occu": 1}], "abc": [0.19395492, 0.2499963, 0.01339052000000001], "xyz": [0.9654777227023201, 1.5377752405896001, 0.7066746902815605], "label": "P", "properties": {}}, {"species": [{"element": "P", "occu": 1}], "abc": [0.30492115, 0.25000043, 0.31476492], "xyz": [1.5178505268429, 1.5378006450125599, 16.61148352360476], "label": "P", "properties": {}}, {"species": [{"element": "P", "occu": 1}], "abc": [0.69554231, 0.75000082, 0.14950077], "xyz": [3.4623025056642605, 4.61339904397744, 7.889791459674811], "label": "P", "properties": {}}, {"species": [{"element": "P", "occu": 1}], "abc": [0.80787328, 0.75000027, 0.24985163], "xyz": [4.02146877535488, 4.6133956608218405, 13.18573313408239], "label": "P", "properties": {}}, {"species": [{"element": "P", "occu": 1}], "abc": [0.19478079, 0.2500039, 0.21429784000000002], "xyz": [0.9695887763783402, 1.5378219896488, 11.30940842551352], "label": "P", "properties": {}}, {"species": [{"element": "P", "occu": 1}], "abc": [0.69094532, 0.74999796, 0.35047589], "xyz": [3.4394193973807203, 4.61338145156832, 18.496103289260173], "label": "P", "properties": {}}, {"species": [{"element": "P", "occu": 1}], "abc": [0.80411199, 0.75000061, 0.45070059999999995], "xyz": [4.00274565297354, 4.61339775222712, 23.785387491651797], "label": "P", "properties": {}}, {"species": [{"element": "P", "occu": 1}], "abc": [0.18940634, 0.25000055, 0.41508517], "xyz": [0.9428355919436401, 1.5378013831555999, 21.90580977812801], "label": "P", "properties": {}}, {"species": [{"element": "O", "occu": 1}], "abc": [0.20503539, 0.45717814, 0.09971716], "xyz": [1.02063459596994, 2.8121905173428803, 5.26249863028148], "label": "O", "properties": {}}, {"species": [{"element": "O", "occu": 1}], "abc": [0.70452147, 0.54315708, 0.06300873000000001], "xyz": [3.50699938135362, 3.34106348523936, 3.325238658228691], "label": "O", "properties": {}}, {"species": [{"element": "O", "occu": 1}], "abc": [0.29662643, 0.45847741, 0.00010000000000000286], "xyz": [1.4765606880697801, 2.8201825765727198, 0.005277425300000151], "label": "O", "properties": {}}, {"species": [{"element": "O", "occu": 1}], "abc": [0.29661224, 0.04150467, 0.0001010999999999998], "xyz": [1.4764900524350402, 0.25530319406664, 0.00533547697829999], "label": "O", "properties": {}}, {"species": [{"element": "O", "occu": 1}], "abc": [0.70452347, 0.95684413, 0.06300849], "xyz": [3.5070093370456203, 5.88573195770296, 3.32522599240797], "label": "O", "properties": {}}, {"species": [{"element": "O", "occu": 1}], "abc": [0.20504612, 0.04282436, 0.09971696999999999], "xyz": [1.02068800825752, 0.26342086063712, 5.262488603173409], "label": "O", "properties": {}}, {"species": [{"element": "O", "occu": 1}], "abc": [0.79903571, 0.75000107, 0.12168212], "xyz": [3.97747671288066, 4.613400581775441, 6.421682986456361], "label": "O", "properties": {}}, {"species": [{"element": "O", "occu": 1}], "abc": [0.20479378, 0.24999564, 0.1415527], "xyz": [1.01943189859788, 1.53777118080288, 7.470338002633101], "label": "O", "properties": {}}, {"species": [{"element": "O", "occu": 1}], "abc": [0.29218101, 0.2499994, 0.04165039], "xyz": [1.45443207190446, 1.5377943092848, 2.19806821940867], "label": "O", "properties": {}}, {"species": [{"element": "O", "occu": 1}], "abc": [0.70862306, 0.74999992, 0.02109015000000001], "xyz": [3.52741646472876, 4.61339350790464, 1.1130169119079505], "label": "O", "properties": {}}, {"species": [{"element": "O", "occu": 1}], "abc": [0.62187275, 0.24999968, 0.11353795], "xyz": [3.0955867810965003, 1.53779603161856, 5.9918804984013505], "label": "O", "properties": {}}, {"species": [{"element": "O", "occu": 1}], "abc": [0.12194745, 0.74999962, 0.04933826], "xyz": [0.6070356261927, 4.6133916625470395, 2.60378981581978], "label": "O", "properties": {}}, {"species": [{"element": "O", "occu": 1}], "abc": [0.87763404, 0.25000156, 0.01335026000000001], "xyz": [4.3687270954778405, 1.53780759585952, 0.7045499988557805], "label": "O", "properties": {}}, {"species": [{"element": "O", "occu": 1}], "abc": [0.20227731, 0.4571309, 0.30069036], "xyz": [1.0069052984742601, 2.8118999350328, 15.86870913330108], "label": "O", "properties": {}}, {"species": [{"element": "O", "occu": 1}], "abc": [0.79835842, 0.5428271, 0.16353216], "xyz": [3.9741052675633206, 3.3390337149032, 8.63028758547648], "label": "O", "properties": {}}, {"species": [{"element": "O", "occu": 1}], "abc": [0.70477845, 0.54306148, 0.26393372], "xyz": [3.5082785882187, 3.34047543128416, 13.92890491451116], "label": "O", "properties": {}}, {"species": [{"element": "O", "occu": 1}], "abc": [0.29780959, 0.45690735, 0.20021451], "xyz": [1.4824502763431402, 2.8105248360612, 10.566171205011031], "label": "O", "properties": {}}, {"species": [{"element": "O", "occu": 1}], "abc": [0.29780895, 0.04309299, 0.20021462], "xyz": [1.4824470905217002, 0.26507325534408, 10.56617701017886], "label": "O", "properties": {}}, {"species": [{"element": "O", "occu": 1}], "abc": [0.70477925, 0.95693293, 0.26393527], "xyz": [3.5082825704955, 5.88627818355256, 13.92898671460331], "label": "O", "properties": {}}, {"species": [{"element": "O", "occu": 1}], "abc": [0.79835674, 0.95717504, 0.16353204], "xyz": [3.9740969047820403, 5.88776744864768, 8.63028125256612], "label": "O", "properties": {}}, {"species": [{"element": "O", "occu": 1}], "abc": [0.20227747, 0.04286908, 0.30069053], "xyz": [1.00690609492962, 0.26369594194336, 15.868718104924092], "label": "O", "properties": {}}, {"species": [{"element": "O", "occu": 1}], "abc": [0.79437349, 0.75000461, 0.32265626], "xyz": [3.9542688997025404, 4.61342235699512, 17.02794309727378], "label": "O", "properties": {}}, {"species": [{"element": "O", "occu": 1}], "abc": [0.20051934, 0.25000042, 0.34255483], "xyz": [0.99815439454164, 1.53780058350064, 18.078075264791988], "label": "O", "properties": {}}, {"species": [{"element": "O", "occu": 1}], "abc": [0.29828592, 0.25000037, 0.24209445000000002], "xyz": [1.48482137372832, 1.53780027594104, 12.776353754195851], "label": "O", "properties": {}}, {"species": [{"element": "O", "occu": 1}], "abc": [0.70392861, 0.75000514, 0.22205576999999999], "xyz": [3.50404821557406, 4.61342561712688, 11.71882738608981], "label": "O", "properties": {}}, {"species": [{"element": "O", "occu": 1}], "abc": [0.61842916, 0.25000073, 0.31465442], "xyz": [3.0784451203893606, 1.53780249037016, 16.60565196864826], "label": "O", "properties": {}}, {"species": [{"element": "O", "occu": 1}], "abc": [0.38194559, 0.75000006, 0.14966767], "xyz": [1.9012663273991401, 4.61339436907152, 7.898599482500511], "label": "O", "properties": {}}, {"species": [{"element": "O", "occu": 1}], "abc": [0.12141268, 0.7500023, 0.24996189000000002], "xyz": [0.6043736234872801, 4.6134081477416, 13.191552023218172], "label": "O", "properties": {}}, {"species": [{"element": "O", "occu": 1}], "abc": [0.88120337, 0.25000062, 0.21414968], "xyz": [4.386494670541021, 1.5378018137390401, 11.30158939218904], "label": "O", "properties": {}}, {"species": [{"element": "O", "occu": 1}], "abc": [0.79393961, 0.54285486, 0.36450504], "xyz": [3.9521091118800604, 3.33920447199312, 19.23648120073512], "label": "O", "properties": {}}, {"species": [{"element": "O", "occu": 1}], "abc": [0.70063791, 0.54150642, 0.46393897999999995], "xyz": [3.48766761774186, 3.33090995865264, 24.484033107081938], "label": "O", "properties": {}}, {"species": [{"element": "O", "occu": 1}], "abc": [0.29478741, 0.45685199, 0.40124064], "xyz": [1.4674063297188602, 2.8101843060720797, 21.17517504924192], "label": "O", "properties": {}}, {"species": [{"element": "O", "occu": 1}], "abc": [0.2947868, 0.04314843, 0.40124076999999997], "xyz": [1.4674032932328003, 0.26541427742856, 21.17518190989481], "label": "O", "properties": {}}, {"species": [{"element": "O", "occu": 1}], "abc": [0.70063791, 0.95849516, 0.46393893999999997], "xyz": [3.48766761774186, 5.89588776023072, 24.48403099611182], "label": "O", "properties": {}}, {"species": [{"element": "O", "occu": 1}], "abc": [0.79395012, 0.95714374, 0.36450478], "xyz": [3.9521614290415203, 5.88757491633808, 19.23646747942934], "label": "O", "properties": {}}, {"species": [{"element": "O", "occu": 1}], "abc": [0.28862367, 0.25000099, 0.44314404], "xyz": [1.4367241812148202, 1.5378040896800798, 23.38659568240212], "label": "O", "properties": {}}, {"species": [{"element": "O", "occu": 1}], "abc": [0.7069915, 0.75000045, 0.42240474], "xyz": [3.5192948103090003, 4.6133967680364005, 22.292094617159222], "label": "O", "properties": {}}, {"species": [{"element": "O", "occu": 1}], "abc": [0.37725528, 0.75000013, 0.35071259], "xyz": [1.8779186865268802, 4.61339479965496, 18.50859495494527], "label": "O", "properties": {}}, {"species": [{"element": "O", "occu": 1}], "abc": [0.1203568, 0.7500007, 0.45087645000000004], "xyz": [0.5991176154528001, 4.6133983058344, 23.794667844041854], "label": "O", "properties": {}}, {"species": [{"element": "O", "occu": 1}], "abc": [0.8769026, 0.25000088, 0.41477784], "xyz": [4.3650860997996, 1.53780341304896, 21.88959066695352], "label": "O", "properties": {}}]}, "formula": "(Li3PO4)10.0", "bandgap": 4.916, "slab_thickness": 24.478755681781937}