{"miller": "011_0.14", "final_energy": -900.65182214, "gamma": 0.04412804048565276, "work_function": "Not calculated", "ionization_potentail": "Not calculated", "electron_affinity": "Not calculated", "is_stochiometric": true, "incar_parameters": {"SYSTEM": "unknown system", "LCOMPAT": false, "PREC": "normal", "ENMAX": 520.0, "ENAUG": 628.945, "EDIFF": 1e-05, "IALGO": 38, "IWAVPR": 11, "NBANDS": 416, "NBANDSLOW": -1, "NBANDSHIGH": -1, "NELECT": 684.0, "TURBO": 0, "IRESTART": 0, "NREBOOT": 0, "NMIN": 0, "EREF": 0.0, "ISMEAR": 0, "SIGMA": 0.05, "KSPACING": 0.5, "KGAMMA": true, "KBLOWUP": true, "LREAL": true, "ROPT": [-0.0005, -0.0005, -0.0005], "LMAXPAW": -100, "LMAXMIX": 2, "NLSPLINE": false, "ISTART": 0, "ICHARG": 2, "INIWAV": 1, "ISPIN": 1, "LNONCOLLINEAR": false, "MAGMOM": [0.6, 0.6, 0.6, 0.6, 0.6, 0.6, 0.6, 0.6, 0.6, 0.6, 0.6, 0.6, 0.6, 0.6, 0.6, 0.6, 0.6, 0.6, 0.6, 0.6, 0.6, 0.6, 0.6, 0.6, 0.6, 0.6, 0.6, 0.6, 0.6, 0.6, 0.6, 0.6, 0.6, 0.6, 0.6, 0.6, 0.6, 0.6, 0.6, 0.6, 0.6, 0.6, 0.6, 0.6, 0.6, 0.6, 0.6, 0.6, 0.6, 0.6, 0.6, 0.6, 0.6, 0.6, 0.6, 0.6, 0.6, 0.6, 0.6, 0.6, 0.6, 0.6, 0.6, 0.6, 0.6, 0.6, 0.6, 0.6, 0.6, 0.6, 0.6, 0.6, 0.6, 0.6, 0.6, 0.6, 0.6, 0.6, 0.6, 0.6, 0.6, 0.6, 0.6, 0.6, 0.6, 0.6, 0.6, 0.6, 0.6, 0.6, 0.6, 0.6, 0.6, 0.6, 0.6, 0.6, 0.6, 0.6, 0.6, 0.6, 0.6, 0.6, 0.6, 0.6, 0.6, 0.6, 0.6, 0.6, 0.6, 0.6, 0.6, 0.6, 0.6, 0.6, 0.6, 0.6, 0.6, 0.6, 0.6, 0.6, 0.6, 0.6, 0.6, 0.6, 0.6, 0.6, 0.6, 0.6, 0.6, 0.6, 0.6, 0.6, 0.6, 0.6, 0.6, 0.6, 0.6, 0.6, 0.6, 0.6, 0.6, 0.6, 0.6, 0.6], "NUPDOWN": -1.0, "LSORBIT": false, "SAXIS": [0.0, 0.0, 1.0], "LSPIRAL": false, "QSPIRAL": [0.0, 0.0, 0.0], "LZEROZ": false, "LASPH": false, "LMETAGGA": false, "NELM": 100, "NELMDL": -5, "NELMIN": 6, "ENINI": 520.0, "LDIAG": true, "LSUBROT": false, "WEIMIN": 0.001, "EBREAK": 1e-08, "DEPER": 0.3, "NRMM": 4, "TIME": 0.4, "AMIX": 0.4, "BMIX": 1.0, "AMIN": 0.1, "AMIX_MAG": 1.6, "BMIX_MAG": 1.0, "IMIX": 4, "MIXFIRST": false, "MAXMIX": -45, "WC": 100.0, "INIMIX": 1, "MIXPRE": 1, "MREMOVE": 5, "LDIPOL": false, "LMONO": false, "IDIPOL": 0, "EPSILON": 1.0, "DIPOL": [-100.0, -100.0, -100.0], "EFIELD": 0.0, "NGX": 28, "NGY": 70, "NGZ": 240, "NGXF": 56, "NGYF": 140, "NGZF": 480, "ADDGRID": false, "NSW": 150, "IBRION": 2, "MDALGO": 0, "ISIF": 2, "PSTRESS": 0.0, "EDIFFG": -0.01, "NFREE": 1, "POTIM": 0.5, "SMASS": -3.0, "SCALEE": 1.0, "TEBEG": 0.0001, "TEEND": 0.0001, "NBLOCK": 1, "KBLOCK": 150, "NPACO": 256, "APACO": 10.0, "ISYM": 0, "SYMPREC": 1e-05, "LORBIT": 11, "RWIGS": [-1.0, -1.0, -1.0], "NEDOS": 301, "EMIN": 10.0, "EMAX": -10.0, "EFERMI": 0.0, "NWRITE": 2, "LWAVE": false, "LDOWNSAMPLE": false, "LCHARG": false, "LPARD": false, "LVTOT": false, "LVHAR": false, "LELF": false, "LOPTICS": false, "STM": [0.0, 0.0, 0.0, 0.0, 0.0, 0.0, 0.0], "NPAR": 2, "NSIM": 4, "NBLK": -1, "LPLANE": true, "LSCALAPACK": true, "LSCAAWARE": false, "LSCALU": false, "LASYNC": false, "LORBITALREAL": false, "IDIOT": 3, "PHON_NSTRUCT": -1, "LMUSIC": false, "POMASS": [7.01, 30.974, 16.0], "DARWINR": [0.0, 0.0, 0.0], "DARWINV": [1.0, 1.0, 1.0], "LCORR": true, "GGA_COMPAT": true, "LBERRY": false, "ICORELEVEL": 0, "LDAU": false, "I_CONSTRAINED_M": 0, "GGA": "--", "VOSKOWN": 0, "LHFCALC": false, "PRECFOCK": "", "LSYMGRAD": false, "LHFONE": false, "LRHFCALC": false, "LTHOMAS": false, "LMODELHF": false, "LFOCKACE": false, "ENCUT4O": -1.0, "EXXOEP": 0, "FOURORBIT": 0, "AEXX": 0.0, "HFALPHA": 0.0, "MCALPHA": 0.0, "ALDAX": 1.0, "AGGAX": 1.0, "ALDAC": 1.0, "AGGAC": 1.0, "NKREDX": 1, "NKREDY": 1, "NKREDZ": 1, "SHIFTRED": false, "ODDONLY": false, "EVENONLY": false, "LMAXFOCK": 0, "NMAXFOCKAE": 0, "LFOCKAEDFT": false, "HFSCREEN": 0.0, "HFSCREENC": 0.0, "NBANDSGWLOW": 0, "LUSE_VDW": false, "Zab_VDW": -0.8491, "PARAM1": 0.1234, "PARAM2": 1.0, "PARAM3": 0.0, "MODEL_GW": 0, "MODEL_EPS0": 10.77287361, "MODEL_ALPHA": 1.0, "LEPSILON": false, "LRPA": false, "LNABLA": false, "LVEL": false, "CSHIFT": 0.1, "OMEGAMAX": -1.0, "DEG_THRESHOLD": 0.002, "RTIME": -0.1, "WPLASMAI": 0.0, "DFIELD": [0.0, 0.0, 0.0], "WPLASMA": [0.0, 0.0, 0.0, 0.0, 0.0, 0.0, 0.0, 0.0, 0.0], "NUCIND": false, "MAGPOS": [0.0, 0.0, 0.0], "LNICSALL": true, "ORBITALMAG": false, "LMAGBLOCH": false, "LCHIMAG": false, "LGAUGE": true, "MAGATOM": 0, "MAGDIPOL": [0.0, 0.0, 0.0], "AVECCONST": [0.0, 0.0, 0.0], "LFINITE_TEMPERATURE": false, "LADDER": false, "LRPAFORCE": false, "LFXC": false, "LHARTREE": true, "IBSE": 0, "KPOINT": [-1, 0, 0, 0], "LTCTC": false, "LTCTE": false, "LTETE": false, "LTRIPLET": false, "LFXCEPS": false, "LFXHEG": false, "NATURALO": 2, "LHOLEGF": false, "L2ORDER": false, "LDMP1": false, "LMP2LT": false, "LSMP2LT": false, "LGWLF": false, "ENCUTGW": -2.0, "ENCUTGWSOFT": -2.0, "ENCUTLF": -1.0, "LESF_SPLINES": false, "LMAXMP2": -1, "SCISSOR": 0.0, "NOMEGA": 0, "NOMEGAR": 0, "NBANDSGW": -1, "NBANDSO": -1, "NBANDSV": -1, "NELMGW": 1, "NELMHF": 1, "DIM": 3, "IESPILON": 4, "ANTIRES": 0, "OMEGAMIN": -30.0, "OMEGATL": -200.0, "OMEGAGRID": 0, "LSELFENERGY": false, "LSPECTRAL": false, "LSPECTRALGW": false, "LSINGLES": false, "LFERMIGW": false, "ODDONLYGW": false, "EVENONLYGW": false, "NKREDLFX": 1, "NKREDLFY": 1, "NKREDLFZ": 1, "MAXMEM": 2800, "TELESCOPE": 0, "NTAUPAR": -1, "NOMEGAPAR": -1, "DAMP_NEWTON": 0.80000001, "LAMBDA": 1.0, "OFIELD_KAPPA": 0.0, "OFIELD_K": [0.0, 0.0, 0.0], "OFIELD_Q6_NEAR": 0.0, "OFIELD_Q6_FAR": 0.0, "OFIELD_A": 0.0, "KPOINTS_OPT_MODE": 1, "LKPOINTS_OPT": false, "@module": "pymatgen.io.vasp.inputs", "@class": "Incar"}, "relaxed_structures": {"@module": "pymatgen.core.structure", "@class": "Structure", "charge": 0, "lattice": {"matrix": [[4.977846, 0.0, 0.0], [0.0, 12.216466, 0.0], [0.0, 0.0, 42.516329]], "a": 4.977846, "b": 12.216466, "c": 42.516329, "alpha": 90.0, "beta": 90.0, "gamma": 90.0, "volume": 2585.4896665474557}, "sites": [{"species": [{"element": "Li", "occu": 1}], "abc": [0.18622066, 0.03512067, 0.07159039000000003], "xyz": [0.9269777674983601, 0.42905047095222, 3.0437605744783114], "label": "Li", "properties": {}}, {"species": [{"element": "Li", "occu": 1}], "abc": [0.69978396, 0.15910371, 0.08801304000000004], "xyz": [3.48341678615016, 1.9436850636888603, 3.7419913649301617], "label": "Li", "properties": {}}, {"species": [{"element": "Li", "occu": 1}], "abc": [0.31733376, 0.64209173, 9.999999999998899e-05], "xyz": [1.5796385878809602, 7.84409178842618, 0.0042516328999995315], "label": "Li", "properties": {}}, {"species": [{"element": "Li", "occu": 1}], "abc": [0.29423883, 0.53167302, 0.06375510000000004], "xyz": [1.46467558296018, 6.495165371947321, 2.7106328070279013], "label": "Li", "properties": {}}, {"species": [{"element": "Li", "occu": 1}], "abc": [0.68820345, 0.291257, 0.027757340000000037], "xyz": [3.4257707907687007, 3.558131237762, 1.1801401996048615], "label": "Li", "properties": {}}, {"species": [{"element": "Li", "occu": 1}], "abc": [0.78963815, 0.65761148, 0.08551589000000004], "xyz": [3.9306971064249003, 8.033688286629681, 3.6358217139678115], "label": "Li", "properties": {}}, {"species": [{"element": "Li", "occu": 1}], "abc": [0.18523711, 0.78978684, 0.07486733000000004], "xyz": [0.9220818070650602, 9.64840407810744, 3.1830840336315713], "label": "Li", "properties": {}}, {"species": [{"element": "Li", "occu": 1}], "abc": [0.30488482, 0.40743656, 0.008767860000000039], "xyz": [1.5176696816977202, 4.9774348823969605, 0.37277722038594163], "label": "Li", "properties": {}}, {"species": [{"element": "Li", "occu": 1}], "abc": [0.70351399, 0.40406235, 0.08580041000000004], "xyz": [3.5019843010655403, 4.936213960655101, 3.6479184598948913], "label": "Li", "properties": {}}, {"species": [{"element": "Li", "occu": 1}], "abc": [0.20144916, 0.77646445, 0.19148835000000003], "xyz": [1.00278289530936, 9.4856515536337, 8.14138168826715], "label": "Li", "properties": {}}, {"species": [{"element": "Li", "occu": 1}], "abc": [0.80308283, 0.53214037, 0.15017397000000005], "xyz": [3.9976226529841803, 6.5008747373324205, 6.384845915756132], "label": "Li", "properties": {}}, {"species": [{"element": "Li", "occu": 1}], "abc": [0.70067054, 0.90582668, 0.21351291000000003], "xyz": [3.4878300448568402, 11.066000838112881, 9.077785127307392], "label": "Li", "properties": {}}, {"species": [{"element": "Li", "occu": 1}], "abc": [0.30082422, 0.40232499, 0.12856753000000004], "xyz": [1.49745664023012, 4.91498956128534, 5.466219404197371], "label": "Li", "properties": {}}, {"species": [{"element": "Li", "occu": 1}], "abc": [0.29935308, 0.27836227, 0.19172199000000004], "xyz": [1.49013353186568, 3.4006032071378205, 8.151315203374711], "label": "Li", "properties": {}}, {"species": [{"element": "Li", "occu": 1}], "abc": [0.69828098, 0.03228597, 0.15157574000000004], "xyz": [3.4759351831690806, 0.39442045478202, 6.444444030258461], "label": "Li", "properties": {}}, {"species": [{"element": "Li", "occu": 1}], "abc": [0.79982692, 0.40561913, 0.21384696000000003], "xyz": [3.9814152344143205, 4.95523231059458, 9.09198770700984], "label": "Li", "properties": {}}, {"species": [{"element": "Li", "occu": 1}], "abc": [0.2031333, 0.90555068, 0.12992682000000003], "xyz": [1.0111662848718, 11.06262909349688, 5.524011425043781], "label": "Li", "properties": {}}, {"species": [{"element": "Li", "occu": 1}], "abc": [0.80106466, 0.77140659, 0.14837848000000003], "xyz": [3.9875765135223604, 9.42386237891094, 6.308508272199921], "label": "Li", "properties": {}}, {"species": [{"element": "Li", "occu": 1}], "abc": [0.20297978, 0.5350295, 0.19331190000000004], "xyz": [1.01040208595388, 6.536169695747001, 8.218912340015102], "label": "Li", "properties": {}}, {"species": [{"element": "Li", "occu": 1}], "abc": [0.29905871, 0.16417034, 0.13126812000000004], "xyz": [1.4886682033386602, 2.00558137681844, 5.581038577131482], "label": "Li", "properties": {}}, {"species": [{"element": "Li", "occu": 1}], "abc": [0.70161201, 0.14802029, 0.21240914000000002], "xyz": [3.49251653753046, 1.8082848400951401, 9.030856878847061], "label": "Li", "properties": {}}, {"species": [{"element": "Li", "occu": 1}], "abc": [0.19843013, 0.52297871, 0.31788494], "xyz": [0.9877546288999801, 6.38895162943886, 13.51530069318526], "label": "Li", "properties": {}}, {"species": [{"element": "Li", "occu": 1}], "abc": [0.7993313, 0.27983749, 0.27661355], "xyz": [3.9789481143798002, 3.4186251821103406, 11.760592697657948], "label": "Li", "properties": {}}, {"species": [{"element": "Li", "occu": 1}], "abc": [0.69953892, 0.65261901, 0.33920182], "xyz": [3.48219701476632, 7.97269794661866, 14.421616176518778], "label": "Li", "properties": {}}, {"species": [{"element": "Li", "occu": 1}], "abc": [0.30059205, 0.15045058, 0.255313], "xyz": [1.4963009337243, 1.83797439525028, 10.854971505977], "label": "Li", "properties": {}}, {"species": [{"element": "Li", "occu": 1}], "abc": [0.30092685, 0.02377956, 0.31768539], "xyz": [1.4979675165651003, 0.29050218623496005, 13.506816559733311], "label": "Li", "properties": {}}, {"species": [{"element": "Li", "occu": 1}], "abc": [0.70106542, 0.77863612, 0.27681038], "xyz": [3.4897956966853205, 9.512181686351921, 11.768961186695021], "label": "Li", "properties": {}}, {"species": [{"element": "Li", "occu": 1}], "abc": [0.79942669, 0.15143129, 0.34002761000000004], "xyz": [3.9794229511097403, 1.8499552056211401, 14.45672573584369], "label": "Li", "properties": {}}, {"species": [{"element": "Li", "occu": 1}], "abc": [0.20136542, 0.65144805, 0.25422206], "xyz": [1.00236605048532, 7.9583929535913, 10.808588742017742], "label": "Li", "properties": {}}, {"species": [{"element": "Li", "occu": 1}], "abc": [0.79840747, 0.52101588, 0.27489946], "xyz": [3.9743494309096206, 6.36497278348008, 11.687715883282339], "label": "Li", "properties": {}}, {"species": [{"element": "Li", "occu": 1}], "abc": [0.20083783, 0.28224821, 0.31945337], "xyz": [0.99973978871418, 3.44807566102586, 13.58198457907873], "label": "Li", "properties": {}}, {"species": [{"element": "Li", "occu": 1}], "abc": [0.29831986, 0.90911168, 0.25633193], "xyz": [1.48499032182156, 11.10613192892288, 10.898292669084968], "label": "Li", "properties": {}}, {"species": [{"element": "Li", "occu": 1}], "abc": [0.70440077, 0.89339698, 0.338248], "xyz": [3.5063985553414203, 10.91415383067268, 14.381063251592], "label": "Li", "properties": {}}, {"species": [{"element": "Li", "occu": 1}], "abc": [0.19660317, 0.27054015, 0.44401492000000004], "xyz": [0.9786603033718201, 3.3050445441099, 18.877884419628682], "label": "Li", "properties": {}}, {"species": [{"element": "Li", "occu": 1}], "abc": [0.80082576, 0.02618573, 0.40283203], "xyz": [3.9863873061129604, 0.31989708023018004, 17.12693911921787], "label": "Li", "properties": {}}, {"species": [{"element": "Li", "occu": 1}], "abc": [0.69818436, 0.39902295, 0.46562907000000003], "xyz": [3.47545422368856, 4.8746503018947, 19.79683873208403], "label": "Li", "properties": {}}, {"species": [{"element": "Li", "occu": 1}], "abc": [0.30308283, 0.89681313, 0.38104904], "xyz": [1.5086996529841803, 10.95588711099858, 16.200806349774158], "label": "Li", "properties": {}}, {"species": [{"element": "Li", "occu": 1}], "abc": [0.30300363, 0.7706025, 0.44296333], "xyz": [1.5083054075809803, 9.414039240765, 18.83317467321557], "label": "Li", "properties": {}}, {"species": [{"element": "Li", "occu": 1}], "abc": [0.69880805, 0.52401265, 0.40256077], "xyz": [3.4785588564603005, 6.4015827222949, 17.11540613981333], "label": "Li", "properties": {}}, {"species": [{"element": "Li", "occu": 1}], "abc": [0.80006731, 0.89601552, 0.4647024], "xyz": [3.98261185881426, 10.94614313555232, 19.7574401254896], "label": "Li", "properties": {}}, {"species": [{"element": "Li", "occu": 1}], "abc": [0.19711351, 0.39745638, 0.38070737], "xyz": [0.98120069729946, 4.85551235275308, 16.18627979564473], "label": "Li", "properties": {}}, {"species": [{"element": "Li", "occu": 1}], "abc": [0.79580363, 0.26730724, 0.40096077], "xyz": [3.96138791638098, 3.26554980901384, 17.04738001341333], "label": "Li", "properties": {}}, {"species": [{"element": "Li", "occu": 1}], "abc": [0.20324642, 0.03006224, 0.44549426000000003], "xyz": [1.0117293788113202, 0.36725433284384, 18.94078052577154], "label": "Li", "properties": {}}, {"species": [{"element": "Li", "occu": 1}], "abc": [0.30002619, 0.65469605, 0.38205657], "xyz": [1.4934841697867403, 7.9980720351593, 16.243642826731527], "label": "Li", "properties": {}}, {"species": [{"element": "Li", "occu": 1}], "abc": [0.69967816, 0.63822553, 0.46326005000000003], "xyz": [3.4828901300433603, 7.796860487576981, 19.69611669835645], "label": "Li", "properties": {}}, {"species": [{"element": "Li", "occu": 1}], "abc": [0.81329617, 0.76699965, 0.52337113], "xyz": [4.048463086649821, 9.3700251462369, 22.25181915218177], "label": "Li", "properties": {}}, {"species": [{"element": "Li", "occu": 1}], "abc": [0.6813702, 0.162167, 0.59348197], "xyz": [3.3917559245892006, 1.9811076418220002, 25.232674692088132], "label": "Li", "properties": {}}, {"species": [{"element": "Li", "occu": 1}], "abc": [0.30197554, 0.64275907, 0.50648164], "xyz": [1.50318773388684, 7.8522443248466205, 21.53374003869956], "label": "Li", "properties": {}}, {"species": [{"element": "Li", "occu": 1}], "abc": [0.31213776, 0.51186988, 0.56649435], "xyz": [1.55377370006496, 6.25324098544408, 24.085260161241152], "label": "Li", "properties": {}}, {"species": [{"element": "Li", "occu": 1}], "abc": [0.70306492, 0.27122635, 0.52987977], "xyz": [3.49974889976232, 3.3134274830791, 22.528542631764328], "label": "Li", "properties": {}}, {"species": [{"element": "Li", "occu": 1}], "abc": [0.20965881, 0.1430371, 0.50828957], "xyz": [1.0436492687232601, 1.7474078688886001, 21.610606585388528], "label": "Li", "properties": {}}, {"species": [{"element": "Li", "occu": 1}], "abc": [0.81339458, 0.01184966, 0.51971995], "xyz": [4.048952956474681, 0.14476096850156, 22.09658438206355], "label": "Li", "properties": {}}, {"species": [{"element": "Li", "occu": 1}], "abc": [0.29461413, 0.39865453, 0.50821017], "xyz": [1.46654376856398, 4.87014951149098, 21.60723078886593], "label": "Li", "properties": {}}, {"species": [{"element": "Li", "occu": 1}], "abc": [0.69352245, 0.39476221, 0.58543776], "xyz": [3.4522479536427, 4.82259911654986, 24.89066441318304], "label": "Li", "properties": {}}, {"species": [{"element": "P", "occu": 1}], "abc": [0.70094756, 0.91178339, 0.08913423000000004], "xyz": [3.4892090077557603, 11.13877078329974, 3.7896602478416717], "label": "P", "properties": {}}, {"species": [{"element": "P", "occu": 1}], "abc": [0.19488536, 0.27842311, 0.06601654000000004], "xyz": [0.9701093097345601, 3.40134645692926, 2.8067809340816616], "label": "P", "properties": {}}, {"species": [{"element": "P", "occu": 1}], "abc": [0.79163319, 0.53537369, 0.021634990000000038], "xyz": [3.9406281083087404, 6.540374481179541, 0.9198403527517116], "label": "P", "properties": {}}, {"species": [{"element": "P", "occu": 1}], "abc": [0.6952945, 0.65782344, 0.21348471000000005], "xyz": [3.4610689456470003, 8.036277688763041, 9.076586166829593], "label": "P", "properties": {}}, {"species": [{"element": "P", "occu": 1}], "abc": [0.30830957, 0.64878465, 0.12829741000000003], "xyz": [1.53471755978622, 7.9258556180469, 5.454734893407891], "label": "P", "properties": {}}, {"species": [{"element": "P", "occu": 1}], "abc": [0.19295736, 0.02614479, 0.19202894000000004], "xyz": [0.9605120226465601, 0.31939693811214004, 8.164365590561262], "label": "P", "properties": {}}, {"species": [{"element": "P", "occu": 1}], "abc": [0.80550559, 0.28494522, 0.15098066000000004], "xyz": [4.0096827791591405, 3.4810235919925203, 6.419143413197141], "label": "P", "properties": {}}, {"species": [{"element": "P", "occu": 1}], "abc": [0.69270121, 0.40387091, 0.33975798], "xyz": [3.44815994739366, 4.933875240404061, 14.44526205805542], "label": "P", "properties": {}}, {"species": [{"element": "P", "occu": 1}], "abc": [0.30575105, 0.39891392, 0.25465323], "xyz": [1.5219816412383003, 4.87331834060672, 10.82692050759267], "label": "P", "properties": {}}, {"species": [{"element": "P", "occu": 1}], "abc": [0.19522546, 0.77153127, 0.31747546], "xyz": [0.9718022751591601, 9.42538552789182, 13.497891106786339], "label": "P", "properties": {}}, {"species": [{"element": "P", "occu": 1}], "abc": [0.80644549, 0.03095841, 0.27696643], "xyz": [4.01436145661454, 0.37820236317906, 11.77559585983547], "label": "P", "properties": {}}, {"species": [{"element": "P", "occu": 1}], "abc": [0.69215382, 0.15259348, 0.46589425], "xyz": [3.4454351242717203, 1.86415306024168, 19.80811321220825], "label": "P", "properties": {}}, {"species": [{"element": "P", "occu": 1}], "abc": [0.30523111, 0.14505866, 0.38074384], "xyz": [1.5193934599890602, 1.7721041878955601, 16.18783036616336], "label": "P", "properties": {}}, {"species": [{"element": "P", "occu": 1}], "abc": [0.19368854, 0.51762759, 0.44333774000000004], "xyz": [0.9641517240848401, 6.32357985389694, 18.84909321195646], "label": "P", "properties": {}}, {"species": [{"element": "P", "occu": 1}], "abc": [0.8083716, 0.77642578, 0.40246175], "xyz": [4.0239493355736, 9.48517914289348, 17.11119617291575], "label": "P", "properties": {}}, {"species": [{"element": "P", "occu": 1}], "abc": [0.29896629, 0.88991727, 0.50536009], "xyz": [1.4882081508113403, 10.87164407176782, 21.48605584990961], "label": "P", "properties": {}}, {"species": [{"element": "P", "occu": 1}], "abc": [0.20656396, 0.267421, 0.57199804], "xyz": [1.02824358203016, 3.2669395541860005, 24.31925685599516], "label": "P", "properties": {}}, {"species": [{"element": "P", "occu": 1}], "abc": [0.80504686, 0.52403398, 0.52837066], "xyz": [4.00739929186356, 6.40184329951468, 22.464380814507138], "label": "P", "properties": {}}, {"species": [{"element": "O", "occu": 1}], "abc": [0.8099872, 0.01746644, 0.07369699000000003], "xyz": [4.0319915435712, 0.21337817040104, 3.133325473149711], "label": "O", "properties": {}}, {"species": [{"element": "O", "occu": 1}], "abc": [0.29746337, 0.17611259, 0.08439918000000003], "xyz": [1.4807268465010202, 2.15147346790694, 3.588343304210221], "label": "O", "properties": {}}, {"species": [{"element": "O", "occu": 1}], "abc": [0.67892081, 0.63471662, 0.003852960000000038], "xyz": [3.3795632383752605, 7.75399400786492, 0.16381371498384162], "label": "O", "properties": {}}, {"species": [{"element": "O", "occu": 1}], "abc": [0.70402891, 0.53719444, 0.05721111000000004], "xyz": [3.5045474935278604, 6.562617611649041, 2.4324063752151917], "label": "O", "properties": {}}, {"species": [{"element": "O", "occu": 1}], "abc": [0.30252645, 0.27522297, 0.03180478000000004], "xyz": [1.5059300790267, 3.3622520554240203, 1.3522224902526216], "label": "O", "properties": {}}, {"species": [{"element": "O", "occu": 1}], "abc": [0.20316518, 0.64741622, 0.09360654000000004], "xyz": [1.01132497860228, 7.90913823947852, 3.9798064511916618], "label": "O", "properties": {}}, {"species": [{"element": "O", "occu": 1}], "abc": [0.78964095, 0.90956592, 0.12460047000000003], "xyz": [3.9307110443937003, 11.11168113643872, 5.297554576074631], "label": "O", "properties": {}}, {"species": [{"element": "O", "occu": 1}], "abc": [0.80859866, 0.80877269, 0.07229755000000004], "xyz": [4.02507960528636, 9.88034406911354, 3.0738264216939517], "label": "O", "properties": {}}, {"species": [{"element": "O", "occu": 1}], "abc": [0.69221125, 0.42641462, 0.006613740000000038], "xyz": [3.4457210019675, 5.209279707132921, 0.28119194576046164], "label": "O", "properties": {}}, {"species": [{"element": "O", "occu": 1}], "abc": [0.29466357, 0.38469116, 0.08269964000000003], "xyz": [1.46678987327022, 4.69956647664056, 3.5160851024215614], "label": "O", "properties": {}}, {"species": [{"element": "O", "occu": 1}], "abc": [0.38412851, 0.91339485, 0.08799056000000004], "xyz": [1.91213256698946, 11.1584571296001, 3.7410355978542413], "label": "O", "properties": {}}, {"species": [{"element": "O", "occu": 1}], "abc": [0.8809112, 0.27775171, 0.06573994000000004], "xyz": [4.385040293275201, 3.3931443216568598, 2.7950209174802616], "label": "O", "properties": {}}, {"species": [{"element": "O", "occu": 1}], "abc": [0.11055857, 0.53780378, 0.020772080000000036], "xyz": [0.5503435354402201, 6.57006159304148, 0.8831525872943216], "label": "O", "properties": {}}, {"species": [{"element": "O", "occu": 1}], "abc": [0.79873826, 0.7621602, 0.19611309000000005], "xyz": [3.9759960525879605, 9.3109041698532, 8.338008655646611], "label": "O", "properties": {}}, {"species": [{"element": "O", "occu": 1}], "abc": [0.20445546, 0.54551966, 0.14595466000000004], "xyz": [1.0177477937391601, 6.66432237872156, 6.205456343643141], "label": "O", "properties": {}}, {"species": [{"element": "O", "occu": 1}], "abc": [0.29665578, 0.92075203, 0.20886627000000005], "xyz": [1.47670678784988, 11.248335868925981, 8.880227052322832], "label": "O", "properties": {}}, {"species": [{"element": "O", "occu": 1}], "abc": [0.70260798, 0.38887437, 0.13336229000000005], "xyz": [3.4974743228110805, 4.7506705193764205, 5.670074997833412], "label": "O", "properties": {}}, {"species": [{"element": "O", "occu": 1}], "abc": [0.70155537, 0.28576831, 0.18561962000000004], "xyz": [3.4922345923330202, 3.4910788429924606, 7.891864832774981], "label": "O", "properties": {}}, {"species": [{"element": "O", "occu": 1}], "abc": [0.29492204, 0.02689675, 0.15730700000000003], "xyz": [1.4680764971258402, 0.32858323188550004, 6.6881161660030015], "label": "O", "properties": {}}, {"species": [{"element": "O", "occu": 1}], "abc": [0.2022629, 0.39860752, 0.22000870000000003], "xyz": [1.0068335677134002, 4.86957521542432, 9.3539622720623], "label": "O", "properties": {}}, {"species": [{"element": "O", "occu": 1}], "abc": [0.79795358, 0.65831377, 0.24818208000000003], "xyz": [3.9720900363886806, 8.04226778853682, 10.55179096518432], "label": "O", "properties": {}}, {"species": [{"element": "O", "occu": 1}], "abc": [0.2062184, 0.75399271, 0.14515012000000005], "xyz": [1.0265234375664, 9.21112630596286, 6.171250256309482], "label": "O", "properties": {}}, {"species": [{"element": "O", "occu": 1}], "abc": [0.7981343, 0.55375688, 0.19618768000000003], "xyz": [3.9729896327178, 6.764952096786081, 8.34117994862672], "label": "O", "properties": {}}, {"species": [{"element": "O", "occu": 1}], "abc": [0.70340255, 0.18049754, 0.13392921000000005], "xyz": [3.5014295699073, 2.20504206049364, 5.6941783550700915], "label": "O", "properties": {}}, {"species": [{"element": "O", "occu": 1}], "abc": [0.29723949, 0.12970116, 0.20945045000000004], "xyz": [1.47961240633854, 1.58448981130056, 8.905064241398051], "label": "O", "properties": {}}, {"species": [{"element": "O", "occu": 1}], "abc": [0.38153719, 0.65851684, 0.21362462000000004], "xyz": [1.8992333750927404, 8.04474858628744, 9.082534626419982], "label": "O", "properties": {}}, {"species": [{"element": "O", "occu": 1}], "abc": [0.62139981, 0.64795635, 0.12763296000000005], "xyz": [3.09323255860926, 7.9157367192591, 5.426484918603842], "label": "O", "properties": {}}, {"species": [{"element": "O", "occu": 1}], "abc": [0.87959419, 0.02568924, 0.19206867000000002], "xyz": [4.378484420314741, 0.31383172702584, 8.166054764312431], "label": "O", "properties": {}}, {"species": [{"element": "O", "occu": 1}], "abc": [0.11915325, 0.28622347, 0.15128724000000005], "xyz": [0.5931265288995, 3.4966392896570198, 6.432178069341962], "label": "O", "properties": {}}, {"species": [{"element": "O", "occu": 1}], "abc": [0.79600093, 0.50830296, 0.32243648], "xyz": [3.9623700453967805, 6.20966582853936, 13.708815465281921], "label": "O", "properties": {}}, {"species": [{"element": "O", "occu": 1}], "abc": [0.20285648, 0.29445321, 0.27200413], "xyz": [1.00978831754208, 3.5971776285558605, 11.56461708043877], "label": "O", "properties": {}}, {"species": [{"element": "O", "occu": 1}], "abc": [0.29791131, 0.66659422, 0.33459126], "xyz": [1.48295662283826, 8.14342562442652, 14.22559209068454], "label": "O", "properties": {}}, {"species": [{"element": "O", "occu": 1}], "abc": [0.70350591, 0.13582772, 0.25982986], "xyz": [3.50194408006986, 1.6593347232375202, 11.04701181178394], "label": "O", "properties": {}}, {"species": [{"element": "O", "occu": 1}], "abc": [0.70340804, 0.03068612, 0.31164347000000003], "xyz": [3.50145689828184, 0.37487594165192, 13.24993630122163], "label": "O", "properties": {}}, {"species": [{"element": "O", "occu": 1}], "abc": [0.29796568, 0.77175876, 0.28278629], "xyz": [1.4832272683252803, 9.42816465174216, 12.02303494232941], "label": "O", "properties": {}}, {"species": [{"element": "O", "occu": 1}], "abc": [0.20243263, 0.14470446, 0.34606876000000003], "xyz": [1.0076784575149802, 1.7677771156383602, 14.713573256782041], "label": "O", "properties": {}}, {"species": [{"element": "O", "occu": 1}], "abc": [0.79663657, 0.40389916, 0.37438719000000004], "xyz": [3.96553416342822, 4.93422035556856, 15.917568943425511], "label": "O", "properties": {}}, {"species": [{"element": "O", "occu": 1}], "abc": [0.20277519, 0.50297935, 0.27195237], "xyz": [1.00938366844074, 6.144630127977101, 11.56241643524973], "label": "O", "properties": {}}, {"species": [{"element": "O", "occu": 1}], "abc": [0.79518472, 0.29974938, 0.32244375000000003], "xyz": [3.95830707771312, 3.6618781092910804, 13.70912455899375], "label": "O", "properties": {}}, {"species": [{"element": "O", "occu": 1}], "abc": [0.7033303, 0.92728952, 0.25946964], "xyz": [3.5010699205338, 11.32820089323632, 11.031696579751559], "label": "O", "properties": {}}, {"species": [{"element": "O", "occu": 1}], "abc": [0.29865024, 0.87511438, 0.3349892], "xyz": [1.48663490258304, 10.69080506938108, 14.2425110386468], "label": "O", "properties": {}}, {"species": [{"element": "O", "occu": 1}], "abc": [0.37906197, 0.40475512, 0.3400566], "xyz": [1.8869121111166203, 4.94467716180592, 14.4579582842214], "label": "O", "properties": {}}, {"species": [{"element": "O", "occu": 1}], "abc": [0.61942645, 0.39820727, 0.2544419], "xyz": [3.0834094764267, 4.864685574907821, 10.8179355317851], "label": "O", "properties": {}}, {"species": [{"element": "O", "occu": 1}], "abc": [0.88152282, 0.77096812, 0.31735132], "xyz": [4.3880848434457205, 9.41850582506392, 13.49261312970428], "label": "O", "properties": {}}, {"species": [{"element": "O", "occu": 1}], "abc": [0.12014021, 0.03153977, 0.27713508000000003], "xyz": [0.59803946378766, 0.38530452785282004, 11.78276623872132], "label": "O", "properties": {}}, {"species": [{"element": "O", "occu": 1}], "abc": [0.79584938, 0.2561635, 0.44834274], "xyz": [3.9616156528354805, 3.129412688191, 19.06188743860146], "label": "O", "properties": {}}, {"species": [{"element": "O", "occu": 1}], "abc": [0.20231894, 0.04051626, 0.3980648], "xyz": [1.00711252620324, 0.49496551273716, 16.9242540001192], "label": "O", "properties": {}}, {"species": [{"element": "O", "occu": 1}], "abc": [0.29678394, 0.41343897, 0.46084198], "xyz": [1.4773447485932403, 5.0507631200800205, 19.59330923869142], "label": "O", "properties": {}}, {"species": [{"element": "O", "occu": 1}], "abc": [0.7045571, 0.88186635, 0.38564976], "xyz": [3.5071767420066005, 10.7732902813191, 16.39641207493104], "label": "O", "properties": {}}, {"species": [{"element": "O", "occu": 1}], "abc": [0.70613459, 0.77547949, 0.43716356], "xyz": [3.51502924429314, 9.47361882328234, 18.58658974377124], "label": "O", "properties": {}}, {"species": [{"element": "O", "occu": 1}], "abc": [0.29775772, 0.51709924, 0.40870018], "xyz": [1.4821920754711202, 6.31712528408584, 17.37643131523922], "label": "O", "properties": {}}, {"species": [{"element": "O", "occu": 1}], "abc": [0.21146446, 0.89259895, 0.46984753], "xyz": [1.05263751635316, 10.9044047243107, 19.97619216531737], "label": "O", "properties": {}}, {"species": [{"element": "O", "occu": 1}], "abc": [0.79618471, 0.15383824, 0.50061873], "xyz": [3.9632848739346604, 1.87935962845984, 21.28447062824217], "label": "O", "properties": {}}, {"species": [{"element": "O", "occu": 1}], "abc": [0.20201314, 0.24893842, 0.39809372], "xyz": [1.0055903008964402, 3.04114774402372, 16.92548357235388], "label": "O", "properties": {}}, {"species": [{"element": "O", "occu": 1}], "abc": [0.79500845, 0.04755307, 0.4490535], "xyz": [3.9574296327987004, 0.5809304628506201, 19.0921063446015], "label": "O", "properties": {}}, {"species": [{"element": "O", "occu": 1}], "abc": [0.70397812, 0.67299991, 0.3850018], "xyz": [3.5042946687295204, 8.221680518518061, 16.3688631943922], "label": "O", "properties": {}}, {"species": [{"element": "O", "occu": 1}], "abc": [0.2960342, 0.6218375, 0.4604769], "xyz": [1.4736126583332003, 7.596656676275001, 19.5777873773001], "label": "O", "properties": {}}, {"species": [{"element": "O", "occu": 1}], "abc": [0.37896629, 0.15347608, 0.46639831], "xyz": [1.88643583081134, 1.87493531313328, 19.829543993003988], "label": "O", "properties": {}}, {"species": [{"element": "O", "occu": 1}], "abc": [0.61897786, 0.14413503, 0.38063763], "xyz": [3.0811764644895603, 1.76082069340398, 16.18331470686027], "label": "O", "properties": {}}, {"species": [{"element": "O", "occu": 1}], "abc": [0.88006093, 0.51614348, 0.4430439], "xyz": [4.38080778015678, 6.30544927454168, 18.8366002138431], "label": "O", "properties": {}}, {"species": [{"element": "O", "occu": 1}], "abc": [0.12168038, 0.77705325, 0.40240695], "xyz": [0.6057061928614801, 9.4928446088145, 17.10886627808655], "label": "O", "properties": {}}, {"species": [{"element": "O", "occu": 1}], "abc": [0.18950461, 0.78414506, 0.52069929], "xyz": [0.94332476487006, 9.57948146455796, 22.13822232370641], "label": "O", "properties": {}}, {"species": [{"element": "O", "occu": 1}], "abc": [0.31928144, 0.16797658, 0.58973249], "xyz": [1.5893338389782403, 2.05208017836628, 25.073260566829212], "label": "O", "properties": {}}, {"species": [{"element": "O", "occu": 1}], "abc": [0.70246704, 0.62656434, 0.5100877500000001], "xyz": [3.4967727451958406, 7.654401956422441, 21.68705859786975], "label": "O", "properties": {}}, {"species": [{"element": "O", "occu": 1}], "abc": [0.69808668, 0.5273016, 0.56260575], "xyz": [3.4749679876912802, 6.441762068145601, 23.91993116429175], "label": "O", "properties": {}}, {"species": [{"element": "O", "occu": 1}], "abc": [0.29369288, 0.26537392, 0.5364150400000001], "xyz": [1.46195792793648, 3.24193147096672, 22.806398321188162], "label": "O", "properties": {}}, {"species": [{"element": "O", "occu": 1}], "abc": [0.19026306, 0.99274497, 0.5221911], "xyz": [0.9471002121687602, 12.12783517267602, 22.2016486084719], "label": "O", "properties": {}}, {"species": [{"element": "O", "occu": 1}], "abc": [0.70422427, 0.41819014, 0.5115516800000001], "xyz": [3.5055199655224203, 5.10880562684524, 21.74929952738272], "label": "O", "properties": {}}, {"species": [{"element": "O", "occu": 1}], "abc": [0.30668285, 0.37605024, 0.58715809], "xyz": [1.5266199981411002, 4.59400497125184, 24.96380652945161], "label": "O", "properties": {}}, {"species": [{"element": "O", "occu": 1}], "abc": [0.61569925, 0.88830411, 0.5066229], "xyz": [3.0648560488155003, 10.85193695747526, 21.5397458953341], "label": "O", "properties": {}}, {"species": [{"element": "O", "occu": 1}], "abc": [0.8877568, 0.26542261, 0.5729021], "xyz": [4.4191166358528005, 3.24252629069626, 24.3576941683909], "label": "O", "properties": {}}, {"species": [{"element": "O", "occu": 1}], "abc": [0.11893655, 0.52452814, 0.5285336900000001], "xyz": [0.5920478296713001, 6.407880188353241, 22.471312251624013], "label": "O", "properties": {}}]}, "formula": "(Li3PO4)18.0", "bandgap": 4.537800000000001, "slab_thickness": 25.22842305918813}