{"miller": "011_0.25", "final_energy": -800.04179913, "gamma": 0.043645114148091704, "work_function": "Not calculated", "ionization_potentail": "Not calculated", "electron_affinity": "Not calculated", "is_stochiometric": true, "incar_parameters": {"SYSTEM": "unknown system", "LCOMPAT": false, "PREC": "normal", "ENMAX": 520.0, "ENAUG": 628.945, "EDIFF": 1e-05, "IALGO": 38, "IWAVPR": 11, "NBANDS": 369, "NBANDSLOW": -1, "NBANDSHIGH": -1, "NELECT": 608.0, "TURBO": 0, "IRESTART": 0, "NREBOOT": 0, "NMIN": 0, "EREF": 0.0, "ISMEAR": 0, "SIGMA": 0.05, "KSPACING": 0.5, "KGAMMA": true, "KBLOWUP": true, "LREAL": true, "ROPT": [-0.0005, -0.0005, -0.0005], "LMAXPAW": -100, "LMAXMIX": 2, "NLSPLINE": false, "ISTART": 0, "ICHARG": 2, "INIWAV": 1, "ISPIN": 1, "LNONCOLLINEAR": false, "MAGMOM": [0.6, 0.6, 0.6, 0.6, 0.6, 0.6, 0.6, 0.6, 0.6, 0.6, 0.6, 0.6, 0.6, 0.6, 0.6, 0.6, 0.6, 0.6, 0.6, 0.6, 0.6, 0.6, 0.6, 0.6, 0.6, 0.6, 0.6, 0.6, 0.6, 0.6, 0.6, 0.6, 0.6, 0.6, 0.6, 0.6, 0.6, 0.6, 0.6, 0.6, 0.6, 0.6, 0.6, 0.6, 0.6, 0.6, 0.6, 0.6, 0.6, 0.6, 0.6, 0.6, 0.6, 0.6, 0.6, 0.6, 0.6, 0.6, 0.6, 0.6, 0.6, 0.6, 0.6, 0.6, 0.6, 0.6, 0.6, 0.6, 0.6, 0.6, 0.6, 0.6, 0.6, 0.6, 0.6, 0.6, 0.6, 0.6, 0.6, 0.6, 0.6, 0.6, 0.6, 0.6, 0.6, 0.6, 0.6, 0.6, 0.6, 0.6, 0.6, 0.6, 0.6, 0.6, 0.6, 0.6, 0.6, 0.6, 0.6, 0.6, 0.6, 0.6, 0.6, 0.6, 0.6, 0.6, 0.6, 0.6, 0.6, 0.6, 0.6, 0.6, 0.6, 0.6, 0.6, 0.6, 0.6, 0.6, 0.6, 0.6, 0.6, 0.6, 0.6, 0.6, 0.6, 0.6, 0.6, 0.6], "NUPDOWN": -1.0, "LSORBIT": false, "SAXIS": [0.0, 0.0, 1.0], "LSPIRAL": false, "QSPIRAL": [0.0, 0.0, 0.0], "LZEROZ": false, "LASPH": false, "LMETAGGA": false, "NELM": 100, "NELMDL": -5, "NELMIN": 6, "ENINI": 520.0, "LDIAG": true, "LSUBROT": false, "WEIMIN": 0.001, "EBREAK": 1e-08, "DEPER": 0.3, "NRMM": 4, "TIME": 0.4, "AMIX": 0.4, "BMIX": 1.0, "AMIN": 0.1, "AMIX_MAG": 1.6, "BMIX_MAG": 1.0, "IMIX": 4, "MIXFIRST": false, "MAXMIX": -45, "WC": 100.0, "INIMIX": 1, "MIXPRE": 1, "MREMOVE": 5, "LDIPOL": false, "LMONO": false, "IDIPOL": 0, "EPSILON": 1.0, "DIPOL": [-100.0, -100.0, -100.0], "EFIELD": 0.0, "NGX": 28, "NGY": 70, "NGZ": 240, "NGXF": 56, "NGYF": 140, "NGZF": 480, "ADDGRID": false, "NSW": 150, "IBRION": 2, "MDALGO": 0, "ISIF": 2, "PSTRESS": 0.0, "EDIFFG": -0.01, "NFREE": 1, "POTIM": 0.5, "SMASS": -3.0, "SCALEE": 1.0, "TEBEG": 0.0001, "TEEND": 0.0001, "NBLOCK": 1, "KBLOCK": 150, "NPACO": 256, "APACO": 10.0, "ISYM": 0, "SYMPREC": 1e-05, "LORBIT": 11, "RWIGS": [-1.0, -1.0, -1.0], "NEDOS": 301, "EMIN": 10.0, "EMAX": -10.0, "EFERMI": 0.0, "NWRITE": 2, "LWAVE": false, "LDOWNSAMPLE": false, "LCHARG": false, "LPARD": false, "LVTOT": false, "LVHAR": false, "LELF": false, "LOPTICS": false, "STM": [0.0, 0.0, 0.0, 0.0, 0.0, 0.0, 0.0], "NPAR": 1, "NSIM": 4, "NBLK": -1, "LPLANE": true, "LSCALAPACK": true, "LSCAAWARE": false, "LSCALU": false, "LASYNC": false, "LORBITALREAL": false, "IDIOT": 3, "PHON_NSTRUCT": -1, "LMUSIC": false, "POMASS": [7.01, 30.974, 16.0], "DARWINR": [0.0, 0.0, 0.0], "DARWINV": [1.0, 1.0, 1.0], "LCORR": true, "GGA_COMPAT": true, "LBERRY": false, "ICORELEVEL": 0, "LDAU": false, "I_CONSTRAINED_M": 0, "GGA": "--", "VOSKOWN": 0, "LHFCALC": false, "PRECFOCK": "", "LSYMGRAD": false, "LHFONE": false, "LRHFCALC": false, "LTHOMAS": false, "LMODELHF": false, "LFOCKACE": false, "ENCUT4O": -1.0, "EXXOEP": 0, "FOURORBIT": 0, "AEXX": 0.0, "HFALPHA": 0.0, "MCALPHA": 0.0, "ALDAX": 1.0, "AGGAX": 1.0, "ALDAC": 1.0, "AGGAC": 1.0, "NKREDX": 1, "NKREDY": 1, "NKREDZ": 1, "SHIFTRED": false, "ODDONLY": false, "EVENONLY": false, "LMAXFOCK": 0, "NMAXFOCKAE": 0, "LFOCKAEDFT": false, "HFSCREEN": 0.0, "HFSCREENC": 0.0, "NBANDSGWLOW": 0, "LUSE_VDW": false, "Zab_VDW": -0.8491, "PARAM1": 0.1234, "PARAM2": 1.0, "PARAM3": 0.0, "MODEL_GW": 0, "MODEL_EPS0": 12.11948281, "MODEL_ALPHA": 1.0, "LEPSILON": false, "LRPA": false, "LNABLA": false, "LVEL": false, "CSHIFT": 0.1, "OMEGAMAX": -1.0, "DEG_THRESHOLD": 0.002, "RTIME": -0.1, "WPLASMAI": 0.0, "DFIELD": [0.0, 0.0, 0.0], "WPLASMA": [0.0, 0.0, 0.0, 0.0, 0.0, 0.0, 0.0, 0.0, 0.0], "NUCIND": false, "MAGPOS": [0.0, 0.0, 0.0], "LNICSALL": true, "ORBITALMAG": false, "LMAGBLOCH": false, "LCHIMAG": false, "LGAUGE": true, "MAGATOM": 0, "MAGDIPOL": [0.0, 0.0, 0.0], "AVECCONST": [0.0, 0.0, 0.0], "LFINITE_TEMPERATURE": false, "LADDER": false, "LRPAFORCE": false, "LFXC": false, "LHARTREE": true, "IBSE": 0, "KPOINT": [-1, 0, 0, 0], "LTCTC": false, "LTCTE": false, "LTETE": false, "LTRIPLET": false, "LFXCEPS": false, "LFXHEG": false, "NATURALO": 2, "LHOLEGF": false, "L2ORDER": false, "LDMP1": false, "LMP2LT": false, "LSMP2LT": false, "LGWLF": false, "ENCUTGW": -2.0, "ENCUTGWSOFT": -2.0, "ENCUTLF": -1.0, "LESF_SPLINES": false, "LMAXMP2": -1, "SCISSOR": 0.0, "NOMEGA": 0, "NOMEGAR": 0, "NBANDSGW": -1, "NBANDSO": -1, "NBANDSV": -1, "NELMGW": 1, "NELMHF": 1, "DIM": 3, "IESPILON": 4, "ANTIRES": 0, "OMEGAMIN": -30.0, "OMEGATL": -200.0, "OMEGAGRID": 0, "LSELFENERGY": false, "LSPECTRAL": false, "LSPECTRALGW": false, "LSINGLES": false, "LFERMIGW": false, "ODDONLYGW": false, "EVENONLYGW": false, "NKREDLFX": 1, "NKREDLFY": 1, "NKREDLFZ": 1, "MAXMEM": 2800, "TELESCOPE": 0, "NTAUPAR": -1, "NOMEGAPAR": -1, "DAMP_NEWTON": 0.80000001, "LAMBDA": 1.0, "OFIELD_KAPPA": 0.0, "OFIELD_K": [0.0, 0.0, 0.0], "OFIELD_Q6_NEAR": 0.0, "OFIELD_Q6_FAR": 0.0, "OFIELD_A": 0.0, "KPOINTS_OPT_MODE": 1, "LKPOINTS_OPT": false, "@module": "pymatgen.io.vasp.inputs", "@class": "Incar"}, "relaxed_structures": {"@module": "pymatgen.core.structure", "@class": "Structure", "charge": 0, "lattice": {"matrix": [[4.977846, 0.0, 0.0], [0.0, 12.216466, 0.0], [0.0, 0.0, 42.516329]], "a": 4.977846, "b": 12.216466, "c": 42.516329, "alpha": 90.0, "beta": 90.0, "gamma": 90.0, "volume": 2585.4896665474557}, "sites": [{"species": [{"element": "Li", "occu": 1}], "abc": [0.1853263, 0.06207913, 0.04222011], "xyz": [0.9225257811498001, 0.75838758095458, 1.79504408717619], "label": "Li", "properties": {}}, {"species": [{"element": "Li", "occu": 1}], "abc": [0.69894948, 0.18563759, 0.05992425], "xyz": [3.4792628732200805, 2.26783530655694, 2.54775912807825], "label": "Li", "properties": {}}, {"species": [{"element": "Li", "occu": 1}], "abc": [0.29268886, 0.43539194, 0.10015536], "xyz": [1.4569600709955601, 5.31895083168404, 4.2582382368734395], "label": "Li", "properties": {}}, {"species": [{"element": "Li", "occu": 1}], "abc": [0.68093427, 0.29529176, 9.99999999999994e-05], "xyz": [3.38958593218242, 3.6074217461201603, 0.004251632899999974], "label": "Li", "properties": {}}, {"species": [{"element": "Li", "occu": 1}], "abc": [0.80896614, 0.70279532, 0.06333145999999999], "xyz": [4.02690886413444, 8.585675131739121, 2.69262118941034], "label": "Li", "properties": {}}, {"species": [{"element": "Li", "occu": 1}], "abc": [0.20048004, 0.9330714, 0.10111573], "xyz": [0.9979587651938401, 11.3988350336724, 4.29906964375517], "label": "Li", "properties": {}}, {"species": [{"element": "Li", "occu": 1}], "abc": [0.19157395, 0.81603035, 0.044089779999999995], "xyz": [0.9536256207117001, 9.969007025743101, 1.8745355920176197], "label": "Li", "properties": {}}, {"species": [{"element": "Li", "occu": 1}], "abc": [0.29807487, 0.19305066, 0.10316107], "xyz": [1.48377079933002, 2.3583968241675604, 4.38602999211203], "label": "Li", "properties": {}}, {"species": [{"element": "Li", "occu": 1}], "abc": [0.68934674, 0.40891195, 0.06168939999999999], "xyz": [3.4314619123220402, 4.995458934168701, 2.6228068262125994], "label": "Li", "properties": {}}, {"species": [{"element": "Li", "occu": 1}], "abc": [0.19733964, 0.80472042, 0.16482861000000001], "xyz": [0.9823263376154402, 9.83083965043572, 7.00790741137269], "label": "Li", "properties": {}}, {"species": [{"element": "Li", "occu": 1}], "abc": [0.79704691, 0.56230431, 0.12332961999999999], "xyz": [3.9675767727558604, 6.869371484768461, 5.24352269936498], "label": "Li", "properties": {}}, {"species": [{"element": "Li", "occu": 1}], "abc": [0.69665627, 0.93411265, 0.18602665000000002], "xyz": [3.4678476269944203, 11.4115554288949, 7.909170254167851], "label": "Li", "properties": {}}, {"species": [{"element": "Li", "occu": 1}], "abc": [0.29675969, 0.17818148, 0.22725597], "xyz": [1.4772240358277402, 2.17674799224968, 9.66208958773413], "label": "Li", "properties": {}}, {"species": [{"element": "Li", "occu": 1}], "abc": [0.29997518, 0.30703941, 0.16408346000000001], "xyz": [1.4932302498622803, 3.7509365129250605, 6.976226368818341], "label": "Li", "properties": {}}, {"species": [{"element": "Li", "occu": 1}], "abc": [0.69799364, 0.06000314, 0.12311124], "xyz": [3.47450484889944, 0.7330263197032401, 5.23423798343796], "label": "Li", "properties": {}}, {"species": [{"element": "Li", "occu": 1}], "abc": [0.80124545, 0.43292895, 0.18678179], "xyz": [3.9884764583007004, 5.2888617980907, 7.94127603484891], "label": "Li", "properties": {}}, {"species": [{"element": "Li", "occu": 1}], "abc": [0.19853044, 0.67891787, 0.22730756000000002], "xyz": [0.9882539566322401, 8.29397707564742, 9.66428300514724], "label": "Li", "properties": {}}, {"species": [{"element": "Li", "occu": 1}], "abc": [0.79372051, 0.80389986, 0.12247375], "xyz": [3.9510184658214604, 9.82081530709476, 5.20713424886375], "label": "Li", "properties": {}}, {"species": [{"element": "Li", "occu": 1}], "abc": [0.20119437, 0.56387649, 0.16593309], "xyz": [1.0015145899270201, 6.8885779682843395, 7.05486584642661], "label": "Li", "properties": {}}, {"species": [{"element": "Li", "occu": 1}], "abc": [0.29719784, 0.9368891, 0.22902372000000001], "xyz": [1.47940507905264, 11.4454738359206, 9.73724782832388], "label": "Li", "properties": {}}, {"species": [{"element": "Li", "occu": 1}], "abc": [0.69773613, 0.17441701, 0.18459573], "xyz": [3.4732230037759804, 2.1307594724866603, 7.848332788675171], "label": "Li", "properties": {}}, {"species": [{"element": "Li", "occu": 1}], "abc": [0.20107485, 0.55173151, 0.29074871], "xyz": [1.0009196377731, 6.74020923304366, 12.36156781068559], "label": "Li", "properties": {}}, {"species": [{"element": "Li", "occu": 1}], "abc": [0.79922574, 0.30737454, 0.24921340000000003], "xyz": [3.9784226529560405, 3.75503061717564, 10.5956389056086], "label": "Li", "properties": {}}, {"species": [{"element": "Li", "occu": 1}], "abc": [0.70121561, 0.68061699, 0.31272153], "xyz": [3.4905433193760604, 8.31473431735734, 13.29577145486337], "label": "Li", "properties": {}}, {"species": [{"element": "Li", "occu": 1}], "abc": [0.30343106, 0.92397916, 0.35387016], "xyz": [1.51043308829676, 11.28775999284856, 15.04526014584264], "label": "Li", "properties": {}}, {"species": [{"element": "Li", "occu": 1}], "abc": [0.30222947, 0.05230591, 0.29002644], "xyz": [1.5044517583216201, 0.63899337111406, 12.330859541738759], "label": "Li", "properties": {}}, {"species": [{"element": "Li", "occu": 1}], "abc": [0.69971317, 0.80610942, 0.24977194000000003], "xyz": [3.48306440443182, 9.84780832170972, 10.61938597600826], "label": "Li", "properties": {}}, {"species": [{"element": "Li", "occu": 1}], "abc": [0.80122945, 0.18028001, 0.31269420000000003], "xyz": [3.9883968127647003, 2.20238461264466, 13.2946094835918], "label": "Li", "properties": {}}, {"species": [{"element": "Li", "occu": 1}], "abc": [0.2001766, 0.42612893, 0.3530061], "xyz": [0.9964482876036002, 5.20578958496138, 15.008523486606899], "label": "Li", "properties": {}}, {"species": [{"element": "Li", "occu": 1}], "abc": [0.79846781, 0.5483896, 0.24797436], "xyz": [3.9746497941372603, 6.699382903153601, 10.54295947332444], "label": "Li", "properties": {}}, {"species": [{"element": "Li", "occu": 1}], "abc": [0.20324449, 0.30992739, 0.29201407], "xyz": [1.01171977156854, 3.7862174224037406, 12.415366272749031], "label": "Li", "properties": {}}, {"species": [{"element": "Li", "occu": 1}], "abc": [0.30191893, 0.68443828, 0.35538558000000003], "xyz": [1.50290593802478, 8.36141697671848, 15.109690241135821], "label": "Li", "properties": {}}, {"species": [{"element": "Li", "occu": 1}], "abc": [0.70429311, 0.92213759, 0.31082008], "xyz": [3.5058626404410607, 11.26526251555694, 13.21492878108632], "label": "Li", "properties": {}}, {"species": [{"element": "Li", "occu": 1}], "abc": [0.20331497, 0.29685105, 0.41654059], "xyz": [1.0120706101546202, 3.6264707593893, 17.70977676629411], "label": "Li", "properties": {}}, {"species": [{"element": "Li", "occu": 1}], "abc": [0.80267501, 0.0543276, 0.37504384], "xyz": [3.9955925878284604, 0.6636912782616, 15.94548729086336], "label": "Li", "properties": {}}, {"species": [{"element": "Li", "occu": 1}], "abc": [0.70661984, 0.42387847, 0.43965588], "xyz": [3.5174447440646404, 5.17829691688702, 18.69255404086452], "label": "Li", "properties": {}}, {"species": [{"element": "Li", "occu": 1}], "abc": [0.29770634, 0.67440477, 0.48026374], "xyz": [1.48193631374364, 8.23884294294282, 20.41905117661046], "label": "Li", "properties": {}}, {"species": [{"element": "Li", "occu": 1}], "abc": [0.30287637, 0.79984462, 0.41710558000000003], "xyz": [1.5076719268990202, 9.77127460551292, 17.733798067015822], "label": "Li", "properties": {}}, {"species": [{"element": "Li", "occu": 1}], "abc": [0.6991294, 0.55219368, 0.37585565], "xyz": [3.4801584872724005, 6.745855317134881, 15.980002471908849], "label": "Li", "properties": {}}, {"species": [{"element": "Li", "occu": 1}], "abc": [0.80143756, 0.92689173, 0.43868141], "xyz": [3.98943275229576, 11.323341305226181, 18.65112315374389], "label": "Li", "properties": {}}, {"species": [{"element": "Li", "occu": 1}], "abc": [0.19108307, 0.1571746, 0.47675428000000003], "xyz": [0.95118209566722, 1.9201181569636, 20.26984182063812], "label": "Li", "properties": {}}, {"species": [{"element": "Li", "occu": 1}], "abc": [0.79887135, 0.29520707, 0.3740467], "xyz": [3.9766585541121002, 3.6063871336146205, 15.9030925585643], "label": "Li", "properties": {}}, {"species": [{"element": "Li", "occu": 1}], "abc": [0.20966554, 0.05631716, 0.41752144], "xyz": [1.0436827696268403, 0.68799667035656, 17.75147890759376], "label": "Li", "properties": {}}, {"species": [{"element": "Li", "occu": 1}], "abc": [0.31026872, 0.45137906, 0.47811691], "xyz": [1.5444699067771201, 5.51425693960196, 20.32777584602339], "label": "Li", "properties": {}}, {"species": [{"element": "Li", "occu": 1}], "abc": [0.70111544, 0.66560807, 0.43709638], "xyz": [3.4900446885422403, 8.13137835648062, 18.58373349678902], "label": "Li", "properties": {}}, {"species": [{"element": "Li", "occu": 1}], "abc": [0.81372017, 0.79742, 0.49777357], "xyz": [4.050573693353821, 9.74165431772, 21.16350486962453], "label": "Li", "properties": {}}, {"species": [{"element": "Li", "occu": 1}], "abc": [0.31865452, 0.56244137, 0.53985468], "xyz": [1.5862131277639202, 6.871045873598421, 22.95263918706972], "label": "Li", "properties": {}}, {"species": [{"element": "Li", "occu": 1}], "abc": [0.80852698, 0.04313347, 0.49592210000000003], "xyz": [4.02472279328508, 0.52693856971702, 21.0847871619709], "label": "Li", "properties": {}}, {"species": [{"element": "P", "occu": 1}], "abc": [0.69817659, 0.94017713, 0.059745519999999996], "xyz": [3.47541554582514, 11.48564194262258, 2.54016018459608], "label": "P", "properties": {}}, {"species": [{"element": "P", "occu": 1}], "abc": [0.30093473, 0.68131865, 0.10133915], "xyz": [1.4980067419915801, 8.3233061228909, 4.30856864198035], "label": "P", "properties": {}}, {"species": [{"element": "P", "occu": 1}], "abc": [0.20575056, 0.30476636, 0.03730952], "xyz": [1.02419460209376, 3.72316787488376, 1.58626382715208], "label": "P", "properties": {}}, {"species": [{"element": "P", "occu": 1}], "abc": [0.69192021, 0.68553098, 0.18671111], "xyz": [3.4442722496676605, 8.37476590911668, 7.93827098071519], "label": "P", "properties": {}}, {"species": [{"element": "P", "occu": 1}], "abc": [0.30607686, 0.42672521, 0.2273822], "xyz": [1.5236034732435602, 5.213074019307861, 9.6674564239438], "label": "P", "properties": {}}, {"species": [{"element": "P", "occu": 1}], "abc": [0.19153083, 0.05367872, 0.16396987000000002], "xyz": [0.9534109759921802, 0.65576425780352, 6.971396939007231], "label": "P", "properties": {}}, {"species": [{"element": "P", "occu": 1}], "abc": [0.80689705, 0.31329602, 0.12385653], "xyz": [4.0166092527543, 3.8273701762653203, 5.26592497827837], "label": "P", "properties": {}}, {"species": [{"element": "P", "occu": 1}], "abc": [0.69455906, 0.43218071, 0.31256860000000003], "xyz": [3.4574080385847603, 5.27972094957086, 13.289269432669402], "label": "P", "properties": {}}, {"species": [{"element": "P", "occu": 1}], "abc": [0.30806147, 0.1731331, 0.35318778], "xyz": [1.53348255619362, 2.1150746296246004, 15.01624785325962], "label": "P", "properties": {}}, {"species": [{"element": "P", "occu": 1}], "abc": [0.19487571, 0.79979598, 0.29048336], "xyz": [0.9700612735206601, 9.77068039660668, 12.350286102785441], "label": "P", "properties": {}}, {"species": [{"element": "P", "occu": 1}], "abc": [0.80519031, 0.0588179, 0.24939051], "xyz": [4.00811336387226, 0.7185468755414001, 10.603168972637791], "label": "P", "properties": {}}, {"species": [{"element": "P", "occu": 1}], "abc": [0.69970172, 0.17801043, 0.4385758], "xyz": [3.48300740809512, 2.17465836574038, 18.6466330042382], "label": "P", "properties": {}}, {"species": [{"element": "P", "occu": 1}], "abc": [0.30151326, 0.91983298, 0.48029548], "xyz": [1.50088657523796, 11.23710832584868, 20.42040064489292], "label": "P", "properties": {}}, {"species": [{"element": "P", "occu": 1}], "abc": [0.19265217, 0.5460718, 0.4160592], "xyz": [0.9589928338258201, 6.6710675782588, 17.6893098306768], "label": "P", "properties": {}}, {"species": [{"element": "P", "occu": 1}], "abc": [0.80848815, 0.80528026, 0.37602798000000004], "xyz": [4.0245295035249, 9.83767891676116, 15.987329310885421], "label": "P", "properties": {}}, {"species": [{"element": "P", "occu": 1}], "abc": [0.79303763, 0.55414155, 0.50270484], "xyz": [3.9476191943449805, 6.7696514047623, 21.37316436733236], "label": "P", "properties": {}}, {"species": [{"element": "O", "occu": 1}], "abc": [0.80649525, 0.04590347, 0.0443179], "xyz": [4.0146091542315006, 0.56077818053702, 1.8842344169890999], "label": "O", "properties": {}}, {"species": [{"element": "O", "occu": 1}], "abc": [0.29230664, 0.19995418, 0.05641739999999999], "xyz": [1.4550574386974402, 2.44273344152788, 2.3986607397246], "label": "O", "properties": {}}, {"species": [{"element": "O", "occu": 1}], "abc": [0.70172936, 0.41816722, 0.10679389], "xyz": [3.49310068775856, 5.10852562544452, 4.54048416242981], "label": "O", "properties": {}}, {"species": [{"element": "O", "occu": 1}], "abc": [0.31604026, 0.29660117, 0.0035526399999999993], "xyz": [1.5731997440799603, 3.6234181088652204, 0.15104521105855997], "label": "O", "properties": {}}, {"species": [{"element": "O", "occu": 1}], "abc": [0.19087986, 0.68440375, 0.06729717], "xyz": [0.9501705475815602, 8.3609951421475, 2.86122862048893], "label": "O", "properties": {}}, {"species": [{"element": "O", "occu": 1}], "abc": [0.78842061, 0.93708491, 0.09517117], "xyz": [3.9246363798060604, 11.447865942128061, 4.0463287750349295], "label": "O", "properties": {}}, {"species": [{"element": "O", "occu": 1}], "abc": [0.80607248, 0.83756797, 0.04242964], "xyz": [4.01250467027808, 10.232120628194021, 1.8039525335915598], "label": "O", "properties": {}}, {"species": [{"element": "O", "occu": 1}], "abc": [0.70455106, 0.21031392, 0.10595426], "xyz": [3.5071466758167604, 2.56929285300672, 4.50478617711154], "label": "O", "properties": {}}, {"species": [{"element": "O", "occu": 1}], "abc": [0.3113832, 0.40664213, 0.05506387], "xyz": [1.5500176165872002, 4.96772975531258, 2.34111361293323], "label": "O", "properties": {}}, {"species": [{"element": "O", "occu": 1}], "abc": [0.38189996, 0.94050652, 0.05877493], "xyz": [1.9010391882861601, 11.48966592435832, 2.49889426083197], "label": "O", "properties": {}}, {"species": [{"element": "O", "occu": 1}], "abc": [0.61579497, 0.67948245, 0.1007118], "xyz": [3.0653325282346207, 8.3008742480217, 4.2818960229822], "label": "O", "properties": {}}, {"species": [{"element": "O", "occu": 1}], "abc": [0.88764104, 0.30780399, 0.03639709], "xyz": [4.4185404003998405, 3.7602769784993404, 1.54747065308261], "label": "O", "properties": {}}, {"species": [{"element": "O", "occu": 1}], "abc": [0.79503703, 0.79023451, 0.16948909], "xyz": [3.9575718996373803, 9.65387302344166, 7.20605391235061], "label": "O", "properties": {}}, {"species": [{"element": "O", "occu": 1}], "abc": [0.19967183, 0.5768687, 0.11877238], "xyz": [0.99393562027818, 7.0472968600142005, 5.04976558419302], "label": "O", "properties": {}}, {"species": [{"element": "O", "occu": 1}], "abc": [0.29549791, 0.9492816, 0.18125539000000002], "xyz": [1.47094308930186, 11.5968663908256, 7.706313794263311], "label": "O", "properties": {}}, {"species": [{"element": "O", "occu": 1}], "abc": [0.70122025, 0.16324976, 0.23209858], "xyz": [3.4905664165815002, 1.99433514254816, 9.867979587712819], "label": "O", "properties": {}}, {"species": [{"element": "O", "occu": 1}], "abc": [0.70349379, 0.31218764, 0.15845178000000001], "xyz": [3.5018837485763403, 3.81382968968024, 6.73678800911562], "label": "O", "properties": {}}, {"species": [{"element": "O", "occu": 1}], "abc": [0.29456937, 0.05420391, 0.12926527000000002], "xyz": [1.4663209601770202, 0.6621802235820601, 5.495884747593831], "label": "O", "properties": {}}, {"species": [{"element": "O", "occu": 1}], "abc": [0.20338696, 0.42689641, 0.19269271000000002], "xyz": [1.0124289652881602, 5.2151654782870605, 8.192586654261591], "label": "O", "properties": {}}, {"species": [{"element": "O", "occu": 1}], "abc": [0.79564278, 0.68552542, 0.22135298], "xyz": [3.9605872298518805, 8.37469798556572, 9.41111612281042], "label": "O", "properties": {}}, {"species": [{"element": "O", "occu": 1}], "abc": [0.20506394, 0.78559522, 0.11938560999999999], "xyz": [1.0207767134732402, 9.59719729489252, 5.075837872625689], "label": "O", "properties": {}}, {"species": [{"element": "O", "occu": 1}], "abc": [0.79476826, 0.58177629, 0.16925989000000002], "xyz": [3.9562340039679604, 7.10725026639114, 7.19630916974381], "label": "O", "properties": {}}, {"species": [{"element": "O", "occu": 1}], "abc": [0.70167974, 0.95476299, 0.23209263000000002], "xyz": [3.49285368704004, 11.66382960539334, 9.86772661555527], "label": "O", "properties": {}}, {"species": [{"element": "O", "occu": 1}], "abc": [0.29396048, 0.15768421, 0.18135919], "xyz": [1.4632899995260802, 1.9263437902018599, 7.7107269892135095], "label": "O", "properties": {}}, {"species": [{"element": "O", "occu": 1}], "abc": [0.37833756, 0.68645793, 0.18687059], "xyz": [1.8833061096957602, 8.38608996227538, 7.94505148486411], "label": "O", "properties": {}}, {"species": [{"element": "O", "occu": 1}], "abc": [0.61976737, 0.42595097, 0.22728203000000002], "xyz": [3.0851065236850204, 5.20361554267202, 9.66319756326787], "label": "O", "properties": {}}, {"species": [{"element": "O", "occu": 1}], "abc": [0.87777894, 0.05238627, 0.16378366000000003], "xyz": [4.36944838536324, 0.63997508632182, 6.963479973384141], "label": "O", "properties": {}}, {"species": [{"element": "O", "occu": 1}], "abc": [0.12005274, 0.3155399, 0.12378667], "xyz": [0.5976040515980401, 3.8547824599934, 5.26295478753443], "label": "O", "properties": {}}, {"species": [{"element": "O", "occu": 1}], "abc": [0.79801681, 0.53702142, 0.29545582000000004], "xyz": [3.9724047855912605, 6.56050391870172, 12.56169684808478], "label": "O", "properties": {}}, {"species": [{"element": "O", "occu": 1}], "abc": [0.20259442, 0.32187726, 0.24450472], "xyz": [1.00848382321932, 3.93220260296316, 10.39544311757288], "label": "O", "properties": {}}, {"species": [{"element": "O", "occu": 1}], "abc": [0.29875316, 0.69537814, 0.30780461000000003], "xyz": [1.4871472224933602, 8.49506340445324, 13.08672206647669], "label": "O", "properties": {}}, {"species": [{"element": "O", "occu": 1}], "abc": [0.70468347, 0.90953243, 0.35865438], "xyz": [3.50780579240562, 11.11127200699238, 15.24866761737102], "label": "O", "properties": {}}, {"species": [{"element": "O", "occu": 1}], "abc": [0.70342662, 0.05921212, 0.284123], "xyz": [3.5015493866605203, 0.7233628507679201, 12.079866944467], "label": "O", "properties": {}}, {"species": [{"element": "O", "occu": 1}], "abc": [0.29690676, 0.79950961, 0.25576369], "xyz": [1.4779561276389601, 9.76718196723826, 10.874133190294009], "label": "O", "properties": {}}, {"species": [{"element": "O", "occu": 1}], "abc": [0.20446203, 0.17289578, 0.31853993], "xyz": [1.0177804981873801, 2.11217541791348, 13.543148463516971], "label": "O", "properties": {}}, {"species": [{"element": "O", "occu": 1}], "abc": [0.79682287, 0.43202089, 0.34727522], "xyz": [3.96646153613802, 5.27776851397474, 14.764867507067379], "label": "O", "properties": {}}, {"species": [{"element": "O", "occu": 1}], "abc": [0.20296904, 0.53046906, 0.24482814000000003], "xyz": [1.01034862388784, 6.4804572355419605, 10.40919374869806], "label": "O", "properties": {}}, {"species": [{"element": "O", "occu": 1}], "abc": [0.79791102, 0.32844145, 0.29513394000000004], "xyz": [3.9718781792629203, 4.012393806915701, 12.548011692106261], "label": "O", "properties": {}}, {"species": [{"element": "O", "occu": 1}], "abc": [0.70578751, 0.70127363, 0.35864731], "xyz": [3.51330153350346, 8.56708545759158, 15.24836702692499], "label": "O", "properties": {}}, {"species": [{"element": "O", "occu": 1}], "abc": [0.29827027, 0.9038021, 0.30779814], "xyz": [1.4847434704384201, 11.041267625378602, 13.08644698582806], "label": "O", "properties": {}}, {"species": [{"element": "O", "occu": 1}], "abc": [0.38084568, 0.43280281, 0.31260928], "xyz": [1.8957911448052802, 5.28732081306946, 13.29099899693312], "label": "O", "properties": {}}, {"species": [{"element": "O", "occu": 1}], "abc": [0.62168985, 0.17259127, 0.35303969], "xyz": [3.0946763330631004, 2.10845538185182, 15.00995161009801], "label": "O", "properties": {}}, {"species": [{"element": "O", "occu": 1}], "abc": [0.88116386, 0.79891986, 0.29039426], "xyz": [4.386297995845561, 9.759977306414761, 12.34649789787154], "label": "O", "properties": {}}, {"species": [{"element": "O", "occu": 1}], "abc": [0.11891637, 0.05954172, 0.24945391], "xyz": [0.59194737673902, 0.72738939796152, 10.60586450789639], "label": "O", "properties": {}}, {"species": [{"element": "O", "occu": 1}], "abc": [0.80101162, 0.28247871, 0.42116033], "xyz": [3.9873124885705207, 3.4508915564388603, 17.90619115202857], "label": "O", "properties": {}}, {"species": [{"element": "O", "occu": 1}], "abc": [0.2055477, 0.06839902, 0.37044306], "xyz": [1.0231847962542, 0.8355943022633201, 15.749879014726739], "label": "O", "properties": {}}, {"species": [{"element": "O", "occu": 1}], "abc": [0.29810092, 0.44112043, 0.43305694], "xyz": [1.48390047221832, 5.38893273500038, 18.41199133677326], "label": "O", "properties": {}}, {"species": [{"element": "O", "occu": 1}], "abc": [0.70564262, 0.65928489, 0.48380172], "xyz": [3.5125802933965202, 8.05413144299874, 20.56947309828588], "label": "O", "properties": {}}, {"species": [{"element": "O", "occu": 1}], "abc": [0.70539544, 0.80514978, 0.41074184], "xyz": [3.51134986942224, 9.836084912277482, 17.46323520350536], "label": "O", "properties": {}}, {"species": [{"element": "O", "occu": 1}], "abc": [0.29609812, 0.54713044, 0.381463], "xyz": [1.4739308422495203, 6.6840004178250405, 16.218406409327], "label": "O", "properties": {}}, {"species": [{"element": "O", "occu": 1}], "abc": [0.21137363, 0.92318025, 0.44487344], "xyz": [1.05218537860098, 11.278000135996502, 18.91438553840176], "label": "O", "properties": {}}, {"species": [{"element": "O", "occu": 1}], "abc": [0.80980214, 0.1745804, 0.47260178], "xyz": [4.03107034339044, 2.1327555208664, 20.09329276446562], "label": "O", "properties": {}}, {"species": [{"element": "O", "occu": 1}], "abc": [0.20506911, 0.27694115, 0.37061924], "xyz": [1.0208024489370602, 3.3832421429759005, 15.757369541569961], "label": "O", "properties": {}}, {"species": [{"element": "O", "occu": 1}], "abc": [0.79481217, 0.07387261, 0.42043020000000003], "xyz": [3.9564525811858204, 0.9024622283962601, 17.8751487047358], "label": "O", "properties": {}}, {"species": [{"element": "O", "occu": 1}], "abc": [0.68812344, 0.45259159, 0.48475387000000003], "xyz": [3.4253725133102404, 5.52906977112094, 20.609955020943232], "label": "O", "properties": {}}, {"species": [{"element": "O", "occu": 1}], "abc": [0.29468994, 0.64897188, 0.43404861], "xyz": [1.46692113906924, 7.928142906976079, 18.45415350475269], "label": "O", "properties": {}}, {"species": [{"element": "O", "occu": 1}], "abc": [0.3848023, 0.18006225, 0.43928549], "xyz": [1.9154865898458, 2.1997243550085, 18.67680641776621], "label": "O", "properties": {}}, {"species": [{"element": "O", "occu": 1}], "abc": [0.61772948, 0.9190821, 0.48123043], "xyz": [3.0749622211000807, 11.2279352258586, 20.46015128669147], "label": "O", "properties": {}}, {"species": [{"element": "O", "occu": 1}], "abc": [0.8794742, 0.54385954, 0.41615097], "xyz": [4.3778871285732, 6.64404157918564, 17.69321155418913], "label": "O", "properties": {}}, {"species": [{"element": "O", "occu": 1}], "abc": [0.12220376, 0.8063924, 0.3762511], "xyz": [0.6083114979009601, 9.8512653372584, 15.9968155542119], "label": "O", "properties": {}}, {"species": [{"element": "O", "occu": 1}], "abc": [0.19210848, 0.81416346, 0.49568672], "xyz": [0.9562864287340801, 9.94620022753236, 21.07477966845088], "label": "O", "properties": {}}, {"species": [{"element": "O", "occu": 1}], "abc": [0.68312685, 0.56122323, 0.53649082], "xyz": [3.4005002577651, 6.85616450770518, 22.80962020859978], "label": "O", "properties": {}}, {"species": [{"element": "O", "occu": 1}], "abc": [0.19432698, 0.02243061, 0.49768006], "xyz": [0.9673297800850801, 0.27402278442426004, 21.159529167699738], "label": "O", "properties": {}}, {"species": [{"element": "O", "occu": 1}], "abc": [0.11120916, 0.55165764, 0.50355762], "xyz": [0.5535820722693601, 6.73930680270024, 21.40942144237698], "label": "O", "properties": {}}]}, "formula": "(Li3PO4)16.0", "bandgap": 4.5503, "slab_thickness": 22.94838755416972}