{"miller": "011_0.00", "final_energy": -800.0035295, "gamma": 0.04395977101963872, "work_function": 5.123687162809785, "ionization_potentail": -5.427987162809785, "electron_affinity": -0.8941871628097844, "is_stochiometric": true, "incar_parameters": {"SYSTEM": "unknown system", "LCOMPAT": false, "PREC": "normal", "ENMAX": 520.0, "ENAUG": 628.945, "EDIFF": 1e-05, "IALGO": 38, "IWAVPR": 11, "NBANDS": 370, "NBANDSLOW": -1, "NBANDSHIGH": -1, "NELECT": 608.0, "TURBO": 0, "IRESTART": 0, "NREBOOT": 0, "NMIN": 0, "EREF": 0.0, "ISMEAR": 0, "SIGMA": 0.05, "KSPACING": 0.5, "KGAMMA": true, "KBLOWUP": true, "LREAL": true, "ROPT": [-0.0005, -0.0005, -0.0005], "LMAXPAW": -100, "LMAXMIX": 2, "NLSPLINE": false, "ISTART": 0, "ICHARG": 2, "INIWAV": 1, "ISPIN": 1, "LNONCOLLINEAR": false, "MAGMOM": [0.6, 0.6, 0.6, 0.6, 0.6, 0.6, 0.6, 0.6, 0.6, 0.6, 0.6, 0.6, 0.6, 0.6, 0.6, 0.6, 0.6, 0.6, 0.6, 0.6, 0.6, 0.6, 0.6, 0.6, 0.6, 0.6, 0.6, 0.6, 0.6, 0.6, 0.6, 0.6, 0.6, 0.6, 0.6, 0.6, 0.6, 0.6, 0.6, 0.6, 0.6, 0.6, 0.6, 0.6, 0.6, 0.6, 0.6, 0.6, 0.6, 0.6, 0.6, 0.6, 0.6, 0.6, 0.6, 0.6, 0.6, 0.6, 0.6, 0.6, 0.6, 0.6, 0.6, 0.6, 0.6, 0.6, 0.6, 0.6, 0.6, 0.6, 0.6, 0.6, 0.6, 0.6, 0.6, 0.6, 0.6, 0.6, 0.6, 0.6, 0.6, 0.6, 0.6, 0.6, 0.6, 0.6, 0.6, 0.6, 0.6, 0.6, 0.6, 0.6, 0.6, 0.6, 0.6, 0.6, 0.6, 0.6, 0.6, 0.6, 0.6, 0.6, 0.6, 0.6, 0.6, 0.6, 0.6, 0.6, 0.6, 0.6, 0.6, 0.6, 0.6, 0.6, 0.6, 0.6, 0.6, 0.6, 0.6, 0.6, 0.6, 0.6, 0.6, 0.6, 0.6, 0.6, 0.6, 0.6], "NUPDOWN": -1.0, "LSORBIT": false, "SAXIS": [0.0, 0.0, 1.0], "LSPIRAL": false, "QSPIRAL": [0.0, 0.0, 0.0], "LZEROZ": false, "LASPH": false, "LMETAGGA": false, "NELM": 100, "NELMDL": -5, "NELMIN": 6, "ENINI": 520.0, "LDIAG": true, "LSUBROT": false, "WEIMIN": 0.001, "EBREAK": 1e-08, "DEPER": 0.3, "NRMM": 4, "TIME": 0.4, "AMIX": 0.4, "BMIX": 1.0, "AMIN": 0.1, "AMIX_MAG": 1.6, "BMIX_MAG": 1.0, "IMIX": 4, "MIXFIRST": false, "MAXMIX": -45, "WC": 100.0, "INIMIX": 1, "MIXPRE": 1, "MREMOVE": 5, "LDIPOL": false, "LMONO": false, "IDIPOL": 0, "EPSILON": 1.0, "DIPOL": [-100.0, -100.0, -100.0], "EFIELD": 0.0, "NGX": 28, "NGY": 70, "NGZ": 240, "NGXF": 56, "NGYF": 140, "NGZF": 480, "ADDGRID": false, "NSW": 150, "IBRION": 2, "MDALGO": 0, "ISIF": 2, "PSTRESS": 0.0, "EDIFFG": -0.01, "NFREE": 1, "POTIM": 0.5, "SMASS": -3.0, "SCALEE": 1.0, "TEBEG": 0.0001, "TEEND": 0.0001, "NBLOCK": 1, "KBLOCK": 150, "NPACO": 256, "APACO": 10.0, "ISYM": 0, "SYMPREC": 1e-05, "LORBIT": 11, "RWIGS": [-1.0, -1.0, -1.0], "NEDOS": 301, "EMIN": 10.0, "EMAX": -10.0, "EFERMI": 0.0, "NWRITE": 2, "LWAVE": false, "LDOWNSAMPLE": false, "LCHARG": false, "LPARD": false, "LVTOT": false, "LVHAR": false, "LELF": false, "LOPTICS": false, "STM": [0.0, 0.0, 0.0, 0.0, 0.0, 0.0, 0.0], "NPAR": 2, "NSIM": 4, "NBLK": -1, "LPLANE": true, "LSCALAPACK": true, "LSCAAWARE": false, "LSCALU": false, "LASYNC": false, "LORBITALREAL": false, "IDIOT": 3, "PHON_NSTRUCT": -1, "LMUSIC": false, "POMASS": [7.01, 30.974, 16.0], "DARWINR": [0.0, 0.0, 0.0], "DARWINV": [1.0, 1.0, 1.0], "LCORR": true, "GGA_COMPAT": true, "LBERRY": false, "ICORELEVEL": 0, "LDAU": false, "I_CONSTRAINED_M": 0, "GGA": "--", "VOSKOWN": 0, "LHFCALC": false, "PRECFOCK": "", "LSYMGRAD": false, "LHFONE": false, "LRHFCALC": false, "LTHOMAS": false, "LMODELHF": false, "LFOCKACE": false, "ENCUT4O": -1.0, "EXXOEP": 0, "FOURORBIT": 0, "AEXX": 0.0, "HFALPHA": 0.0, "MCALPHA": 0.0, "ALDAX": 1.0, "AGGAX": 1.0, "ALDAC": 1.0, "AGGAC": 1.0, "NKREDX": 1, "NKREDY": 1, "NKREDZ": 1, "SHIFTRED": false, "ODDONLY": false, "EVENONLY": false, "LMAXFOCK": 0, "NMAXFOCKAE": 0, "LFOCKAEDFT": false, "HFSCREEN": 0.0, "HFSCREENC": 0.0, "NBANDSGWLOW": 0, "LUSE_VDW": false, "Zab_VDW": -0.8491, "PARAM1": 0.1234, "PARAM2": 1.0, "PARAM3": 0.0, "MODEL_GW": 0, "MODEL_EPS0": 12.11948281, "MODEL_ALPHA": 1.0, "LEPSILON": false, "LRPA": false, "LNABLA": false, "LVEL": false, "CSHIFT": 0.1, "OMEGAMAX": -1.0, "DEG_THRESHOLD": 0.002, "RTIME": -0.1, "WPLASMAI": 0.0, "DFIELD": [0.0, 0.0, 0.0], "WPLASMA": [0.0, 0.0, 0.0, 0.0, 0.0, 0.0, 0.0, 0.0, 0.0], "NUCIND": false, "MAGPOS": [0.0, 0.0, 0.0], "LNICSALL": true, "ORBITALMAG": false, "LMAGBLOCH": false, "LCHIMAG": false, "LGAUGE": true, "MAGATOM": 0, "MAGDIPOL": [0.0, 0.0, 0.0], "AVECCONST": [0.0, 0.0, 0.0], "LFINITE_TEMPERATURE": false, "LADDER": false, "LRPAFORCE": false, "LFXC": false, "LHARTREE": true, "IBSE": 0, "KPOINT": [-1, 0, 0, 0], "LTCTC": false, "LTCTE": false, "LTETE": false, "LTRIPLET": false, "LFXCEPS": false, "LFXHEG": false, "NATURALO": 2, "LHOLEGF": false, "L2ORDER": false, "LDMP1": false, "LMP2LT": false, "LSMP2LT": false, "LGWLF": false, "ENCUTGW": -2.0, "ENCUTGWSOFT": -2.0, "ENCUTLF": -1.0, "LESF_SPLINES": false, "LMAXMP2": -1, "SCISSOR": 0.0, "NOMEGA": 0, "NOMEGAR": 0, "NBANDSGW": -1, "NBANDSO": -1, "NBANDSV": -1, "NELMGW": 1, "NELMHF": 1, "DIM": 3, "IESPILON": 4, "ANTIRES": 0, "OMEGAMIN": -30.0, "OMEGATL": -200.0, "OMEGAGRID": 0, "LSELFENERGY": false, "LSPECTRAL": false, "LSPECTRALGW": false, "LSINGLES": false, "LFERMIGW": false, "ODDONLYGW": false, "EVENONLYGW": false, "NKREDLFX": 1, "NKREDLFY": 1, "NKREDLFZ": 1, "MAXMEM": 2800, "TELESCOPE": 0, "NTAUPAR": -1, "NOMEGAPAR": -1, "DAMP_NEWTON": 0.80000001, "LAMBDA": 1.0, "OFIELD_KAPPA": 0.0, "OFIELD_K": [0.0, 0.0, 0.0], "OFIELD_Q6_NEAR": 0.0, "OFIELD_Q6_FAR": 0.0, "OFIELD_A": 0.0, "KPOINTS_OPT_MODE": 1, "LKPOINTS_OPT": false, "@module": "pymatgen.io.vasp.inputs", "@class": "Incar"}, "relaxed_structures": {"@module": "pymatgen.core.structure", "@class": "Structure", "charge": 0, "lattice": {"matrix": [[4.977846, 0.0, 0.0], [0.0, 12.216466, 0.0], [0.0, 0.0, 42.516329]], "a": 4.977846, "b": 12.216466, "c": 42.516329, "alpha": 90.0, "beta": 90.0, "gamma": 90.0, "volume": 2585.4896665474557}, "sites": [{"species": [{"element": "Li", "occu": 1}], "abc": [0.18758896, 0.99976643, 0.06928042000000001], "xyz": [0.9337889541801601, 12.213612600036381, 2.9455491299781804], "label": "Li", "properties": {}}, {"species": [{"element": "Li", "occu": 1}], "abc": [0.70184483, 0.12390026, 0.08654268000000001], "xyz": [3.49367547963618, 1.51362331368116, 3.6794770554217204], "label": "Li", "properties": {}}, {"species": [{"element": "Li", "occu": 1}], "abc": [0.32128556, 0.60720256, 9.99999999999994e-05], "xyz": [1.5993100397037603, 7.41786942935296, 0.004251632899999974], "label": "Li", "properties": {}}, {"species": [{"element": "Li", "occu": 1}], "abc": [0.29495478, 0.49573631, 0.06322821], "xyz": [1.4682394718038803, 6.05614577608046, 2.68823137844109], "label": "Li", "properties": {}}, {"species": [{"element": "Li", "occu": 1}], "abc": [0.69013969, 0.25568674, 0.026391269999999998], "xyz": [3.4354090953077403, 3.1235883658608405, 1.12205991804783], "label": "Li", "properties": {}}, {"species": [{"element": "Li", "occu": 1}], "abc": [0.79213876, 0.6235877, 0.08459214000000001], "xyz": [3.9431447579109604, 7.6180379350682, 3.5965472550540603], "label": "Li", "properties": {}}, {"species": [{"element": "Li", "occu": 1}], "abc": [0.18682317, 0.75460516, 0.07350613], "xyz": [0.9299769694918202, 9.21860828056456, 3.12521080659677], "label": "Li", "properties": {}}, {"species": [{"element": "Li", "occu": 1}], "abc": [0.30524002, 0.37278231, 0.0080046], "xyz": [1.5194378125969201, 4.5540824155164605, 0.3403262071134], "label": "Li", "properties": {}}, {"species": [{"element": "Li", "occu": 1}], "abc": [0.70660819, 0.368229, 0.08478132000000001], "xyz": [3.5173867521587403, 4.498457058714, 3.60459049417428], "label": "Li", "properties": {}}, {"species": [{"element": "Li", "occu": 1}], "abc": [0.19689378, 0.74139971, 0.19025339], "xyz": [0.9801069151978801, 9.057284349624862, 8.088875722605309], "label": "Li", "properties": {}}, {"species": [{"element": "Li", "occu": 1}], "abc": [0.8029139, 0.4979374, 0.14876793], "xyz": [3.9967817454594003, 6.0830353172284, 6.325066256528969], "label": "Li", "properties": {}}, {"species": [{"element": "Li", "occu": 1}], "abc": [0.69731349, 0.87145587, 0.21177124], "xyz": [3.47111916694254, 10.64611100635542, 9.00373571257796], "label": "Li", "properties": {}}, {"species": [{"element": "Li", "occu": 1}], "abc": [0.30398936, 0.36792648, 0.12765248], "xyz": [1.51321221971856, 4.49476133341968, 5.427314837345921], "label": "Li", "properties": {}}, {"species": [{"element": "Li", "occu": 1}], "abc": [0.30342727, 0.24413721, 0.19034583], "xyz": [1.5104142222604202, 2.98249392529986, 8.09280593205807], "label": "Li", "properties": {}}, {"species": [{"element": "Li", "occu": 1}], "abc": [0.69737001, 0.9975402, 0.14990274], "xyz": [3.4714005147984603, 12.1864159369332, 6.3733142118414605], "label": "Li", "properties": {}}, {"species": [{"element": "Li", "occu": 1}], "abc": [0.8026657, 0.37123434, 0.21252741], "xyz": [3.9955462440822007, 4.53517169264244, 9.03588528507789], "label": "Li", "properties": {}}, {"species": [{"element": "Li", "occu": 1}], "abc": [0.19806326, 0.87131578, 0.1282527], "xyz": [0.98592840653796, 10.64439960163348, 5.4528339883383], "label": "Li", "properties": {}}, {"species": [{"element": "Li", "occu": 1}], "abc": [0.79424091, 0.73796008, 0.14733672], "xyz": [3.9536089368798604, 9.01526422667728, 6.26421646130088], "label": "Li", "properties": {}}, {"species": [{"element": "Li", "occu": 1}], "abc": [0.19951382, 0.50042672, 0.19191839], "xyz": [0.9931490708317201, 6.11344601037152, 8.159665410390309], "label": "Li", "properties": {}}, {"species": [{"element": "Li", "occu": 1}], "abc": [0.3027521, 0.1292468, 0.12980986], "xyz": [1.5070533299766002, 1.5789391378088, 5.51903871520394], "label": "Li", "properties": {}}, {"species": [{"element": "Li", "occu": 1}], "abc": [0.70203293, 0.11309435, 0.21078249000000002], "xyz": [3.49461181246878, 1.3816132815671, 8.96169769227921], "label": "Li", "properties": {}}, {"species": [{"element": "Li", "occu": 1}], "abc": [0.19752489, 0.48800928, 0.31652957], "xyz": [0.9832484835869402, 5.96174877680448, 13.45767533634853], "label": "Li", "properties": {}}, {"species": [{"element": "Li", "occu": 1}], "abc": [0.80338849, 0.24426114, 0.27467727999999997], "xyz": [3.9991441813925404, 2.98400791193124, 11.678269605305118], "label": "Li", "properties": {}}, {"species": [{"element": "Li", "occu": 1}], "abc": [0.69830314, 0.61730825, 0.33818527], "xyz": [3.4760454922364405, 7.5413252476445, 14.378396202273828], "label": "Li", "properties": {}}, {"species": [{"element": "Li", "occu": 1}], "abc": [0.30322693, 0.11435071, 0.25357869], "xyz": [1.50941696059278, 1.39696156079086, 10.78123501142901], "label": "Li", "properties": {}}, {"species": [{"element": "Li", "occu": 1}], "abc": [0.30281759, 0.98832177, 0.31603296999999997], "xyz": [1.5073793291111404, 12.07379930026482, 13.436561727367128], "label": "Li", "properties": {}}, {"species": [{"element": "Li", "occu": 1}], "abc": [0.69760826, 0.7428799, 0.27533543], "xyz": [3.4725864866079603, 9.0753670404334, 11.70625172723647], "label": "Li", "properties": {}}, {"species": [{"element": "Li", "occu": 1}], "abc": [0.80294052, 0.11601112, 0.33811879], "xyz": [3.9969142557199207, 1.41724590310192, 14.375569716721909], "label": "Li", "properties": {}}, {"species": [{"element": "Li", "occu": 1}], "abc": [0.19809119, 0.61608472, 0.25286927], "xyz": [0.9860674377767401, 7.526378034999521, 10.75107307730983], "label": "Li", "properties": {}}, {"species": [{"element": "Li", "occu": 1}], "abc": [0.79877482, 0.48581163, 0.27351974999999995], "xyz": [3.9761780426377205, 5.93490126029958, 11.629055678997748], "label": "Li", "properties": {}}, {"species": [{"element": "Li", "occu": 1}], "abc": [0.20388215, 0.24608951, 0.31752229], "xyz": [1.0148939448489, 3.00634413187166, 13.499882146473409], "label": "Li", "properties": {}}, {"species": [{"element": "Li", "occu": 1}], "abc": [0.29909912, 0.8732307, 0.25487823], "xyz": [1.4888693580955201, 10.667793156706201, 10.83648668161767], "label": "Li", "properties": {}}, {"species": [{"element": "Li", "occu": 1}], "abc": [0.70148605, 0.85900502, 0.33616377999999997], "xyz": [3.4918895280483, 10.49400562065932, 14.292449868363619], "label": "Li", "properties": {}}, {"species": [{"element": "Li", "occu": 1}], "abc": [0.20163511, 0.23480198, 0.44198018], "xyz": [1.00370852577306, 2.86845040540268, 18.79137474435922], "label": "Li", "properties": {}}, {"species": [{"element": "Li", "occu": 1}], "abc": [0.80389628, 0.9909583, 0.40094892], "xyz": [4.0016718818128805, 12.1060083793678, 17.046876194914677], "label": "Li", "properties": {}}, {"species": [{"element": "Li", "occu": 1}], "abc": [0.68752465, 0.35982702, 0.4588768], "xyz": [3.4223918289039, 4.39581455571132, 19.5097569992672], "label": "Li", "properties": {}}, {"species": [{"element": "Li", "occu": 1}], "abc": [0.30358084, 0.861369, 0.37935663], "xyz": [1.5111786700706402, 10.522885101954001, 16.12885128941127], "label": "Li", "properties": {}}, {"species": [{"element": "Li", "occu": 1}], "abc": [0.29106842, 0.73574565, 0.4439834], "xyz": [1.44889377022332, 8.9882117178729, 18.876544304938598], "label": "Li", "properties": {}}, {"species": [{"element": "Li", "occu": 1}], "abc": [0.70017178, 0.48848586, 0.40026955999999997], "xyz": [3.4853472943858805, 5.96757090017076, 17.01799230164524], "label": "Li", "properties": {}}, {"species": [{"element": "Li", "occu": 1}], "abc": [0.79531168, 0.86365992, 0.46533798], "xyz": [3.9589390650412803, 10.55087204824272, 19.78446265387542], "label": "Li", "properties": {}}, {"species": [{"element": "Li", "occu": 1}], "abc": [0.19953571, 0.36157764, 0.37847253], "xyz": [0.9932580358806601, 4.41720094542024, 16.09126260294237], "label": "Li", "properties": {}}, {"species": [{"element": "Li", "occu": 1}], "abc": [0.80276303, 0.23015683, 0.39858895], "xyz": [3.9960307378333804, 2.8117030883627803, 16.94653893396455], "label": "Li", "properties": {}}, {"species": [{"element": "Li", "occu": 1}], "abc": [0.20671802, 0.99087613, 0.44378535999999996], "xyz": [1.0290104689849202, 12.10500455235658, 18.868124371143438], "label": "Li", "properties": {}}, {"species": [{"element": "Li", "occu": 1}], "abc": [0.29728528, 0.62204645, 0.38105194], "xyz": [1.47984034190688, 7.599209306845701, 16.20092964712826], "label": "Li", "properties": {}}, {"species": [{"element": "Li", "occu": 1}], "abc": [0.68676383, 0.60486378, 0.45476068999999997], "xyz": [3.41860458411018, 7.3892978030014795, 19.334755112307008], "label": "Li", "properties": {}}, {"species": [{"element": "Li", "occu": 1}], "abc": [0.81762947, 0.75071192, 0.52850476], "xyz": [4.07003358672162, 9.17104664647472, 22.47008225422604], "label": "Li", "properties": {}}, {"species": [{"element": "Li", "occu": 1}], "abc": [0.18889661, 0.10204328, 0.50216924], "xyz": [0.9402982345020601, 1.24660826064848, 21.35039262151996], "label": "Li", "properties": {}}, {"species": [{"element": "Li", "occu": 1}], "abc": [0.80469482, 0.98563231, 0.52083735], "xyz": [4.0056468909577205, 12.04094360361646, 22.144092128088147], "label": "Li", "properties": {}}, {"species": [{"element": "P", "occu": 1}], "abc": [0.70150422, 0.87706784, 0.08748166], "xyz": [3.4919799755101204, 10.71466944705344, 3.71939903802614], "label": "P", "properties": {}}, {"species": [{"element": "P", "occu": 1}], "abc": [0.19651912, 0.24276008, 0.06472299000000001], "xyz": [0.9782419154155201, 2.96567026347728, 2.7517839367037102], "label": "P", "properties": {}}, {"species": [{"element": "P", "occu": 1}], "abc": [0.79368062, 0.50035567, 0.02119271], "xyz": [3.9508198995445203, 6.11257803046222, 0.90103623076159], "label": "P", "properties": {}}, {"species": [{"element": "P", "occu": 1}], "abc": [0.69273996, 0.62283265, 0.21217882000000002], "xyz": [3.4483528389261604, 7.6088138924149, 9.02106451795178], "label": "P", "properties": {}}, {"species": [{"element": "P", "occu": 1}], "abc": [0.30733785, 0.61461745, 0.12714799000000002], "xyz": [1.5298804872711003, 7.5084531809317, 5.405865774528711], "label": "P", "properties": {}}, {"species": [{"element": "P", "occu": 1}], "abc": [0.19284171, 0.99106738, 0.19044379], "xyz": [0.9599363347566601, 12.107340951479081, 8.09697083164691], "label": "P", "properties": {}}, {"species": [{"element": "P", "occu": 1}], "abc": [0.80839988, 0.25008013, 0.14972941], "xyz": [4.02409010905848, 3.0550954054205803, 6.36594485653589], "label": "P", "properties": {}}, {"species": [{"element": "P", "occu": 1}], "abc": [0.6935529, 0.36813557, 0.3379394], "xyz": [3.4523995290534004, 4.497315674295621, 14.3679427124626], "label": "P", "properties": {}}, {"species": [{"element": "P", "occu": 1}], "abc": [0.30727443, 0.36383292, 0.25316503999999995], "xyz": [1.52956479227778, 4.44475249686072, 10.763648131938158], "label": "P", "properties": {}}, {"species": [{"element": "P", "occu": 1}], "abc": [0.19325198, 0.73620041, 0.31611982], "xyz": [0.96197859563508, 8.993767277951061, 13.44025427054078], "label": "P", "properties": {}}, {"species": [{"element": "P", "occu": 1}], "abc": [0.8072774, 0.99545955, 0.27523088999999995], "xyz": [4.0185025764804, 12.1609977469503, 11.701807070202808], "label": "P", "properties": {}}, {"species": [{"element": "P", "occu": 1}], "abc": [0.69625548, 0.11612048, 0.46386606999999996], "xyz": [3.4658525560960807, 1.41858189582368, 19.721882444057027], "label": "P", "properties": {}}, {"species": [{"element": "P", "occu": 1}], "abc": [0.30849991, 0.10903317, 0.37878976999999997], "xyz": [1.53566504299386, 1.3320000141772201, 16.10475048315433], "label": "P", "properties": {}}, {"species": [{"element": "P", "occu": 1}], "abc": [0.20157343, 0.482288, 0.44084999999999996], "xyz": [1.00340149223178, 5.891854954208, 18.743323639649997], "label": "P", "properties": {}}, {"species": [{"element": "P", "occu": 1}], "abc": [0.80784239, 0.74497396, 0.40124007], "xyz": [4.02131500969194, 9.10094905322536, 17.05925482410303], "label": "P", "properties": {}}, {"species": [{"element": "P", "occu": 1}], "abc": [0.29228778, 0.85803546, 0.50745564], "xyz": [1.4549635565218801, 10.48216102388436, 21.57515094314556], "label": "P", "properties": {}}, {"species": [{"element": "O", "occu": 1}], "abc": [0.81111291, 0.98254662, 0.07199052], "xyz": [4.03759515459186, 12.003247376644921, 3.06077263320108], "label": "O", "properties": {}}, {"species": [{"element": "O", "occu": 1}], "abc": [0.29892757, 0.14006551, 0.08292831], "xyz": [1.48801540861422, 1.71110554068766, 3.52580731137399], "label": "O", "properties": {}}, {"species": [{"element": "O", "occu": 1}], "abc": [0.68190112, 0.60032407, 0.003630480000000002], "xyz": [3.3943987625875205, 7.3338385901366205, 0.15435468210792008], "label": "O", "properties": {}}, {"species": [{"element": "O", "occu": 1}], "abc": [0.70597877, 0.50166124, 0.05675705], "xyz": [3.51425359632942, 6.12852748197784, 2.41310141086945], "label": "O", "properties": {}}, {"species": [{"element": "O", "occu": 1}], "abc": [0.30354374, 0.23974284, 0.030481539999999998], "xyz": [1.5109939919840403, 2.9288102536034404, 1.2959631830666598], "label": "O", "properties": {}}, {"species": [{"element": "O", "occu": 1}], "abc": [0.20286552, 0.61286543, 0.09244521], "xyz": [1.00983331726992, 7.487049688170381, 3.93043096283409], "label": "O", "properties": {}}, {"species": [{"element": "O", "occu": 1}], "abc": [0.8101761, 0.77392901, 0.07081431], "xyz": [4.0329318586806, 9.454677437078661, 3.0107645018679903], "label": "O", "properties": {}}, {"species": [{"element": "O", "occu": 1}], "abc": [0.69315046, 0.39197289, 0.00593173], "xyz": [3.4503962447091605, 4.78852348360674, 0.25219538421917], "label": "O", "properties": {}}, {"species": [{"element": "O", "occu": 1}], "abc": [0.29684778, 0.34856578, 0.08160780000000001], "xyz": [1.47766253428188, 4.25824200013348, 3.4696640737662], "label": "O", "properties": {}}, {"species": [{"element": "O", "occu": 1}], "abc": [0.38479468, 0.87852888, 0.08628054], "xyz": [1.9154486586592803, 10.73251819253808, 3.66833182493766], "label": "O", "properties": {}}, {"species": [{"element": "O", "occu": 1}], "abc": [0.88258587, 0.24239184, 0.06446912], "xyz": [4.3933765426360205, 2.96117167203744, 2.74099031626048], "label": "O", "properties": {}}, {"species": [{"element": "O", "occu": 1}], "abc": [0.11257231, 0.50242442, 0.02035003], "xyz": [0.56036762304426, 6.13785084449972, 0.86520857063987], "label": "O", "properties": {}}, {"species": [{"element": "O", "occu": 1}], "abc": [0.79571012, 0.72736059, 0.19486241], "xyz": [3.96092243800152, 8.88577591747494, 8.28483433329289], "label": "O", "properties": {}}, {"species": [{"element": "O", "occu": 1}], "abc": [0.20430525, 0.51110051, 0.14476299], "xyz": [1.0170000714915, 6.243842002997661, 6.15479090986371], "label": "O", "properties": {}}, {"species": [{"element": "O", "occu": 1}], "abc": [0.29562174, 0.88565809, 0.20735324], "xyz": [1.4715594959720402, 10.81961194410994, 8.815898571055959], "label": "O", "properties": {}}, {"species": [{"element": "O", "occu": 1}], "abc": [0.70528522, 0.35430211, 0.13225102], "xyz": [3.5108012112361204, 4.32831968054326, 5.62282787690558], "label": "O", "properties": {}}, {"species": [{"element": "O", "occu": 1}], "abc": [0.70462523, 0.25076253, 0.1843709], "xyz": [3.5075158826545803, 3.06343192181898, 7.8387738424261], "label": "O", "properties": {}}, {"species": [{"element": "O", "occu": 1}], "abc": [0.2953029, 0.99161303, 0.1557424], "xyz": [1.4699723595534, 12.11400686615198, 6.6215951176496], "label": "O", "properties": {}}, {"species": [{"element": "O", "occu": 1}], "abc": [0.20360199, 0.36413439, 0.21851784], "xyz": [1.0134993515135402, 4.44843539486574, 9.290576377809359], "label": "O", "properties": {}}, {"species": [{"element": "O", "occu": 1}], "abc": [0.78926379, 0.87519339, 0.12299196000000001], "xyz": [3.9288335999963406, 10.69177029235974, 5.22916663571484], "label": "O", "properties": {}}, {"species": [{"element": "O", "occu": 1}], "abc": [0.20392303, 0.71969681, 0.1439271], "xyz": [1.01509743919338, 8.79215160967346, 6.1192519356159], "label": "O", "properties": {}}, {"species": [{"element": "O", "occu": 1}], "abc": [0.79627988, 0.51906816, 0.19479506], "xyz": [3.9637586155384805, 6.34117852832256, 8.28197085853474], "label": "O", "properties": {}}, {"species": [{"element": "O", "occu": 1}], "abc": [0.70545445, 0.14592598, 0.1325797], "xyz": [3.5116436121147, 1.7826997731866803, 5.6368021439213], "label": "O", "properties": {}}, {"species": [{"element": "O", "occu": 1}], "abc": [0.29803396, 0.09456266, 0.20782257], "xyz": [1.4835671556501602, 1.1552215207595602, 8.83585275974553], "label": "O", "properties": {}}, {"species": [{"element": "O", "occu": 1}], "abc": [0.37902245, 0.62358202, 0.21234796], "xyz": [1.8867153866427002, 7.61796854554132, 9.02825572983884], "label": "O", "properties": {}}, {"species": [{"element": "O", "occu": 1}], "abc": [0.62045214, 0.61414571, 0.12652822], "xyz": [3.0885152032904406, 7.502690185260859, 5.37951542930438], "label": "O", "properties": {}}, {"species": [{"element": "O", "occu": 1}], "abc": [0.87949823, 0.99071053, 0.19043616], "xyz": [4.378006746212581, 12.10298150558698, 8.09664643205664], "label": "O", "properties": {}}, {"species": [{"element": "O", "occu": 1}], "abc": [0.12200159, 0.25115005, 0.14996705000000002], "xyz": [0.60730512677514, 3.0681660467233005, 6.376048436959451], "label": "O", "properties": {}}, {"species": [{"element": "O", "occu": 1}], "abc": [0.79638007, 0.4735304, 0.32103560999999997], "xyz": [3.9642573459292203, 5.7848680315664005, 13.649255615475688], "label": "O", "properties": {}}, {"species": [{"element": "O", "occu": 1}], "abc": [0.20506258, 0.25874677, 0.27024644999999997], "xyz": [1.02076994360268, 3.16097111831482, 11.489886979282048], "label": "O", "properties": {}}, {"species": [{"element": "O", "occu": 1}], "abc": [0.29658004, 0.63184206, 0.33348959], "xyz": [1.4763297657938401, 7.71887704335996, 14.17875312651511], "label": "O", "properties": {}}, {"species": [{"element": "O", "occu": 1}], "abc": [0.70505865, 0.10038251, 0.25806297], "xyz": [3.5096733806679, 1.22631952040966, 10.97189013523713], "label": "O", "properties": {}}, {"species": [{"element": "O", "occu": 1}], "abc": [0.70354386, 0.99546149, 0.30987362999999996], "xyz": [3.5021329893255606, 12.16102144689434, 13.174689201504268], "label": "O", "properties": {}}, {"species": [{"element": "O", "occu": 1}], "abc": [0.2963765, 0.73594933, 0.28144611999999997], "xyz": [1.475316575019, 8.99069996766778, 11.966055833693478], "label": "O", "properties": {}}, {"species": [{"element": "O", "occu": 1}], "abc": [0.20460745, 0.10844348, 0.34414358], "xyz": [1.0185043765527, 1.32479608634168, 14.63172167051782], "label": "O", "properties": {}}, {"species": [{"element": "O", "occu": 1}], "abc": [0.7962099, 0.62290732, 0.24684083999999998], "xyz": [3.9634102658754005, 7.609726095931121, 10.494766364076359], "label": "O", "properties": {}}, {"species": [{"element": "O", "occu": 1}], "abc": [0.20324024, 0.46753417, 0.27055995], "xyz": [1.01169861572304, 5.711615291643221, 11.50321584842355], "label": "O", "properties": {}}, {"species": [{"element": "O", "occu": 1}], "abc": [0.79885415, 0.2647022, 0.32053655999999997], "xyz": [3.9765729351609007, 3.2337254264252002, 13.628037841488238], "label": "O", "properties": {}}, {"species": [{"element": "O", "occu": 1}], "abc": [0.70328818, 0.89171677, 0.25784104999999996], "xyz": [3.5008602536602806, 10.89362760233482, 10.962454911505448], "label": "O", "properties": {}}, {"species": [{"element": "O", "occu": 1}], "abc": [0.29669308, 0.84014056, 0.33343863999999995], "xyz": [1.4768924615056802, 10.263548586460962, 14.176586919552557], "label": "O", "properties": {}}, {"species": [{"element": "O", "occu": 1}], "abc": [0.38019078, 0.3684517, 0.33790165], "xyz": [1.89253115345988, 4.5011776656922, 14.36633772104285], "label": "O", "properties": {}}, {"species": [{"element": "O", "occu": 1}], "abc": [0.62085375, 0.36331278, 0.25298287999999997], "xyz": [3.0905143560225, 4.43839822423548, 10.755903357447519], "label": "O", "properties": {}}, {"species": [{"element": "O", "occu": 1}], "abc": [0.87957784, 0.73539034, 0.31595147999999995], "xyz": [4.378403032532641, 8.983871085338441, 13.433097071716917], "label": "O", "properties": {}}, {"species": [{"element": "O", "occu": 1}], "abc": [0.1209084, 0.99587036, 0.27545947], "xyz": [0.6018633953064001, 12.16601639334776, 11.71152545268563], "label": "O", "properties": {}}, {"species": [{"element": "O", "occu": 1}], "abc": [0.79870814, 0.21887983, 0.44568573], "xyz": [3.9758461198664405, 2.67393800128078, 18.94892112728517], "label": "O", "properties": {}}, {"species": [{"element": "O", "occu": 1}], "abc": [0.20542941, 0.00490363, 0.39629805999999995], "xyz": [1.0225959668508602, 0.05990502917158, 16.849138701021737], "label": "O", "properties": {}}, {"species": [{"element": "O", "occu": 1}], "abc": [0.31082411, 0.37664014, 0.45627818], "xyz": [1.5472345526670601, 4.601211464545241, 19.39927321640122], "label": "O", "properties": {}}, {"species": [{"element": "O", "occu": 1}], "abc": [0.70478498, 0.84832069, 0.38354828999999996], "xyz": [3.5083110935530804, 10.36348086648154, 16.30706528502741], "label": "O", "properties": {}}, {"species": [{"element": "O", "occu": 1}], "abc": [0.7026692, 0.74675633, 0.43591773], "xyz": [3.4977790665432003, 9.12272331572978, 18.53362162561317], "label": "O", "properties": {}}, {"species": [{"element": "O", "occu": 1}], "abc": [0.28935709, 0.4844278, 0.40534529999999996], "xyz": [1.44037503302814, 5.917995748154801, 17.2337941334037], "label": "O", "properties": {}}, {"species": [{"element": "O", "occu": 1}], "abc": [0.20477653, 0.8573193, 0.47188441], "xyz": [1.0193460307543802, 10.4734120795938, 20.062792825530888], "label": "O", "properties": {}}, {"species": [{"element": "O", "occu": 1}], "abc": [0.79552819, 0.36757565, 0.37265977], "xyz": [3.9600168184787403, 4.4904754306529, 15.844125386384329], "label": "O", "properties": {}}, {"species": [{"element": "O", "occu": 1}], "abc": [0.20573219, 0.21323435, 0.39593044], "xyz": [1.02410315906274, 2.6049701868071, 16.83350884815476], "label": "O", "properties": {}}, {"species": [{"element": "O", "occu": 1}], "abc": [0.79657338, 0.01047659, 0.44690004], "xyz": [3.9652196133394804, 0.12798690553094, 19.00054913075316], "label": "O", "properties": {}}, {"species": [{"element": "O", "occu": 1}], "abc": [0.7048818, 0.63973768, 0.3844819], "xyz": [3.5087930486028003, 7.81533361663888, 16.3467589549451], "label": "O", "properties": {}}, {"species": [{"element": "O", "occu": 1}], "abc": [0.31014318, 0.58528421, 0.45760635], "xyz": [1.5438449879902802, 7.15010465180186, 19.45574212908915], "label": "O", "properties": {}}, {"species": [{"element": "O", "occu": 1}], "abc": [0.38229021, 0.1164594, 0.46416135], "xyz": [1.9029817926876602, 1.4227223004804002, 19.734436665684147], "label": "O", "properties": {}}, {"species": [{"element": "O", "occu": 1}], "abc": [0.62212763, 0.10801301, 0.3785268], "xyz": [3.0968555344849804, 1.3195372642226602, 16.0935699641172], "label": "O", "properties": {}}, {"species": [{"element": "O", "occu": 1}], "abc": [0.88479993, 0.48090457, 0.44209436999999996], "xyz": [4.404397792350781, 5.87495432864962, 18.796229683967727], "label": "O", "properties": {}}, {"species": [{"element": "O", "occu": 1}], "abc": [0.12092622, 0.74552812, 0.40191222], "xyz": [0.60195210052212, 9.107718930023921, 17.08783217464038], "label": "O", "properties": {}}, {"species": [{"element": "O", "occu": 1}], "abc": [0.17975094, 0.75793202, 0.52490491], "xyz": [0.89477249767524, 9.259250752641321, 22.317029847275386], "label": "O", "properties": {}}, {"species": [{"element": "O", "occu": 1}], "abc": [0.80332832, 0.11852685, 0.49810747], "xyz": [3.99884466439872, 1.4479792331121002, 21.177701071877628], "label": "O", "properties": {}}, {"species": [{"element": "O", "occu": 1}], "abc": [0.19269002, 0.96634287, 0.5228569], "xyz": [0.9591812452969201, 11.80529481569742, 22.2299559803201], "label": "O", "properties": {}}, {"species": [{"element": "O", "occu": 1}], "abc": [0.61115603, 0.85591468, 0.50827164], "xyz": [3.04224059931138, 10.456252587120881, 21.60984426760956], "label": "O", "properties": {}}]}, "formula": "(Li3PO4)16.0", "bandgap": 4.5338, "slab_thickness": 22.465830621326038}