{"miller": "100_0.25", "final_energy": -1000.23215161, "gamma": 0.04971458019451647, "work_function": "Not calculated", "ionization_potentail": "Not calculated", "electron_affinity": "Not calculated", "is_stochiometric": true, "incar_parameters": {"SYSTEM": "unknown system", "LCOMPAT": false, "PREC": "normal", "ENMAX": 520.0, "ENAUG": 628.945, "EDIFF": 1e-05, "IALGO": 38, "IWAVPR": 11, "NBANDS": 462, "NBANDSLOW": -1, "NBANDSHIGH": -1, "NELECT": 760.0, "TURBO": 0, "IRESTART": 0, "NREBOOT": 0, "NMIN": 0, "EREF": 0.0, "ISMEAR": 0, "SIGMA": 0.05, "KSPACING": 0.5, "KGAMMA": true, "KBLOWUP": true, "LREAL": true, "ROPT": [-0.0005, -0.0005, -0.0005], "LMAXPAW": -100, "LMAXMIX": 2, "NLSPLINE": false, "ISTART": 0, "ICHARG": 2, "INIWAV": 1, "ISPIN": 1, "LNONCOLLINEAR": false, "MAGMOM": [0.6, 0.6, 0.6, 0.6, 0.6, 0.6, 0.6, 0.6, 0.6, 0.6, 0.6, 0.6, 0.6, 0.6, 0.6, 0.6, 0.6, 0.6, 0.6, 0.6, 0.6, 0.6, 0.6, 0.6, 0.6, 0.6, 0.6, 0.6, 0.6, 0.6, 0.6, 0.6, 0.6, 0.6, 0.6, 0.6, 0.6, 0.6, 0.6, 0.6, 0.6, 0.6, 0.6, 0.6, 0.6, 0.6, 0.6, 0.6, 0.6, 0.6, 0.6, 0.6, 0.6, 0.6, 0.6, 0.6, 0.6, 0.6, 0.6, 0.6, 0.6, 0.6, 0.6, 0.6, 0.6, 0.6, 0.6, 0.6, 0.6, 0.6, 0.6, 0.6, 0.6, 0.6, 0.6, 0.6, 0.6, 0.6, 0.6, 0.6, 0.6, 0.6, 0.6, 0.6, 0.6, 0.6, 0.6, 0.6, 0.6, 0.6, 0.6, 0.6, 0.6, 0.6, 0.6, 0.6, 0.6, 0.6, 0.6, 0.6, 0.6, 0.6, 0.6, 0.6, 0.6, 0.6, 0.6, 0.6, 0.6, 0.6, 0.6, 0.6, 0.6, 0.6, 0.6, 0.6, 0.6, 0.6, 0.6, 0.6, 0.6, 0.6, 0.6, 0.6, 0.6, 0.6, 0.6, 0.6, 0.6, 0.6, 0.6, 0.6, 0.6, 0.6, 0.6, 0.6, 0.6, 0.6, 0.6, 0.6, 0.6, 0.6, 0.6, 0.6, 0.6, 0.6, 0.6, 0.6, 0.6, 0.6, 0.6, 0.6, 0.6, 0.6, 0.6, 0.6, 0.6, 0.6, 0.6, 0.6], "NUPDOWN": -1.0, "LSORBIT": false, "SAXIS": [0.0, 0.0, 1.0], "LSPIRAL": false, "QSPIRAL": [0.0, 0.0, 0.0], "LZEROZ": false, "LASPH": false, "LMETAGGA": false, "NELM": 100, "NELMDL": -5, "NELMIN": 6, "ENINI": 520.0, "LDIAG": true, "LSUBROT": false, "WEIMIN": 0.001, "EBREAK": 1e-08, "DEPER": 0.3, "NRMM": 4, "TIME": 0.4, "AMIX": 0.4, "BMIX": 1.0, "AMIN": 0.1, "AMIX_MAG": 1.6, "BMIX_MAG": 1.0, "IMIX": 4, "MIXFIRST": false, "MAXMIX": -45, "WC": 100.0, "INIMIX": 1, "MIXPRE": 1, "MREMOVE": 5, "LDIPOL": false, "LMONO": false, "IDIPOL": 0, "EPSILON": 1.0, "DIPOL": [-100.0, -100.0, -100.0], "EFIELD": 0.0, "NGX": 36, "NGY": 60, "NGZ": 280, "NGXF": 72, "NGYF": 120, "NGZF": 560, "ADDGRID": false, "NSW": 150, "IBRION": 2, "MDALGO": 0, "ISIF": 2, "PSTRESS": 0.0, "EDIFFG": -0.01, "NFREE": 1, "POTIM": 0.5, "SMASS": -3.0, "SCALEE": 1.0, "TEBEG": 0.0001, "TEEND": 0.0001, "NBLOCK": 1, "KBLOCK": 150, "NPACO": 256, "APACO": 10.0, "ISYM": 0, "SYMPREC": 1e-05, "LORBIT": 11, "RWIGS": [-1.0, -1.0, -1.0], "NEDOS": 301, "EMIN": 10.0, "EMAX": -10.0, "EFERMI": 0.0, "NWRITE": 2, "LWAVE": false, "LDOWNSAMPLE": false, "LCHARG": false, "LPARD": false, "LVTOT": false, "LVHAR": false, "LELF": false, "LOPTICS": false, "STM": [0.0, 0.0, 0.0, 0.0, 0.0, 0.0, 0.0], "NPAR": 2, "NSIM": 4, "NBLK": -1, "LPLANE": true, "LSCALAPACK": true, "LSCAAWARE": false, "LSCALU": false, "LASYNC": false, "LORBITALREAL": false, "IDIOT": 3, "PHON_NSTRUCT": -1, "LMUSIC": false, "POMASS": [7.01, 30.974, 16.0], "DARWINR": [0.0, 0.0, 0.0], "DARWINV": [1.0, 1.0, 1.0], "LCORR": true, "GGA_COMPAT": true, "LBERRY": false, "ICORELEVEL": 0, "LDAU": false, "I_CONSTRAINED_M": 0, "GGA": "--", "VOSKOWN": 0, "LHFCALC": false, "PRECFOCK": "", "LSYMGRAD": false, "LHFONE": false, "LRHFCALC": false, "LTHOMAS": false, "LMODELHF": false, "LFOCKACE": false, "ENCUT4O": -1.0, "EXXOEP": 0, "FOURORBIT": 0, "AEXX": 0.0, "HFALPHA": 0.0, "MCALPHA": 0.0, "ALDAX": 1.0, "AGGAX": 1.0, "ALDAC": 1.0, "AGGAC": 1.0, "NKREDX": 1, "NKREDY": 1, "NKREDZ": 1, "SHIFTRED": false, "ODDONLY": false, "EVENONLY": false, "LMAXFOCK": 0, "NMAXFOCKAE": 0, "LFOCKAEDFT": false, "HFSCREEN": 0.0, "HFSCREENC": 0.0, "NBANDSGWLOW": 0, "LUSE_VDW": false, "Zab_VDW": -0.8491, "PARAM1": 0.1234, "PARAM2": 1.0, "PARAM3": 0.0, "MODEL_GW": 0, "MODEL_EPS0": 12.11948455, "MODEL_ALPHA": 1.0, "LEPSILON": false, "LRPA": false, "LNABLA": false, "LVEL": false, "CSHIFT": 0.1, "OMEGAMAX": -1.0, "DEG_THRESHOLD": 0.002, "RTIME": -0.1, "WPLASMAI": 0.0, "DFIELD": [0.0, 0.0, 0.0], "WPLASMA": [0.0, 0.0, 0.0, 0.0, 0.0, 0.0, 0.0, 0.0, 0.0], "NUCIND": false, "MAGPOS": [0.0, 0.0, 0.0], "LNICSALL": true, "ORBITALMAG": false, "LMAGBLOCH": false, "LCHIMAG": false, "LGAUGE": true, "MAGATOM": 0, "MAGDIPOL": [0.0, 0.0, 0.0], "AVECCONST": [0.0, 0.0, 0.0], "LFINITE_TEMPERATURE": false, "LADDER": false, "LRPAFORCE": false, "LFXC": false, "LHARTREE": true, "IBSE": 0, "KPOINT": [-1, 0, 0, 0], "LTCTC": false, "LTCTE": false, "LTETE": false, "LTRIPLET": false, "LFXCEPS": false, "LFXHEG": false, "NATURALO": 2, "LHOLEGF": false, "L2ORDER": false, "LDMP1": false, "LMP2LT": false, "LSMP2LT": false, "LGWLF": false, "ENCUTGW": -2.0, "ENCUTGWSOFT": -2.0, "ENCUTLF": -1.0, "LESF_SPLINES": false, "LMAXMP2": -1, "SCISSOR": 0.0, "NOMEGA": 0, "NOMEGAR": 0, "NBANDSGW": -1, "NBANDSO": -1, "NBANDSV": -1, "NELMGW": 1, "NELMHF": 1, "DIM": 3, "IESPILON": 4, "ANTIRES": 0, "OMEGAMIN": -30.0, "OMEGATL": -200.0, "OMEGAGRID": 0, "LSELFENERGY": false, "LSPECTRAL": false, "LSPECTRALGW": false, "LSINGLES": false, "LFERMIGW": false, "ODDONLYGW": false, "EVENONLYGW": false, "NKREDLFX": 1, "NKREDLFY": 1, "NKREDLFZ": 1, "MAXMEM": 2800, "TELESCOPE": 0, "NTAUPAR": -1, "NOMEGAPAR": -1, "DAMP_NEWTON": 0.80000001, "LAMBDA": 1.0, "OFIELD_KAPPA": 0.0, "OFIELD_K": [0.0, 0.0, 0.0], "OFIELD_Q6_NEAR": 0.0, "OFIELD_Q6_FAR": 0.0, "OFIELD_A": 0.0, "KPOINTS_OPT_MODE": 1, "LKPOINTS_OPT": false, "@module": "pymatgen.io.vasp.inputs", "@class": "Incar"}, "relaxed_structures": {"@module": "pymatgen.core.structure", "@class": "Structure", "charge": 0, "lattice": {"matrix": [[6.151192, 0.0, 0.0], [0.0, 10.554851, 0.0], [0.0, 0.0, 49.778464]], "a": 6.151192, "b": 10.554851, "c": 49.778464, "alpha": 90.0, "beta": 90.0, "gamma": 90.0, "volume": 3231.8625456429836}, "sites": [{"species": [{"element": "Li", "occu": 1}], "abc": [0.53247097, 0.8281727, 0.043291510000000005], "xyz": [3.27533117089624, 8.741239450767699, 2.1549848720406404], "label": "Li", "properties": {}}, {"species": [{"element": "Li", "occu": 1}], "abc": [0.50850159, 0.16224786, 0.08208064000000001], "xyz": [3.1278909123952796, 1.7125019873688598, 4.08584818333696], "label": "Li", "properties": {}}, {"species": [{"element": "Li", "occu": 1}], "abc": [0.51696586, 0.33598427, 0.03500309], "xyz": [3.17995626230512, 3.5462639081937697, 1.74240005545376], "label": "Li", "properties": {}}, {"species": [{"element": "Li", "occu": 1}], "abc": [0.98303092, 0.33598448, 0.03500338], "xyz": [6.046811930856641, 3.5462661247124796, 1.74241449120832], "label": "Li", "properties": {}}, {"species": [{"element": "Li", "occu": 1}], "abc": [0.99149455, 0.1622504, 0.08208007], "xyz": [6.0988733440036, 1.7125287966903997, 4.08581980961248], "label": "Li", "properties": {}}, {"species": [{"element": "Li", "occu": 1}], "abc": [0.96753117, 0.82817466, 0.04329183], "xyz": [5.95146999265464, 8.741260138275658, 2.15500080114912], "label": "Li", "properties": {}}, {"species": [{"element": "Li", "occu": 1}], "abc": [0.75000191, 0.92955902, 0.08262724], "xyz": [4.61340574877672, 9.811356951806019, 4.1130570917593605], "label": "Li", "properties": {}}, {"species": [{"element": "Li", "occu": 1}], "abc": [0.25000251, 0.10816903, 0.043205099999999996], "xyz": [1.53781343949192, 1.1417079944645299, 2.1506835149663996], "label": "Li", "properties": {}}, {"species": [{"element": "Li", "occu": 1}], "abc": [0.24999047, 0.58365306, 0.03659390999999999], "xyz": [1.53773937914024, 6.160371083994059, 1.8215886315542396], "label": "Li", "properties": {}}, {"species": [{"element": "Li", "occu": 1}], "abc": [0.49725992, 0.83623326, 0.14296615000000001], "xyz": [3.0587412418246402, 8.82631746054426, 7.116635350993601], "label": "Li", "properties": {}}, {"species": [{"element": "Li", "occu": 1}], "abc": [0.50138223, 0.16276606, 0.18292094], "xyz": [3.0840983621181604, 1.7179715111570597, 9.10552342663616], "label": "Li", "properties": {}}, {"species": [{"element": "Li", "occu": 1}], "abc": [0.5027588, 0.66255313, 0.09261436], "xyz": [3.0925659084895996, 6.99314956673363, 4.6102005851430405], "label": "Li", "properties": {}}, {"species": [{"element": "Li", "occu": 1}], "abc": [0.49821292, 0.33572675, 0.13268218], "xyz": [3.06460332780064, 3.54354582296425, 6.60471512057152], "label": "Li", "properties": {}}, {"species": [{"element": "Li", "occu": 1}], "abc": [0.00178223, 0.33572997, 0.13268102], "xyz": [0.01096283891816, 3.5435798095844695, 6.604657377553281], "label": "Li", "properties": {}}, {"species": [{"element": "Li", "occu": 1}], "abc": [0.9972179, 0.66248445, 0.0926039], "xyz": [6.1340787687368, 6.992424659566949, 4.6096799024096], "label": "Li", "properties": {}}, {"species": [{"element": "Li", "occu": 1}], "abc": [0.99861809, 0.16276653, 0.18292088], "xyz": [6.14269160626328, 1.7179764719370298, 9.10552043992832], "label": "Li", "properties": {}}, {"species": [{"element": "Li", "occu": 1}], "abc": [0.00274084, 0.83623111, 0.14296537], "xyz": [0.01685943308128, 8.82629476761461, 7.116596523791681], "label": "Li", "properties": {}}, {"species": [{"element": "Li", "occu": 1}], "abc": [0.74999996, 0.92326194, 0.1832471], "xyz": [4.61339375395232, 9.744892210670939, 9.1217591704544], "label": "Li", "properties": {}}, {"species": [{"element": "Li", "occu": 1}], "abc": [0.24999996, 0.0744835, 0.14236218], "xyz": [1.53779775395232, 0.7861622444584999, 7.08657065209152], "label": "Li", "properties": {}}, {"species": [{"element": "Li", "occu": 1}], "abc": [0.24999573, 0.57344423, 0.132429], "xyz": [1.53777173441016, 6.0526184044597295, 6.592112209055999], "label": "Li", "properties": {}}, {"species": [{"element": "Li", "occu": 1}], "abc": [0.7499036, 0.42521061, 0.09222845], "xyz": [4.6128010250912, 4.48803463216911, 4.5909905781008], "label": "Li", "properties": {}}, {"species": [{"element": "Li", "occu": 1}], "abc": [0.4981386, 0.83588392, 0.24361555000000001], "xyz": [3.0641461712112, 8.82263022889592, 12.1268078855152], "label": "Li", "properties": {}}, {"species": [{"element": "Li", "occu": 1}], "abc": [0.50190562, 0.16400516, 0.28308632], "xyz": [3.08731783449904, 1.73105002703116, 14.09160218901248], "label": "Li", "properties": {}}, {"species": [{"element": "Li", "occu": 1}], "abc": [0.50204113, 0.66252259, 0.19325419], "xyz": [3.0881513825269598, 6.99282722158409, 9.61989673976416], "label": "Li", "properties": {}}, {"species": [{"element": "Li", "occu": 1}], "abc": [0.49799587, 0.33615966, 0.23288852000000002], "xyz": [3.06326821157704, 3.54811512351066, 11.59283280883328], "label": "Li", "properties": {}}, {"species": [{"element": "Li", "occu": 1}], "abc": [0.00200758, 0.3361596, 0.23288848], "xyz": [0.01234901003536, 3.5481144902196, 11.59283081769472], "label": "Li", "properties": {}}, {"species": [{"element": "Li", "occu": 1}], "abc": [0.99795709, 0.66252624, 0.19325372], "xyz": [6.13862566835128, 6.99286574679024, 9.619873343886079], "label": "Li", "properties": {}}, {"species": [{"element": "Li", "occu": 1}], "abc": [0.99809174, 0.16400725, 0.28308665], "xyz": [6.13945392635408, 1.7310720866697498, 14.091618615905599], "label": "Li", "properties": {}}, {"species": [{"element": "Li", "occu": 1}], "abc": [0.00186165, 0.83588429, 0.24361557], "xyz": [0.0114513665868, 8.822634134190789, 12.12680888108448], "label": "Li", "properties": {}}, {"species": [{"element": "Li", "occu": 1}], "abc": [0.74999911, 0.92588617, 0.28375834], "xyz": [4.613388525439119, 9.772590567310669, 14.125054312389759], "label": "Li", "properties": {}}, {"species": [{"element": "Li", "occu": 1}], "abc": [0.25000033, 0.07390284, 0.24297415], "xyz": [1.5378000298933598, 0.7800334646768399, 12.0948799787056], "label": "Li", "properties": {}}, {"species": [{"element": "Li", "occu": 1}], "abc": [0.25000002, 0.57457587, 0.23354703000000002], "xyz": [1.53779812302384, 6.064562696045369, 11.62561242516192], "label": "Li", "properties": {}}, {"species": [{"element": "Li", "occu": 1}], "abc": [0.7500013, 0.42485161, 0.19243192], "xyz": [4.6134019965496, 4.48424544066011, 9.57896540217088], "label": "Li", "properties": {}}, {"species": [{"element": "Li", "occu": 1}], "abc": [0.4986089, 0.83711889, 0.34378873], "xyz": [3.0670390768088, 8.83566515323539, 17.11327491991072], "label": "Li", "properties": {}}, {"species": [{"element": "Li", "occu": 1}], "abc": [0.50260772, 0.16397346, 0.38374786], "xyz": [3.09163658640224, 1.7307154382544598, 19.10237903408704], "label": "Li", "properties": {}}, {"species": [{"element": "Li", "occu": 1}], "abc": [0.50162487, 0.66320565, 0.29380025], "xyz": [3.08559088734504, 7.000036818108149, 14.624925167815999], "label": "Li", "properties": {}}, {"species": [{"element": "Li", "occu": 1}], "abc": [0.49807623, 0.33728961, 0.33344266], "xyz": [3.06376252136616, 3.56004157739811, 16.59826344687424], "label": "Li", "properties": {}}, {"species": [{"element": "Li", "occu": 1}], "abc": [0.00192616, 0.33729026, 0.33344242], "xyz": [0.01184817998272, 3.56004843805126, 16.59825150004288], "label": "Li", "properties": {}}, {"species": [{"element": "Li", "occu": 1}], "abc": [0.99837909, 0.66320487, 0.29380049], "xyz": [6.14122147137528, 7.000028585324369, 14.624937114647361], "label": "Li", "properties": {}}, {"species": [{"element": "Li", "occu": 1}], "abc": [0.99739746, 0.16397284, 0.3837477], "xyz": [6.135183276772319, 1.73070889424684, 19.1023710695328], "label": "Li", "properties": {}}, {"species": [{"element": "Li", "occu": 1}], "abc": [0.00139673, 0.83711806, 0.34378937], "xyz": [0.008591554402160001, 8.83565639270906, 17.11330677812768], "label": "Li", "properties": {}}, {"species": [{"element": "Li", "occu": 1}], "abc": [0.75000214, 0.92592171, 0.38410104], "xyz": [4.61340716355088, 9.77296568671521, 19.11995979200256], "label": "Li", "properties": {}}, {"species": [{"element": "Li", "occu": 1}], "abc": [0.25000011, 0.07609436, 0.3432039], "xyz": [1.53779867663112, 0.8031646317403599, 17.0841629808096], "label": "Li", "properties": {}}, {"species": [{"element": "Li", "occu": 1}], "abc": [0.25000156, 0.57514471, 0.33431902], "xyz": [1.53780759585952, 6.07056671748821, 16.64188730158528], "label": "Li", "properties": {}}, {"species": [{"element": "Li", "occu": 1}], "abc": [0.75000197, 0.4256209, 0.29312698], "xyz": [4.61340611784824, 4.4923651819859, 14.59141082135872], "label": "Li", "properties": {}}, {"species": [{"element": "Li", "occu": 1}], "abc": [0.49153184, 0.8378664, 0.44462513], "xyz": [3.02350672195328, 8.8435550099064, 22.13275602720032], "label": "Li", "properties": {}}, {"species": [{"element": "Li", "occu": 1}], "abc": [0.46753526, 0.17185509, 0.48342877], "xyz": [2.87589915102992, 1.8139048685415897, 24.06434162400928], "label": "Li", "properties": {}}, {"species": [{"element": "Li", "occu": 1}], "abc": [0.50187782, 0.6642188, 0.39406986], "xyz": [3.0871468313614403, 7.010730465398799, 19.61619233949504], "label": "Li", "properties": {}}, {"species": [{"element": "Li", "occu": 1}], "abc": [0.49656797, 0.33799735, 0.43428304], "xyz": [3.0544849245202403, 3.5675116676448493, 21.61794267245056], "label": "Li", "properties": {}}, {"species": [{"element": "Li", "occu": 1}], "abc": [0.00344365, 0.33799405, 0.43428302], "xyz": [0.0211825523308, 3.5674768366365495, 21.61794167688128], "label": "Li", "properties": {}}, {"species": [{"element": "Li", "occu": 1}], "abc": [0.99812342, 0.66421863, 0.39407013], "xyz": [6.1396487961166395, 7.01072867107413, 19.61620577968032], "label": "Li", "properties": {}}, {"species": [{"element": "Li", "occu": 1}], "abc": [0.03249328, 0.17185858, 0.48343265], "xyz": [0.19987240398976, 1.81394170497158, 24.0645347644496], "label": "Li", "properties": {}}, {"species": [{"element": "Li", "occu": 1}], "abc": [0.00847887, 0.83786213, 0.44462499], "xyz": [0.05215515731304, 8.843509940692629, 22.13274905821536], "label": "Li", "properties": {}}, {"species": [{"element": "Li", "occu": 1}], "abc": [0.74999981, 0.89196415, 0.4835016], "xyz": [4.61339283127352, 9.414548700591649, 24.0679669895424], "label": "Li", "properties": {}}, {"species": [{"element": "Li", "occu": 1}], "abc": [0.25001771, 0.070513, 0.44408388], "xyz": [1.53790693761032, 0.7442542085630001, 22.105813433560318], "label": "Li", "properties": {}}, {"species": [{"element": "Li", "occu": 1}], "abc": [0.25000345, 0.5750577, 0.43447827], "xyz": [1.5378192216124, 6.0696483399027, 21.62766092197728], "label": "Li", "properties": {}}, {"species": [{"element": "Li", "occu": 1}], "abc": [0.75002109, 0.42651763, 0.39431852], "xyz": [4.613523728639279, 4.501830033523129, 19.62857025235328], "label": "Li", "properties": {}}, {"species": [{"element": "Li", "occu": 1}], "abc": [0.48304887, 0.6640607, 0.49173589], "xyz": [2.9713263447530402, 7.009061743455699, 24.47785729787296], "label": "Li", "properties": {}}, {"species": [{"element": "Li", "occu": 1}], "abc": [0.01694667, 0.66406843, 0.49173542], "xyz": [0.10424222093064, 7.00914333245393, 24.477833901994877], "label": "Li", "properties": {}}, {"species": [{"element": "Li", "occu": 1}], "abc": [0.74999824, 0.4163751, 0.49015245], "xyz": [4.61338317390208, 4.3947771406101, 24.3990360868368], "label": "Li", "properties": {}}, {"species": [{"element": "P", "occu": 1}], "abc": [0.74999331, 0.09029664, 0.029989150000000003], "xyz": [4.61335284852552, 0.9530675810006399, 1.4928138236656001], "label": "P", "properties": {}}, {"species": [{"element": "P", "occu": 1}], "abc": [0.74997421, 0.58662179, 0.043943960000000004], "xyz": [4.61323536075832, 6.19170558680329, 2.18746283087744], "label": "P", "properties": {}}, {"species": [{"element": "P", "occu": 1}], "abc": [0.24998448, 0.4091763, 0.08149926], "xyz": [1.53770253350016, 4.3187948792313, 4.05690797993664], "label": "P", "properties": {}}, {"species": [{"element": "P", "occu": 1}], "abc": [0.24999415, 0.91177706, 0.0924238], "xyz": [1.5377620155268, 9.62367101351806, 4.6007148010432], "label": "P", "properties": {}}, {"species": [{"element": "P", "occu": 1}], "abc": [0.74999985, 0.08824609, 0.13251847], "xyz": [4.6133930773212, 0.93142433128259, 6.59656588823008], "label": "P", "properties": {}}, {"species": [{"element": "P", "occu": 1}], "abc": [0.74999159, 0.58824941, 0.14332666], "xyz": [4.6133422684752805, 6.208884873387909, 7.134580985050239], "label": "P", "properties": {}}, {"species": [{"element": "P", "occu": 1}], "abc": [0.25000663, 0.4106535, 0.18230256], "xyz": [1.53783878240296, 4.3343865051285, 9.07474142006784], "label": "P", "properties": {}}, {"species": [{"element": "P", "occu": 1}], "abc": [0.24999908, 0.9102426, 0.19366056], "xyz": [1.53779234090336, 9.6074750168526, 9.640125214179841], "label": "P", "properties": {}}, {"species": [{"element": "P", "occu": 1}], "abc": [0.75000021, 0.08820146, 0.2325772], "xyz": [4.61339529175032, 0.93095326828246, 11.577335777420801], "label": "P", "properties": {}}, {"species": [{"element": "P", "occu": 1}], "abc": [0.75000206, 0.58841962, 0.24386059], "xyz": [4.61340667145552, 6.21068141457662, 12.139005600333759], "label": "P", "properties": {}}, {"species": [{"element": "P", "occu": 1}], "abc": [0.2500022, 0.41141199, 0.28283241], "xyz": [1.5378115326224, 4.34239225406349, 14.078962939218238], "label": "P", "properties": {}}, {"species": [{"element": "P", "occu": 1}], "abc": [0.2499978, 0.91145117, 0.29411729], "xyz": [1.5377844673776, 9.62023129312567, 14.640706932042558], "label": "P", "properties": {}}, {"species": [{"element": "P", "occu": 1}], "abc": [0.74999996, 0.08969123, 0.33299524], "xyz": [4.61339375395232, 0.9466775686567299, 16.575991566511362], "label": "P", "properties": {}}, {"species": [{"element": "P", "occu": 1}], "abc": [0.75000263, 0.58924335, 0.3444168], "xyz": [4.61341017763496, 6.21937576199085, 17.1445392797952], "label": "P", "properties": {}}, {"species": [{"element": "P", "occu": 1}], "abc": [0.25000153, 0.41175749, 0.38343252], "xyz": [1.53780741132376, 4.34603895508399, 19.08668189324928], "label": "P", "properties": {}}, {"species": [{"element": "P", "occu": 1}], "abc": [0.25000709, 0.91186146, 0.39414739], "xyz": [1.5378416119512799, 9.624561842942459, 19.620051663808958], "label": "P", "properties": {}}, {"species": [{"element": "P", "occu": 1}], "abc": [0.75004107, 0.08850495, 0.43428994], "xyz": [4.61364662945544, 0.93415656001245, 21.61828614385216], "label": "P", "properties": {}}, {"species": [{"element": "P", "occu": 1}], "abc": [0.75000733, 0.59089674, 0.4452326], "xyz": [4.61343908823736, 6.23682704708574, 22.1629949507264], "label": "P", "properties": {}}, {"species": [{"element": "P", "occu": 1}], "abc": [0.24999957, 0.41366128, 0.48292039], "xyz": [1.5377953549874401, 4.3661331748692795, 24.03903524848096], "label": "P", "properties": {}}, {"species": [{"element": "P", "occu": 1}], "abc": [0.25000473, 0.90971931, 0.49672605], "xyz": [1.53782709513816, 9.601951768872809, 24.726259797787197], "label": "P", "properties": {}}, {"species": [{"element": "O", "occu": 1}], "abc": [0.45634862, 0.84118879, 0.08201788], "xyz": [2.80708798055504, 8.87862234132029, 4.08272408693632], "label": "O", "properties": {}}, {"species": [{"element": "O", "occu": 1}], "abc": [0.54399416, 0.16036369, 0.04265993], "xyz": [3.34621252503872, 1.69261485376019, 2.12354578974752], "label": "O", "properties": {}}, {"species": [{"element": "O", "occu": 1}], "abc": [0.53995321, 0.65627515, 0.03461319], "xyz": [3.3213558657263196, 6.9268864232526495, 1.72299143234016], "label": "O", "properties": {}}, {"species": [{"element": "O", "occu": 1}], "abc": [0.95999467, 0.65628826, 0.03461496], "xyz": [5.9051115341466405, 6.927024797349259, 1.72307954022144], "label": "O", "properties": {}}, {"species": [{"element": "O", "occu": 1}], "abc": [0.95602061, 0.16036234, 0.04265489], "xyz": [5.88066632806712, 1.6926006047113398, 2.12329490628896], "label": "O", "properties": {}}, {"species": [{"element": "O", "occu": 1}], "abc": [0.04365955, 0.8411744, 0.08201803], "xyz": [0.2685582746836, 8.8784704570144, 4.08273155370592], "label": "O", "properties": {}}, {"species": [{"element": "O", "occu": 1}], "abc": [0.75000893, 0.95247342, 0.042955320000000005], "xyz": [4.6134489301445605, 10.05321502956042, 2.13824985022848], "label": "O", "properties": {}}, {"species": [{"element": "O", "occu": 1}], "abc": [0.24999125, 0.05021861, 0.08177076], "xyz": [1.53774417707, 0.53004994597711, 4.07042283291264], "label": "O", "properties": {}}, {"species": [{"element": "O", "occu": 1}], "abc": [0.74999508, 0.44705329, 0.03457199], "xyz": [4.61336373613536, 4.718580865009789, 1.7209405596233598], "label": "O", "properties": {}}, {"species": [{"element": "O", "occu": 1}], "abc": [0.74995671, 0.09127622, 9.99999999999994e-05], "xyz": [4.61312771489832, 0.96340690194322, 0.00497784639999997], "label": "O", "properties": {}}, {"species": [{"element": "O", "occu": 1}], "abc": [0.74996247, 0.58873293, 0.07568004], "xyz": [4.61316314576424, 6.21398835494343, 3.76723614665856], "label": "O", "properties": {}}, {"species": [{"element": "O", "occu": 1}], "abc": [0.24999999, 0.40673523, 0.049954349999999995], "xyz": [1.53779793848808, 4.29302974910073, 2.4866508131183997], "label": "O", "properties": {}}, {"species": [{"element": "O", "occu": 1}], "abc": [0.45675466, 0.83997748, 0.18328715], "xyz": [2.80958561055472, 8.86583714475548, 9.1237527979376], "label": "O", "properties": {}}, {"species": [{"element": "O", "occu": 1}], "abc": [0.54291438, 0.15837149, 0.14279096], "xyz": [3.3395705909409603, 1.67158747959799, 7.10791466188544], "label": "O", "properties": {}}, {"species": [{"element": "O", "occu": 1}], "abc": [0.54268221, 0.65834582, 0.13300402], "xyz": [3.33814246869432, 6.94874203657282, 6.62073582142528], "label": "O", "properties": {}}, {"species": [{"element": "O", "occu": 1}], "abc": [0.45685048, 0.33977236, 0.09200436000000001], "xyz": [2.81017501777216, 3.5862466337183596, 4.579835722103041], "label": "O", "properties": {}}, {"species": [{"element": "O", "occu": 1}], "abc": [0.04311725, 0.33977743, 0.09200417000000001], "xyz": [0.26522248326200004, 3.58630014681293, 4.579826264194881], "label": "O", "properties": {}}, {"species": [{"element": "O", "occu": 1}], "abc": [0.95729289, 0.65834141, 0.13300084], "xyz": [5.88849236662488, 6.94869548967991, 6.62057752590976], "label": "O", "properties": {}}, {"species": [{"element": "O", "occu": 1}], "abc": [0.95707936, 0.15837578, 0.14279122], "xyz": [5.88717890259712, 1.67163275990878, 7.10792760428608], "label": "O", "properties": {}}, {"species": [{"element": "O", "occu": 1}], "abc": [0.04324139, 0.83998118, 0.18328684], "xyz": [0.26598609223687997, 8.86587619770418, 9.12373736661376], "label": "O", "properties": {}}, {"species": [{"element": "O", "occu": 1}], "abc": [0.75000354, 0.94918204, 0.14282992], "xyz": [4.61341577521968, 10.01847500407604, 7.10985403084288], "label": "O", "properties": {}}, {"species": [{"element": "O", "occu": 1}], "abc": [0.24999873, 0.04896407, 0.18315662], "xyz": [1.53779018798616, 0.51680846320357, 9.11725521503168], "label": "O", "properties": {}}, {"species": [{"element": "O", "occu": 1}], "abc": [0.25000194, 0.5489394, 0.09146565000000001], "xyz": [1.53780993331248, 5.7939735750293995, 4.5530195657616], "label": "O", "properties": {}}, {"species": [{"element": "O", "occu": 1}], "abc": [0.74998139, 0.44904983, 0.13305436], "xyz": [4.61327952631688, 4.739654047225329, 6.623241669303041], "label": "O", "properties": {}}, {"species": [{"element": "O", "occu": 1}], "abc": [0.25000174, 0.91137738, 0.12379334], "xyz": [1.53780870307408, 9.61945245067038, 6.16224231862976], "label": "O", "properties": {}}, {"species": [{"element": "O", "occu": 1}], "abc": [0.74999975, 0.08908135, 0.10121115], "xyz": [4.6133924622019995, 0.94024037612885, 5.0381355866736], "label": "O", "properties": {}}, {"species": [{"element": "O", "occu": 1}], "abc": [0.74999846, 0.58916765, 0.17470849], "xyz": [4.61338452716432, 6.2185767597701505, 8.69672027995936], "label": "O", "properties": {}}, {"species": [{"element": "O", "occu": 1}], "abc": [0.25000651, 0.41033311, 0.15092428], "xyz": [1.53783804425992, 4.33100483641661, 7.51277883870592], "label": "O", "properties": {}}, {"species": [{"element": "O", "occu": 1}], "abc": [0.45701474, 0.84102003, 0.28386862], "xyz": [2.81118541257008, 8.87684110466553, 14.130543881399682], "label": "O", "properties": {}}, {"species": [{"element": "O", "occu": 1}], "abc": [0.54297069, 0.1586689, 0.24282767], "xyz": [3.3399169645624798, 1.6747265978338999, 12.08758842929888], "label": "O", "properties": {}}, {"species": [{"element": "O", "occu": 1}], "abc": [0.54297421, 0.65861485, 0.23354166], "xyz": [3.33993861675832, 6.951581608137349, 11.62534511481024], "label": "O", "properties": {}}, {"species": [{"element": "O", "occu": 1}], "abc": [0.45694928, 0.34034654, 0.19261152], "xyz": [2.81078275554176, 3.5923070180655396, 9.58790561430528], "label": "O", "properties": {}}, {"species": [{"element": "O", "occu": 1}], "abc": [0.04306077, 0.34034869, 0.19261174], "xyz": [0.26487506393784, 3.5923297109951897, 9.58791656556736], "label": "O", "properties": {}}, {"species": [{"element": "O", "occu": 1}], "abc": [0.95701758, 0.65861859, 0.23354075], "xyz": [5.88679888195536, 6.95162108328009, 11.625299816407999], "label": "O", "properties": {}}, {"species": [{"element": "O", "occu": 1}], "abc": [0.95702965, 0.15866953, 0.24282776], "xyz": [5.8868731268428, 1.6747332473900298, 12.087592909360641], "label": "O", "properties": {}}, {"species": [{"element": "O", "occu": 1}], "abc": [0.04298154, 0.84101949, 0.28387008], "xyz": [0.26438770499568, 8.87683540504599, 14.13061655795712], "label": "O", "properties": {}}, {"species": [{"element": "O", "occu": 1}], "abc": [0.75000232, 0.94964372, 0.24319401000000002], "xyz": [4.61340827076544, 10.02334796768572, 12.10582427180064], "label": "O", "properties": {}}, {"species": [{"element": "O", "occu": 1}], "abc": [0.24999447, 0.05010415, 0.2835338], "xyz": [1.53776398390824, 0.5288418377316499, 14.1138770560832], "label": "O", "properties": {}}, {"species": [{"element": "O", "occu": 1}], "abc": [0.24999693, 0.54923932, 0.19286195], "xyz": [1.53777911584056, 5.79713918594132, 9.6003716350448], "label": "O", "properties": {}}, {"species": [{"element": "O", "occu": 1}], "abc": [0.75000393, 0.44963187, 0.23337863], "xyz": [4.6134181741845595, 4.74579739270137, 11.61722973182432], "label": "O", "properties": {}}, {"species": [{"element": "O", "occu": 1}], "abc": [0.25000013, 0.90976071, 0.22502252], "xyz": [1.53779879965496, 9.60238873970421, 11.20127541100928], "label": "O", "properties": {}}, {"species": [{"element": "O", "occu": 1}], "abc": [0.74999923, 0.08799593, 0.20122128], "xyz": [4.61338926358216, 0.92878392975643, 10.01648624251392], "label": "O", "properties": {}}, {"species": [{"element": "O", "occu": 1}], "abc": [0.75000522, 0.5892907, 0.27522649], "xyz": [4.61342610922224, 6.219875534185699, 13.70035192431136], "label": "O", "properties": {}}, {"species": [{"element": "O", "occu": 1}], "abc": [0.25000178, 0.41065316, 0.25146768], "xyz": [1.5378089491217601, 4.33438291647916, 12.517674856043522], "label": "O", "properties": {}}, {"species": [{"element": "O", "occu": 1}], "abc": [0.45714159, 0.84168373, 0.38388844], "xyz": [2.81196569127528, 8.883846359274228, 19.10937689055616], "label": "O", "properties": {}}, {"species": [{"element": "O", "occu": 1}], "abc": [0.5432237, 0.15983885, 0.34338217], "xyz": [3.3414732776503997, 1.68707524576135, 17.093036987586878], "label": "O", "properties": {}}, {"species": [{"element": "O", "occu": 1}], "abc": [0.54304808, 0.6595201, 0.33410018], "xyz": [3.3403930053113604, 6.9611363870051, 16.63099378252352], "label": "O", "properties": {}}, {"species": [{"element": "O", "occu": 1}], "abc": [0.45701824, 0.3412296, 0.2931461], "xyz": [2.81120694174208, 3.6016275847896, 14.5923625855904], "label": "O", "properties": {}}, {"species": [{"element": "O", "occu": 1}], "abc": [0.04298494, 0.34122338, 0.29314641], "xyz": [0.26440861904848, 3.60156193361638, 14.59237801691424], "label": "O", "properties": {}}, {"species": [{"element": "O", "occu": 1}], "abc": [0.95695871, 0.65951969, 0.33410058], "xyz": [5.88643676128232, 6.961132059516189, 16.631013693909118], "label": "O", "properties": {}}, {"species": [{"element": "O", "occu": 1}], "abc": [0.95677686, 0.15984026, 0.34338189], "xyz": [5.88531816701712, 1.68709012810126, 17.09302304961696], "label": "O", "properties": {}}, {"species": [{"element": "O", "occu": 1}], "abc": [0.04286796, 0.84168538, 0.38389046], "xyz": [0.26368905260832, 8.88386377477838, 19.10947744305344], "label": "O", "properties": {}}, {"species": [{"element": "O", "occu": 1}], "abc": [0.75000898, 0.95085796, 0.3434418], "xyz": [4.6134492377041605, 10.03616408996396, 17.0960052773952], "label": "O", "properties": {}}, {"species": [{"element": "O", "occu": 1}], "abc": [0.24999919, 0.05085808, 0.38381082], "xyz": [1.53779301753448, 0.53679945654608, 19.10551308618048], "label": "O", "properties": {}}, {"species": [{"element": "O", "occu": 1}], "abc": [0.25000524, 0.55014542, 0.29333616], "xyz": [1.5378302322460802, 5.806702936432419, 14.60182348045824], "label": "O", "properties": {}}, {"species": [{"element": "O", "occu": 1}], "abc": [0.75000287, 0.45065331, 0.33384881], "xyz": [4.61341165392104, 4.756578539706809, 16.61848097002784], "label": "O", "properties": {}}, {"species": [{"element": "O", "occu": 1}], "abc": [0.25000004, 0.91154544, 0.32547134], "xyz": [1.5377982460476798, 9.62122629892944, 16.20146338122176], "label": "O", "properties": {}}, {"species": [{"element": "O", "occu": 1}], "abc": [0.74999456, 0.09025786, 0.30163382], "xyz": [4.61336053751552, 0.9526582638788599, 15.01486825005248], "label": "O", "properties": {}}, {"species": [{"element": "O", "occu": 1}], "abc": [0.75000118, 0.58957605, 0.37579364], "xyz": [4.613401258406561, 6.22288736091855, 18.706430180168958], "label": "O", "properties": {}}, {"species": [{"element": "O", "occu": 1}], "abc": [0.24999788, 0.41059364, 0.35204554], "xyz": [1.53778495947296, 4.3337546917476395, 17.52428623925056], "label": "O", "properties": {}}, {"species": [{"element": "O", "occu": 1}], "abc": [0.45598211, 0.83965841, 0.48404841], "xyz": [2.80483350717512, 8.86246940844691, 24.09518635144224], "label": "O", "properties": {}}, {"species": [{"element": "O", "occu": 1}], "abc": [0.54372846, 0.15915808, 0.44470612], "xyz": [3.3445781533243197, 1.6798898198460799, 22.13678758499968], "label": "O", "properties": {}}, {"species": [{"element": "O", "occu": 1}], "abc": [0.54316891, 0.66032493, 0.43472526], "xyz": [3.34113625384072, 6.96963124773543, 21.63995570480064], "label": "O", "properties": {}}, {"species": [{"element": "O", "occu": 1}], "abc": [0.45724875, 0.3417665, 0.39379845], "xyz": [2.81262485301, 3.6072944842914993, 19.6026819665808], "label": "O", "properties": {}}, {"species": [{"element": "O", "occu": 1}], "abc": [0.0427363, 0.34177347, 0.39379763], "xyz": [0.2628791866696, 3.60736805160297, 19.60264114824032], "label": "O", "properties": {}}, {"species": [{"element": "O", "occu": 1}], "abc": [0.9568436, 0.66032409, 0.43472632], "xyz": [5.8857286975712, 6.96962238166059, 21.64000846997248], "label": "O", "properties": {}}, {"species": [{"element": "O", "occu": 1}], "abc": [0.95643788, 0.15910859, 0.44469737], "xyz": [5.883233035952959, 1.6793674602700899, 22.136352023439677], "label": "O", "properties": {}}, {"species": [{"element": "O", "occu": 1}], "abc": [0.04402036, 0.83967201, 0.48405031], "xyz": [0.27077768626912, 8.86261295442051, 24.09528093052384], "label": "O", "properties": {}}, {"species": [{"element": "O", "occu": 1}], "abc": [0.74999472, 0.95009887, 0.44497578], "xyz": [4.61336152170624, 10.02815200811837, 22.15021084560192], "label": "O", "properties": {}}, {"species": [{"element": "O", "occu": 1}], "abc": [0.25000334, 0.04757521, 0.48376158], "xyz": [1.53781854498128, 0.5021492528437099, 24.08090839461312], "label": "O", "properties": {}}, {"species": [{"element": "O", "occu": 1}], "abc": [0.24999535, 0.55105307, 0.39366172], "xyz": [1.5377693969572, 5.81628304694257, 19.59587575719808], "label": "O", "properties": {}}, {"species": [{"element": "O", "occu": 1}], "abc": [0.75000409, 0.45114917, 0.43527083], "xyz": [4.61341915837528, 4.76181226812367, 21.66711334140512], "label": "O", "properties": {}}, {"species": [{"element": "O", "occu": 1}], "abc": [0.25002315, 0.91108625, 0.42545801], "xyz": [1.5379404000948003, 9.61637961689875, 21.17864623429664], "label": "O", "properties": {}}, {"species": [{"element": "O", "occu": 1}], "abc": [0.74999733, 0.08877254, 0.40291761], "xyz": [4.61337757631736, 0.9369809325915399, 20.05661974435104], "label": "O", "properties": {}}, {"species": [{"element": "O", "occu": 1}], "abc": [0.75000275, 0.593274, 0.47677836], "xyz": [4.613410915778, 6.261918672174, 23.73329442923904], "label": "O", "properties": {}}, {"species": [{"element": "O", "occu": 1}], "abc": [0.25001744, 0.41224484, 0.45118191], "xyz": [1.5379052767884798, 4.35118286171884, 22.45914246438624], "label": "O", "properties": {}}, {"species": [{"element": "O", "occu": 1}], "abc": [0.4600138, 0.34375226, 0.49216432000000004], "xyz": [2.8296332064496, 3.6282538852132595, 24.49918388520448], "label": "O", "properties": {}}, {"species": [{"element": "O", "occu": 1}], "abc": [0.03995646, 0.343742, 0.49215746], "xyz": [0.24577985710032, 3.628145592442, 24.49884240494144], "label": "O", "properties": {}}, {"species": [{"element": "O", "occu": 1}], "abc": [0.24997279, 0.55298491, 0.49245031], "xyz": [1.53763062606568, 5.83667333029841, 24.51342002812384], "label": "O", "properties": {}}, {"species": [{"element": "O", "occu": 1}], "abc": [0.25002742, 0.90872704, 0.5266127899999999], "xyz": [1.53796666568464, 9.59147850687104, 26.213975808954558], "label": "O", "properties": {}}]}, "formula": "(Li3PO4)20.0", "bandgap": 3.9005, "slab_thickness": 26.20899796255456}