{"miller": "101_0.43", "final_energy": -897.61701283, "gamma": 0.0585222236070041, "work_function": "Not calculated", "ionization_potentail": "Not calculated", "electron_affinity": "Not calculated", "is_stochiometric": true, "incar_parameters": {"SYSTEM": "unknown system", "LCOMPAT": false, "PREC": "normal", "ENMAX": 520.0, "ENAUG": 628.945, "EDIFF": 1e-05, "IALGO": 38, "IWAVPR": 11, "NBANDS": 416, "NBANDSLOW": -1, "NBANDSHIGH": -1, "NELECT": 684.0, "TURBO": 0, "IRESTART": 0, "NREBOOT": 0, "NMIN": 0, "EREF": 0.0, "ISMEAR": 0, "SIGMA": 0.05, "KSPACING": 0.5, "KGAMMA": true, "KBLOWUP": true, "LREAL": true, "ROPT": [-0.0005, -0.0005, -0.0005], "LMAXPAW": -100, "LMAXMIX": 2, "NLSPLINE": false, "ISTART": 0, "ICHARG": 2, "INIWAV": 1, "ISPIN": 1, "LNONCOLLINEAR": false, "MAGMOM": [0.6, 0.6, 0.6, 0.6, 0.6, 0.6, 0.6, 0.6, 0.6, 0.6, 0.6, 0.6, 0.6, 0.6, 0.6, 0.6, 0.6, 0.6, 0.6, 0.6, 0.6, 0.6, 0.6, 0.6, 0.6, 0.6, 0.6, 0.6, 0.6, 0.6, 0.6, 0.6, 0.6, 0.6, 0.6, 0.6, 0.6, 0.6, 0.6, 0.6, 0.6, 0.6, 0.6, 0.6, 0.6, 0.6, 0.6, 0.6, 0.6, 0.6, 0.6, 0.6, 0.6, 0.6, 0.6, 0.6, 0.6, 0.6, 0.6, 0.6, 0.6, 0.6, 0.6, 0.6, 0.6, 0.6, 0.6, 0.6, 0.6, 0.6, 0.6, 0.6, 0.6, 0.6, 0.6, 0.6, 0.6, 0.6, 0.6, 0.6, 0.6, 0.6, 0.6, 0.6, 0.6, 0.6, 0.6, 0.6, 0.6, 0.6, 0.6, 0.6, 0.6, 0.6, 0.6, 0.6, 0.6, 0.6, 0.6, 0.6, 0.6, 0.6, 0.6, 0.6, 0.6, 0.6, 0.6, 0.6, 0.6, 0.6, 0.6, 0.6, 0.6, 0.6, 0.6, 0.6, 0.6, 0.6, 0.6, 0.6, 0.6, 0.6, 0.6, 0.6, 0.6, 0.6, 0.6, 0.6, 0.6, 0.6, 0.6, 0.6, 0.6, 0.6, 0.6, 0.6, 0.6, 0.6, 0.6, 0.6, 0.6, 0.6, 0.6, 0.6], "NUPDOWN": -1.0, "LSORBIT": false, "SAXIS": [0.0, 0.0, 1.0], "LSPIRAL": false, "QSPIRAL": [0.0, 0.0, 0.0], "LZEROZ": false, "LASPH": false, "LMETAGGA": false, "NELM": 100, "NELMDL": -5, "NELMIN": 6, "ENINI": 520.0, "LDIAG": true, "LSUBROT": false, "WEIMIN": 0.001, "EBREAK": 1e-08, "DEPER": 0.3, "NRMM": 4, "TIME": 0.4, "AMIX": 0.4, "BMIX": 1.0, "AMIN": 0.1, "AMIX_MAG": 1.6, "BMIX_MAG": 1.0, "IMIX": 4, "MIXFIRST": false, "MAXMIX": -45, "WC": 100.0, "INIMIX": 1, "MIXPRE": 1, "MREMOVE": 5, "LDIPOL": false, "LMONO": false, "IDIPOL": 0, "EPSILON": 1.0, "DIPOL": [-100.0, -100.0, -100.0], "EFIELD": 0.0, "NGX": 36, "NGY": 70, "NGZ": 252, "NGXF": 72, "NGYF": 140, "NGZF": 504, "ADDGRID": false, "NSW": 150, "IBRION": 2, "MDALGO": 0, "ISIF": 2, "PSTRESS": 0.0, "EDIFFG": -0.01, "NFREE": 1, "POTIM": 0.5, "SMASS": -3.0, "SCALEE": 1.0, "TEBEG": 0.0001, "TEEND": 0.0001, "NBLOCK": 1, "KBLOCK": 150, "NPACO": 256, "APACO": 10.0, "ISYM": 0, "SYMPREC": 1e-05, "LORBIT": 11, "RWIGS": [-1.0, -1.0, -1.0], "NEDOS": 301, "EMIN": 10.0, "EMAX": -10.0, "EFERMI": 0.0, "NWRITE": 2, "LWAVE": false, "LDOWNSAMPLE": false, "LCHARG": false, "LPARD": false, "LVTOT": false, "LVHAR": false, "LELF": false, "LOPTICS": false, "STM": [0.0, 0.0, 0.0, 0.0, 0.0, 0.0, 0.0], "NPAR": 2, "NSIM": 4, "NBLK": -1, "LPLANE": true, "LSCALAPACK": true, "LSCAAWARE": false, "LSCALU": false, "LASYNC": false, "LORBITALREAL": false, "IDIOT": 3, "PHON_NSTRUCT": -1, "LMUSIC": false, "POMASS": [7.01, 30.974, 16.0], "DARWINR": [0.0, 0.0, 0.0], "DARWINV": [1.0, 1.0, 1.0], "LCORR": true, "GGA_COMPAT": true, "LBERRY": false, "ICORELEVEL": 0, "LDAU": false, "I_CONSTRAINED_M": 0, "GGA": "--", "VOSKOWN": 0, "LHFCALC": false, "PRECFOCK": "", "LSYMGRAD": false, "LHFONE": false, "LRHFCALC": false, "LTHOMAS": false, "LMODELHF": false, "LFOCKACE": false, "ENCUT4O": -1.0, "EXXOEP": 0, "FOURORBIT": 0, "AEXX": 0.0, "HFALPHA": 0.0, "MCALPHA": 0.0, "ALDAX": 1.0, "AGGAX": 1.0, "ALDAC": 1.0, "AGGAC": 1.0, "NKREDX": 1, "NKREDY": 1, "NKREDZ": 1, "SHIFTRED": false, "ODDONLY": false, "EVENONLY": false, "LMAXFOCK": 0, "NMAXFOCKAE": 0, "LFOCKAEDFT": false, "HFSCREEN": 0.0, "HFSCREENC": 0.0, "NBANDSGWLOW": 0, "LUSE_VDW": false, "Zab_VDW": -0.8491, "PARAM1": 0.1234, "PARAM2": 1.0, "PARAM3": 0.0, "MODEL_GW": 0, "MODEL_EPS0": 13.46609407, "MODEL_ALPHA": 1.0, "LEPSILON": false, "LRPA": false, "LNABLA": false, "LVEL": false, "CSHIFT": 0.1, "OMEGAMAX": -1.0, "DEG_THRESHOLD": 0.002, "RTIME": -0.1, "WPLASMAI": 0.0, "DFIELD": [0.0, 0.0, 0.0], "WPLASMA": [0.0, 0.0, 0.0, 0.0, 0.0, 0.0, 0.0, 0.0, 0.0], "NUCIND": false, "MAGPOS": [0.0, 0.0, 0.0], "LNICSALL": true, "ORBITALMAG": false, "LMAGBLOCH": false, "LCHIMAG": false, "LGAUGE": true, "MAGATOM": 0, "MAGDIPOL": [0.0, 0.0, 0.0], "AVECCONST": [0.0, 0.0, 0.0], "LFINITE_TEMPERATURE": false, "LADDER": false, "LRPAFORCE": false, "LFXC": false, "LHARTREE": true, "IBSE": 0, "KPOINT": [-1, 0, 0, 0], "LTCTC": false, "LTCTE": false, "LTETE": false, "LTRIPLET": false, "LFXCEPS": false, "LFXHEG": false, "NATURALO": 2, "LHOLEGF": false, "L2ORDER": false, "LDMP1": false, "LMP2LT": false, "LSMP2LT": false, "LGWLF": false, "ENCUTGW": -2.0, "ENCUTGWSOFT": -2.0, "ENCUTLF": -1.0, "LESF_SPLINES": false, "LMAXMP2": -1, "SCISSOR": 0.0, "NOMEGA": 0, "NOMEGAR": 0, "NBANDSGW": -1, "NBANDSO": -1, "NBANDSV": -1, "NELMGW": 1, "NELMHF": 1, "DIM": 3, "IESPILON": 4, "ANTIRES": 0, "OMEGAMIN": -30.0, "OMEGATL": -200.0, "OMEGAGRID": 0, "LSELFENERGY": false, "LSPECTRAL": false, "LSPECTRALGW": false, "LSINGLES": false, "LFERMIGW": false, "ODDONLYGW": false, "EVENONLYGW": false, "NKREDLFX": 1, "NKREDLFY": 1, "NKREDLFZ": 1, "MAXMEM": 2800, "TELESCOPE": 0, "NTAUPAR": -1, "NOMEGAPAR": -1, "DAMP_NEWTON": 0.80000001, "LAMBDA": 1.0, "OFIELD_KAPPA": 0.0, "OFIELD_K": [0.0, 0.0, 0.0], "OFIELD_Q6_NEAR": 0.0, "OFIELD_Q6_FAR": 0.0, "OFIELD_A": 0.0, "KPOINTS_OPT_MODE": 1, "LKPOINTS_OPT": false, "@module": "pymatgen.io.vasp.inputs", "@class": "Incar"}, "relaxed_structures": {"@module": "pymatgen.core.structure", "@class": "Structure", "charge": 0, "lattice": {"matrix": [[6.151192, 0.0, 0.0], [0.0, 11.669783, 0.0], [0.0, 0.0, 45.022626]], "a": 6.151192, "b": 11.669783, "c": 45.022626, "alpha": 90.0, "beta": 90.0, "gamma": 90.0, "volume": 3231.86257628388}, "sites": [{"species": [{"element": "Li", "occu": 1}], "abc": [0.50235966, 0.99864898, 0.08602823000000001], "xyz": [3.09011072171472, 11.654016889771341, 3.8732168247319807], "label": "Li", "properties": {}}, {"species": [{"element": "Li", "occu": 1}], "abc": [0.53276475, 0.21852138, 0.05092519], "xyz": [3.277138268082, 2.55009708546054, 2.2927857833489402], "label": "Li", "properties": {}}, {"species": [{"element": "Li", "occu": 1}], "abc": [0.99812694, 0.22894953, 0.05082929], "xyz": [6.13967044831248, 2.6717913330519902, 2.28846811351554], "label": "Li", "properties": {}}, {"species": [{"element": "Li", "occu": 1}], "abc": [0.75681683, 0.63450285, 0.061712239999999995], "xyz": [4.65532563016136, 7.40451057238155, 2.77844710114224], "label": "Li", "properties": {}}, {"species": [{"element": "Li", "occu": 1}], "abc": [0.00469876, 0.99133084, 0.0810805], "xyz": [0.02890297492192, 11.56861578400772, 3.650457027393], "label": "Li", "properties": {}}, {"species": [{"element": "Li", "occu": 1}], "abc": [0.96980533, 0.7997887, 0.01461511], "xyz": [5.96545878745336, 9.333360574852101, 0.6580106314788601], "label": "Li", "properties": {}}, {"species": [{"element": "Li", "occu": 1}], "abc": [0.63810425, 0.86792068, 0.05065876], "xyz": [3.9251017577660003, 10.12844599681244, 2.28079040510376], "label": "Li", "properties": {}}, {"species": [{"element": "Li", "occu": 1}], "abc": [0.27071904, 0.01277402, 0.03747142], "xyz": [1.6652447930956802, 0.14907004143766, 1.68706172834892], "label": "Li", "properties": {}}, {"species": [{"element": "Li", "occu": 1}], "abc": [0.25392551, 0.43078491, 0.07747937999999999], "xyz": [1.56194456570792, 5.027166419374531, 3.48832514845188], "label": "Li", "properties": {}}, {"species": [{"element": "Li", "occu": 1}], "abc": [0.49280138, 0.61724053, 0.10984179999999999], "xyz": [3.03131590624496, 7.203063043904991, 4.9453662805668], "label": "Li", "properties": {}}, {"species": [{"element": "Li", "occu": 1}], "abc": [0.50294801, 0.81405536, 0.18152855], "xyz": [3.09372977552792, 9.49984940118688, 8.172892014972302], "label": "Li", "properties": {}}, {"species": [{"element": "Li", "occu": 1}], "abc": [0.50493083, 0.38712568, 0.14267439], "xyz": [3.10592648204936, 4.517672679327441, 6.423575700748141], "label": "Li", "properties": {}}, {"species": [{"element": "Li", "occu": 1}], "abc": [0.50414926, 0.04649454, 0.14935437000000001], "xyz": [3.1011188949179203, 0.5425811924848201, 6.724325941975621], "label": "Li", "properties": {}}, {"species": [{"element": "Li", "occu": 1}], "abc": [0.0063019, 0.04475146, 0.14851675], "xyz": [0.0387641968648, 0.5222398271331801, 6.6866140899855], "label": "Li", "properties": {}}, {"species": [{"element": "Li", "occu": 1}], "abc": [0.99823721, 0.3881178, 0.14331417000000002], "xyz": [6.1403487402543195, 4.5292505044374005, 6.4523802764104214], "label": "Li", "properties": {}}, {"species": [{"element": "Li", "occu": 1}], "abc": [0.99810931, 0.81397023, 0.18152139], "xyz": [6.13956200279752, 9.49885595256009, 8.172569652970141], "label": "Li", "properties": {}}, {"species": [{"element": "Li", "occu": 1}], "abc": [0.00956707, 0.61595773, 0.11089162], "xyz": [0.058848884447440006, 7.1880930462725905, 4.9926319337941205], "label": "Li", "properties": {}}, {"species": [{"element": "Li", "occu": 1}], "abc": [0.74999496, 0.61727606, 0.15819452], "xyz": [4.61336299799232, 7.203477671294981, 7.1223327092095206], "label": "Li", "properties": {}}, {"species": [{"element": "Li", "occu": 1}], "abc": [0.25019877, 0.81152007, 0.13193459000000002], "xyz": [1.53902067243384, 9.47026311704481, 5.940041702033342], "label": "Li", "properties": {}}, {"species": [{"element": "Li", "occu": 1}], "abc": [0.25293811, 0.24092201, 0.17317488], "xyz": [1.55587087872712, 2.81150757662383, 7.79678785483488], "label": "Li", "properties": {}}, {"species": [{"element": "Li", "occu": 1}], "abc": [0.75976507, 0.19514137, 0.11754898], "xyz": [4.673460820463441, 2.27725744222271, 5.292363763221481], "label": "Li", "properties": {}}, {"species": [{"element": "Li", "occu": 1}], "abc": [0.5000868, 0.4351298, 0.2099745], "xyz": [3.0761299234656003, 5.077870342833401, 9.453603383037], "label": "Li", "properties": {}}, {"species": [{"element": "Li", "occu": 1}], "abc": [0.50456246, 0.63019494, 0.28202278999999997], "xyz": [3.1036605674523203, 7.35423819749802, 12.69740659764654], "label": "Li", "properties": {}}, {"species": [{"element": "Li", "occu": 1}], "abc": [0.50398479, 0.20271532, 0.24261054], "xyz": [3.1001072083696797, 2.36564379517556, 10.92296360607804], "label": "Li", "properties": {}}, {"species": [{"element": "Li", "occu": 1}], "abc": [0.5020712, 0.86320418, 0.24950478], "xyz": [3.0883363488704, 10.073405465292941, 11.233360395152282], "label": "Li", "properties": {}}, {"species": [{"element": "Li", "occu": 1}], "abc": [0.00681549, 0.8630633, 0.24911570000000002], "xyz": [0.04192338756408, 10.071761426263901, 11.215842991828202], "label": "Li", "properties": {}}, {"species": [{"element": "Li", "occu": 1}], "abc": [0.00032445, 0.20309152, 0.24266039000000003], "xyz": [0.0019957542444, 2.3700339675401603, 10.925207983984143], "label": "Li", "properties": {}}, {"species": [{"element": "Li", "occu": 1}], "abc": [0.99986982, 0.63152887, 0.28221016], "xyz": [6.15039123782544, 7.36980487113521, 12.70584248708016], "label": "Li", "properties": {}}, {"species": [{"element": "Li", "occu": 1}], "abc": [0.00551511, 0.43542537, 0.21011922], "xyz": [0.033924500511120004, 5.08131958059471, 9.46011905747172], "label": "Li", "properties": {}}, {"species": [{"element": "Li", "occu": 1}], "abc": [0.75130442, 0.43358911, 0.25853001], "xyz": [4.62141773786864, 5.05989082486313, 11.639699950006259], "label": "Li", "properties": {}}, {"species": [{"element": "Li", "occu": 1}], "abc": [0.25148406, 0.6308297, 0.23337144], "xyz": [1.54692673799952, 7.361645708955101, 10.50699506220144], "label": "Li", "properties": {}}, {"species": [{"element": "Li", "occu": 1}], "abc": [0.25278256, 0.05718208, 0.27334379], "xyz": [1.55491406081152, 0.6673024650886401, 12.30665522659254], "label": "Li", "properties": {}}, {"species": [{"element": "Li", "occu": 1}], "abc": [0.75282555, 0.00915084, 0.21832499], "xyz": [4.630774500555599, 0.10678831706772, 9.829564371223741], "label": "Li", "properties": {}}, {"species": [{"element": "Li", "occu": 1}], "abc": [0.4995027, 0.25253877, 0.31014361999999995], "xyz": [3.0725370122184, 2.9470726449869105, 13.963480209546118], "label": "Li", "properties": {}}, {"species": [{"element": "Li", "occu": 1}], "abc": [0.509204, 0.44964242, 0.38127070999999996], "xyz": [3.132211571168, 5.24722946899486, 17.16580858108446], "label": "Li", "properties": {}}, {"species": [{"element": "Li", "occu": 1}], "abc": [0.50715282, 0.02095904, 0.34342855], "xyz": [3.11959436916144, 0.24458744868832002, 15.4620551643723], "label": "Li", "properties": {}}, {"species": [{"element": "Li", "occu": 1}], "abc": [0.49976322, 0.67839963, 0.34886643], "xyz": [3.0741395207582403, 7.916776469380291, 15.70688280184518], "label": "Li", "properties": {}}, {"species": [{"element": "Li", "occu": 1}], "abc": [0.00719271, 0.67889336, 0.34909358999999995], "xyz": [0.04424374021032, 7.92253819134088, 15.717110141567339], "label": "Li", "properties": {}}, {"species": [{"element": "Li", "occu": 1}], "abc": [0.00227135, 0.01888097, 0.34266752], "xyz": [0.0139715099492, 0.22033682272951002, 15.427791595307522], "label": "Li", "properties": {}}, {"species": [{"element": "Li", "occu": 1}], "abc": [0.98999266, 0.44790179, 0.38195646], "xyz": [6.08963493025072, 5.22691669461157, 17.19668284686396], "label": "Li", "properties": {}}, {"species": [{"element": "Li", "occu": 1}], "abc": [0.00473876, 0.2513775, 0.31066923999999996], "xyz": [0.02914902260192, 2.9335208760825, 13.987145002224239], "label": "Li", "properties": {}}, {"species": [{"element": "Li", "occu": 1}], "abc": [0.74989161, 0.25431089, 0.3599946], "xyz": [4.612727272299121, 2.9677529008368704, 16.2079022378196], "label": "Li", "properties": {}}, {"species": [{"element": "Li", "occu": 1}], "abc": [0.25015055, 0.44714522, 0.33374764999999995], "xyz": [1.5387240619556002, 5.2180876868872605, 15.0261956243289], "label": "Li", "properties": {}}, {"species": [{"element": "Li", "occu": 1}], "abc": [0.25871284, 0.87063953, 0.37413811999999996], "xyz": [1.59139235170528, 10.16017438632199, 16.84468064910312], "label": "Li", "properties": {}}, {"species": [{"element": "Li", "occu": 1}], "abc": [0.75208929, 0.82568924, 0.31867567999999996], "xyz": [4.62624562393368, 9.63561425623492, 14.347615955935678], "label": "Li", "properties": {}}, {"species": [{"element": "Li", "occu": 1}], "abc": [0.50380816, 0.07305955, 0.41103694999999996], "xyz": [3.0990207233267197, 0.8525890945776501, 18.5059628720307], "label": "Li", "properties": {}}, {"species": [{"element": "Li", "occu": 1}], "abc": [0.46621691, 0.26648852, 0.47744055999999996], "xyz": [2.86778972705672, 3.1098632003911604, 21.49562777011056], "label": "Li", "properties": {}}, {"species": [{"element": "Li", "occu": 1}], "abc": [0.49740777, 0.83436451, 0.4408359], "xyz": [3.05965069556184, 9.736852774601331, 19.8475898530734], "label": "Li", "properties": {}}, {"species": [{"element": "Li", "occu": 1}], "abc": [0.24973301, 0.43209778, 0.42994659999999996], "xyz": [1.5361556932479201, 5.04248732738174, 19.3573249717716], "label": "Li", "properties": {}}, {"species": [{"element": "Li", "occu": 1}], "abc": [0.02928273, 0.84684312, 0.44087539], "xyz": [0.18012369451416, 9.88247544544296, 19.84936779657414], "label": "Li", "properties": {}}, {"species": [{"element": "Li", "occu": 1}], "abc": [0.00100345, 0.06801501, 0.40625172], "xyz": [0.0061724136123999995, 0.79372040744283, 18.290519251416722], "label": "Li", "properties": {}}, {"species": [{"element": "Li", "occu": 1}], "abc": [0.76829759, 0.05225133, 0.45460668], "xyz": [4.72594598922728, 0.6097616825613901, 20.46758653074168], "label": "Li", "properties": {}}, {"species": [{"element": "Li", "occu": 1}], "abc": [0.13871967, 0.19803548, 0.4414163], "xyz": [0.8532913243466399, 2.3110310779008403, 19.8737209852038], "label": "Li", "properties": {}}, {"species": [{"element": "Li", "occu": 1}], "abc": [0.75242306, 0.63340685, 0.41450253], "xyz": [4.62829870728752, 7.39172049021355, 18.66199238424378], "label": "Li", "properties": {}}, {"species": [{"element": "P", "occu": 1}], "abc": [0.26441167, 0.76025629, 0.06632387000000001], "xyz": [1.62644694921064, 8.87202592868507, 2.9860747938826204], "label": "P", "properties": {}}, {"species": [{"element": "P", "occu": 1}], "abc": [0.77407417, 0.04768902, 0.02332075], "xyz": [4.76147884191064, 0.55652051488266, 1.0499614052895], "label": "P", "properties": {}}, {"species": [{"element": "P", "occu": 1}], "abc": [0.75365932, 0.41466722, 0.0859358], "xyz": [4.63590317990944, 4.83907647461326, 3.8690553834108004], "label": "P", "properties": {}}, {"species": [{"element": "P", "occu": 1}], "abc": [0.25151857, 0.58832298, 0.16812456], "xyz": [1.5471390156354399, 6.865601510513341, 7.5694091862945605], "label": "P", "properties": {}}, {"species": [{"element": "P", "occu": 1}], "abc": [0.75171949, 0.84256502, 0.12257625], "xyz": [4.62397091313208, 9.832550946790661, 5.5187046602325], "label": "P", "properties": {}}, {"species": [{"element": "P", "occu": 1}], "abc": [0.75387851, 0.231713, 0.18538906], "xyz": [4.637251459683919, 2.7040404282790003, 8.34670231287156], "label": "P", "properties": {}}, {"species": [{"element": "P", "occu": 1}], "abc": [0.25545365, 0.20419234, 0.10566703999999999], "xyz": [1.5713444482507999, 2.3828802980622203, 4.757407622447039], "label": "P", "properties": {}}, {"species": [{"element": "P", "occu": 1}], "abc": [0.2511365, 0.40416489, 0.26801147], "xyz": [1.544788829708, 4.71651656251887, 12.066580177520219], "label": "P", "properties": {}}, {"species": [{"element": "P", "occu": 1}], "abc": [0.75142145, 0.66149931, 0.2239498], "xyz": [4.6221376118684, 7.71955340234973, 10.0828080881748], "label": "P", "properties": {}}, {"species": [{"element": "P", "occu": 1}], "abc": [0.75334915, 0.04917992, 0.28574984999999997], "xyz": [4.6339952646868, 0.57391899435736, 12.8652086261061], "label": "P", "properties": {}}, {"species": [{"element": "P", "occu": 1}], "abc": [0.25268819, 0.01689272, 0.2060799], "xyz": [1.5543335728224799, 0.19713437667976, 9.278258263817401], "label": "P", "properties": {}}, {"species": [{"element": "P", "occu": 1}], "abc": [0.25162025, 0.22298234, 0.36936353], "xyz": [1.547764468838, 2.60215552063222, 16.62971606922978], "label": "P", "properties": {}}, {"species": [{"element": "P", "occu": 1}], "abc": [0.75173602, 0.47740329, 0.32385323], "xyz": [4.62407259233584, 5.57119279778607, 14.58072285318198], "label": "P", "properties": {}}, {"species": [{"element": "P", "occu": 1}], "abc": [0.75511063, 0.86133048, 0.38615913999999996], "xyz": [4.64483046637096, 10.05153979288584, 17.38589853670164], "label": "P", "properties": {}}, {"species": [{"element": "P", "occu": 1}], "abc": [0.25398391, 0.83439463, 0.30652427], "xyz": [1.56230379532072, 9.737204268465291, 13.80052756813302], "label": "P", "properties": {}}, {"species": [{"element": "P", "occu": 1}], "abc": [0.27320507, 0.01677782, 0.46859545999999996], "xyz": [1.68053684094344, 0.19579351861306, 21.09739814087796], "label": "P", "properties": {}}, {"species": [{"element": "P", "occu": 1}], "abc": [0.76287501, 0.30466358, 0.42570573], "xyz": [4.69259065851192, 3.5553578666031402, 19.16638986784698], "label": "P", "properties": {}}, {"species": [{"element": "P", "occu": 1}], "abc": [0.25225785, 0.65069273, 0.40601124], "xyz": [1.5516864688572, 7.593442958777591, 18.27969221031624], "label": "P", "properties": {}}, {"species": [{"element": "O", "occu": 1}], "abc": [0.48596136, 0.72511014, 0.05253209], "xyz": [2.98924162994112, 8.46187798489962, 2.3651326410683398], "label": "O", "properties": {}}, {"species": [{"element": "O", "occu": 1}], "abc": [0.56959669, 0.05243155, 0.04576913], "xyz": [3.50369860275448, 0.6118648108536501, 2.06064642233538], "label": "O", "properties": {}}, {"species": [{"element": "O", "occu": 1}], "abc": [0.54829851, 0.49166566, 0.08211041999999999], "xyz": [3.37268940832392, 5.7376315607517805, 3.6968267303629196], "label": "O", "properties": {}}, {"species": [{"element": "O", "occu": 1}], "abc": [0.95587604, 0.49452182, 0.08197842999999999], "xyz": [5.879777050239681, 5.77096232816506, 3.6908841939571797], "label": "O", "properties": {}}, {"species": [{"element": "O", "occu": 1}], "abc": [0.98543684, 0.07113911, 0.04290005], "xyz": [6.0616112067132795, 0.8301779765131301, 1.9314729065313], "label": "O", "properties": {}}, {"species": [{"element": "O", "occu": 1}], "abc": [0.06366355, 0.72264684, 0.04770946], "xyz": [0.39160671945159997, 8.433131808435721, 2.1480051742419604], "label": "O", "properties": {}}, {"species": [{"element": "O", "occu": 1}], "abc": [0.78685796, 0.91842448, 0.01437625], "xyz": [4.84011438868832, 10.717814383487841, 0.6472565270325], "label": "O", "properties": {}}, {"species": [{"element": "O", "occu": 1}], "abc": [0.26541108, 0.8953074, 0.06934098999999999], "xyz": [1.6325945120073602, 10.4480430762942, 3.1219134592397397], "label": "O", "properties": {}}, {"species": [{"element": "O", "occu": 1}], "abc": [0.75818491, 0.31559778, 0.06326159], "xyz": [4.66374095291272, 3.68295760788174, 2.8482029067353403], "label": "O", "properties": {}}, {"species": [{"element": "O", "occu": 1}], "abc": [0.74634092, 0.13828997, 9.99999999999994e-05], "xyz": [4.59088629637664, 1.6138139409765102, 0.004502262599999973], "label": "O", "properties": {}}, {"species": [{"element": "O", "occu": 1}], "abc": [0.26207785, 0.25986012, 0.07393382000000001], "xyz": [1.6120911742972, 3.0325112107539605, 3.3286947266113205], "label": "O", "properties": {}}, {"species": [{"element": "O", "occu": 1}], "abc": [0.45742643, 0.54961688, 0.15059571], "xyz": [2.81371779680456, 6.41390972273704, 6.78021432853446], "label": "O", "properties": {}}, {"species": [{"element": "O", "occu": 1}], "abc": [0.5440785, 0.88152092, 0.1400303], "xyz": [3.3467313165720003, 10.287157846360362, 6.3045318255678], "label": "O", "properties": {}}, {"species": [{"element": "O", "occu": 1}], "abc": [0.54627563, 0.30758805, 0.18199148], "xyz": [3.3602462850509602, 3.5894857968931504, 8.19373433922648], "label": "O", "properties": {}}, {"species": [{"element": "O", "occu": 1}], "abc": [0.46323654, 0.12964528, 0.11023981999999999], "xyz": [2.8494568989556797, 1.5129322845742401, 4.96328618616732], "label": "O", "properties": {}}, {"species": [{"element": "O", "occu": 1}], "abc": [0.05157769, 0.12572283, 0.10877329999999999], "xyz": [0.31726427410648, 1.46715814424589, 4.8972596046858], "label": "O", "properties": {}}, {"species": [{"element": "O", "occu": 1}], "abc": [0.96081331, 0.30827911, 0.18240289], "xyz": [5.91014714596552, 3.5975503171331304, 8.212257097789141], "label": "O", "properties": {}}, {"species": [{"element": "O", "occu": 1}], "abc": [0.95801597, 0.8805102, 0.14032387000000002], "xyz": [5.8929401705362405, 10.2753629632866, 6.317749117882621], "label": "O", "properties": {}}, {"species": [{"element": "O", "occu": 1}], "abc": [0.04376183, 0.54978679, 0.15096566], "xyz": [0.26918741860136003, 6.41589253556657, 6.79687044902316], "label": "O", "properties": {}}, {"species": [{"element": "O", "occu": 1}], "abc": [0.75086446, 0.70957237, 0.11905977000000001], "xyz": [4.6187114594363194, 8.28055558069571, 5.360383496356021], "label": "O", "properties": {}}, {"species": [{"element": "O", "occu": 1}], "abc": [0.25133286, 0.72081663, 0.17133804], "xyz": [1.5459966777691199, 8.41177365489129, 7.714088494493041], "label": "O", "properties": {}}, {"species": [{"element": "O", "occu": 1}], "abc": [0.2496722, 0.30049376, 0.12956424], "xyz": [1.5357816392624, 3.50669697205408, 5.83332232049424], "label": "O", "properties": {}}, {"species": [{"element": "O", "occu": 1}], "abc": [0.75654788, 0.13729204, 0.16103409000000002], "xyz": [4.653671267072959, 1.6021683144273202, 7.2501776073203414], "label": "O", "properties": {}}, {"species": [{"element": "O", "occu": 1}], "abc": [0.24644141, 0.70823622, 0.09838452], "xyz": [1.51590842966072, 8.264963000140261, 4.429529448149521], "label": "O", "properties": {}}, {"species": [{"element": "O", "occu": 1}], "abc": [0.75240356, 0.90252363, 0.09180648999999999], "xyz": [4.62817875904352, 10.532254914472292, 4.13336926364274], "label": "O", "properties": {}}, {"species": [{"element": "O", "occu": 1}], "abc": [0.75450581, 0.36244088, 0.11803321], "xyz": [4.64111010242552, 4.22960641992904, 5.31416506940946], "label": "O", "properties": {}}, {"species": [{"element": "O", "occu": 1}], "abc": [0.25321344, 0.07358747, 0.17465867000000002], "xyz": [1.55756448642048, 0.8587498064190101, 7.863591977067421], "label": "O", "properties": {}}, {"species": [{"element": "O", "occu": 1}], "abc": [0.45801979, 0.3654088, 0.25062048], "xyz": [2.81736766808968, 4.2642414022904, 11.28359213898048], "label": "O", "properties": {}}, {"species": [{"element": "O", "occu": 1}], "abc": [0.54464816, 0.69995807, 0.24137762999999998], "xyz": [3.35023540460672, 8.16835878599881, 10.86745476025638], "label": "O", "properties": {}}, {"species": [{"element": "O", "occu": 1}], "abc": [0.54632261, 0.12535849, 0.28242692999999996], "xyz": [3.3605352680511205, 1.4629063755076699, 12.71560204171818], "label": "O", "properties": {}}, {"species": [{"element": "O", "occu": 1}], "abc": [0.46000636, 0.94088247, 0.20939792000000002], "xyz": [2.82958744158112, 10.97989425340401, 9.42764423733792], "label": "O", "properties": {}}, {"species": [{"element": "O", "occu": 1}], "abc": [0.04563262, 0.94069545, 0.20930122], "xyz": [0.28069500708304, 10.97771177058735, 9.42329054940372], "label": "O", "properties": {}}, {"species": [{"element": "O", "occu": 1}], "abc": [0.96070084, 0.12527228, 0.28259007999999997], "xyz": [5.90945532140128, 1.4619003235152404, 12.72294748315008], "label": "O", "properties": {}}, {"species": [{"element": "O", "occu": 1}], "abc": [0.95849647, 0.70016048, 0.24130355], "xyz": [5.8958958182922405, 8.17072086677584, 10.8641194841223], "label": "O", "properties": {}}, {"species": [{"element": "O", "occu": 1}], "abc": [0.04439257, 0.36571035, 0.25059561999999996], "xyz": [0.27306722144344, 4.267760425354051, 11.282472876498119], "label": "O", "properties": {}}, {"species": [{"element": "O", "occu": 1}], "abc": [0.75171764, 0.52885799, 0.22052406], "xyz": [4.62395953342688, 6.17165798111617, 9.92857227738156], "label": "O", "properties": {}}, {"species": [{"element": "O", "occu": 1}], "abc": [0.25145207, 0.53676545, 0.27142270999999996], "xyz": [1.5467299613674401, 6.26393632339735, 12.220163160236458], "label": "O", "properties": {}}, {"species": [{"element": "O", "occu": 1}], "abc": [0.25213715, 0.11105824, 0.23054216], "xyz": [1.5509440199828, 1.29602556116192, 10.37961344691216], "label": "O", "properties": {}}, {"species": [{"element": "O", "occu": 1}], "abc": [0.75391367, 0.95490369, 0.26133071999999996], "xyz": [4.63746773559464, 11.143518848199271, 11.765795268870718], "label": "O", "properties": {}}, {"species": [{"element": "O", "occu": 1}], "abc": [0.25262595, 0.53012873, 0.19930659], "xyz": [1.5539507226323999, 6.186487241165591, 8.97330606090534], "label": "O", "properties": {}}, {"species": [{"element": "O", "occu": 1}], "abc": [0.75080499, 0.7192715, 0.19265817000000002], "xyz": [4.61834564804808, 8.3937423230845, 8.67397673375442], "label": "O", "properties": {}}, {"species": [{"element": "O", "occu": 1}], "abc": [0.75247642, 0.17546856, 0.21684989000000002], "xyz": [4.62862693489264, 2.04768001852248, 9.763151495611142], "label": "O", "properties": {}}, {"species": [{"element": "O", "occu": 1}], "abc": [0.25320202, 0.89079348, 0.27508272], "xyz": [1.5574942398078402, 10.395366609414841, 12.38494642162272], "label": "O", "properties": {}}, {"species": [{"element": "O", "occu": 1}], "abc": [0.45755843, 0.18535909, 0.35150045999999996], "xyz": [2.81452975414856, 2.1631003573774703, 15.825473749407958], "label": "O", "properties": {}}, {"species": [{"element": "O", "occu": 1}], "abc": [0.54400006, 0.51585935, 0.34104933], "xyz": [3.34624881707152, 6.019966673021051, 15.35493643214058], "label": "O", "properties": {}}, {"species": [{"element": "O", "occu": 1}], "abc": [0.55077833, 0.93943659, 0.38303813], "xyz": [3.38794325726936, 10.96302114755997, 17.24538247072938], "label": "O", "properties": {}}, {"species": [{"element": "O", "occu": 1}], "abc": [0.46061512, 0.75767126, 0.30959], "xyz": [2.83333204122304, 8.84185918953658, 13.938554783339999], "label": "O", "properties": {}}, {"species": [{"element": "O", "occu": 1}], "abc": [0.04617935, 0.75865235, 0.30986856999999995], "xyz": [0.2840580482852, 8.85330829694005, 13.95109673626482], "label": "O", "properties": {}}, {"species": [{"element": "O", "occu": 1}], "abc": [0.96242359, 0.93648038, 0.38191753], "xyz": [5.92005228741928, 10.928522818357541, 17.19493011603378], "label": "O", "properties": {}}, {"species": [{"element": "O", "occu": 1}], "abc": [0.95776333, 0.51608967, 0.34136317], "xyz": [5.89138613338936, 6.02265445744161, 15.36906633308442], "label": "O", "properties": {}}, {"species": [{"element": "O", "occu": 1}], "abc": [0.0436412, 0.18402581, 0.35197731], "xyz": [0.2684454003104, 2.1475412690992304, 15.84694278861606], "label": "O", "properties": {}}, {"species": [{"element": "O", "occu": 1}], "abc": [0.7520218, 0.34489416, 0.32063087999999995], "xyz": [4.625830479985599, 4.02484000516728, 14.435644194290878], "label": "O", "properties": {}}, {"species": [{"element": "O", "occu": 1}], "abc": [0.25018428, 0.35601823, 0.37291862], "xyz": [1.53893154166176, 4.1546554881440905, 16.78977555669612], "label": "O", "properties": {}}, {"species": [{"element": "O", "occu": 1}], "abc": [0.25611346, 0.92868263, 0.33090739999999996], "xyz": [1.5754030662443201, 10.83752476796929, 14.8983201108324], "label": "O", "properties": {}}, {"species": [{"element": "O", "occu": 1}], "abc": [0.75111546, 0.76585399, 0.36204709999999996], "xyz": [4.62025540862832, 8.93734987298417, 16.3003111776846], "label": "O", "properties": {}}, {"species": [{"element": "O", "occu": 1}], "abc": [0.25108346, 0.34631089, 0.29927087999999996], "xyz": [1.5444625704843198, 4.04137293683687, 13.473960902930878], "label": "O", "properties": {}}, {"species": [{"element": "O", "occu": 1}], "abc": [0.75271914, 0.53549234, 0.29265901], "xyz": [4.63011995221488, 6.24907940596222, 13.17627715276026], "label": "O", "properties": {}}, {"species": [{"element": "O", "occu": 1}], "abc": [0.75297348, 0.99259909, 0.31719727], "xyz": [4.63168444638816, 11.58341598629747, 14.281054055431019], "label": "O", "properties": {}}, {"species": [{"element": "O", "occu": 1}], "abc": [0.25413508, 0.70347116, 0.37398092], "xyz": [1.56323367101536, 8.20935578395828, 16.83760309229592], "label": "O", "properties": {}}, {"species": [{"element": "O", "occu": 1}], "abc": [0.48419635, 0.99244494, 0.4489915], "xyz": [2.9783847145492, 11.581617089248022, 20.214776381679002], "label": "O", "properties": {}}, {"species": [{"element": "O", "occu": 1}], "abc": [0.56246203, 0.34244001, 0.44430150999999996], "xyz": [3.4598119392397595, 3.99620060721783, 20.00362071596526], "label": "O", "properties": {}}, {"species": [{"element": "O", "occu": 1}], "abc": [0.4548665, 0.57114595, 0.40997015], "xyz": [2.797971175868, 6.665149297828851, 18.4579327346139], "label": "O", "properties": {}}, {"species": [{"element": "O", "occu": 1}], "abc": [0.04748882, 0.57304309, 0.40970483999999996], "xyz": [0.29211284967344003, 6.68728850994947, 18.44598778170984], "label": "O", "properties": {}}, {"species": [{"element": "O", "occu": 1}], "abc": [0.98447217, 0.33998185, 0.4394957], "xyz": [6.05567733632664, 3.96751441343855, 19.7872505297082], "label": "O", "properties": {}}, {"species": [{"element": "O", "occu": 1}], "abc": [0.06817252, 0.01248017, 0.44624208], "xyz": [0.41934225964384, 0.14564087570311002, 20.09099027330208], "label": "O", "properties": {}}, {"species": [{"element": "O", "occu": 1}], "abc": [0.7640823, 0.16968319, 0.42269326999999995], "xyz": [4.7000169311016, 1.9801660060477702, 19.03076100792702], "label": "O", "properties": {}}, {"species": [{"element": "O", "occu": 1}], "abc": [0.28739133, 0.14624014, 0.47739202], "xyz": [1.76779924996536, 1.70659069968962, 21.49344237184452], "label": "O", "properties": {}}, {"species": [{"element": "O", "occu": 1}], "abc": [0.25498234, 0.74916606, 0.42882818], "xyz": [1.5684453299492798, 8.74260535116498, 19.30697076640068], "label": "O", "properties": {}}, {"species": [{"element": "O", "occu": 1}], "abc": [0.25268106, 0.1630954, 0.40015343999999997], "xyz": [1.5542897148235202, 1.9032879262982, 18.01595867173344], "label": "O", "properties": {}}, {"species": [{"element": "O", "occu": 1}], "abc": [0.74543392, 0.35680775, 0.39364167], "xyz": [4.58530716523264, 4.16386901521825, 17.72278168642542], "label": "O", "properties": {}}, {"species": [{"element": "O", "occu": 1}], "abc": [0.76052268, 0.80447199, 0.41775657], "xyz": [4.67812102503456, 9.38801355287817, 18.808497810152822], "label": "O", "properties": {}}, {"species": [{"element": "O", "occu": 1}], "abc": [0.24497596, 0.92687976, 0.49197436999999994], "xyz": [1.50689416534432, 10.816485666292081, 22.14997806209562], "label": "O", "properties": {}}]}, "formula": "(Li3PO4)18.0", "bandgap": 4.1855, "slab_thickness": 22.14547579949562}