{"miller": "101_0.27", "final_energy": -997.02948985, "gamma": 0.06727276198565926, "work_function": "Not calculated", "ionization_potentail": "Not calculated", "electron_affinity": "Not calculated", "is_stochiometric": true, "incar_parameters": {"SYSTEM": "unknown system", "LCOMPAT": false, "PREC": "normal", "ENMAX": 520.0, "ENAUG": 628.945, "EDIFF": 1e-05, "IALGO": 38, "IWAVPR": 11, "NBANDS": 462, "NBANDSLOW": -1, "NBANDSHIGH": -1, "NELECT": 760.0, "TURBO": 0, "IRESTART": 0, "NREBOOT": 0, "NMIN": 0, "EREF": 0.0, "ISMEAR": 0, "SIGMA": 0.05, "KSPACING": 0.5, "KGAMMA": true, "KBLOWUP": true, "LREAL": true, "ROPT": [-0.0005, -0.0005, -0.0005], "LMAXPAW": -100, "LMAXMIX": 2, "NLSPLINE": false, "ISTART": 0, "ICHARG": 2, "INIWAV": 1, "ISPIN": 1, "LNONCOLLINEAR": false, "MAGMOM": [0.6, 0.6, 0.6, 0.6, 0.6, 0.6, 0.6, 0.6, 0.6, 0.6, 0.6, 0.6, 0.6, 0.6, 0.6, 0.6, 0.6, 0.6, 0.6, 0.6, 0.6, 0.6, 0.6, 0.6, 0.6, 0.6, 0.6, 0.6, 0.6, 0.6, 0.6, 0.6, 0.6, 0.6, 0.6, 0.6, 0.6, 0.6, 0.6, 0.6, 0.6, 0.6, 0.6, 0.6, 0.6, 0.6, 0.6, 0.6, 0.6, 0.6, 0.6, 0.6, 0.6, 0.6, 0.6, 0.6, 0.6, 0.6, 0.6, 0.6, 0.6, 0.6, 0.6, 0.6, 0.6, 0.6, 0.6, 0.6, 0.6, 0.6, 0.6, 0.6, 0.6, 0.6, 0.6, 0.6, 0.6, 0.6, 0.6, 0.6, 0.6, 0.6, 0.6, 0.6, 0.6, 0.6, 0.6, 0.6, 0.6, 0.6, 0.6, 0.6, 0.6, 0.6, 0.6, 0.6, 0.6, 0.6, 0.6, 0.6, 0.6, 0.6, 0.6, 0.6, 0.6, 0.6, 0.6, 0.6, 0.6, 0.6, 0.6, 0.6, 0.6, 0.6, 0.6, 0.6, 0.6, 0.6, 0.6, 0.6, 0.6, 0.6, 0.6, 0.6, 0.6, 0.6, 0.6, 0.6, 0.6, 0.6, 0.6, 0.6, 0.6, 0.6, 0.6, 0.6, 0.6, 0.6, 0.6, 0.6, 0.6, 0.6, 0.6, 0.6, 0.6, 0.6, 0.6, 0.6, 0.6, 0.6, 0.6, 0.6, 0.6, 0.6, 0.6, 0.6, 0.6, 0.6, 0.6, 0.6], "NUPDOWN": -1.0, "LSORBIT": false, "SAXIS": [0.0, 0.0, 1.0], "LSPIRAL": false, "QSPIRAL": [0.0, 0.0, 0.0], "LZEROZ": false, "LASPH": false, "LMETAGGA": false, "NELM": 100, "NELMDL": -5, "NELMIN": 6, "ENINI": 520.0, "LDIAG": true, "LSUBROT": false, "WEIMIN": 0.001, "EBREAK": 1e-08, "DEPER": 0.3, "NRMM": 4, "TIME": 0.4, "AMIX": 0.4, "BMIX": 1.0, "AMIN": 0.1, "AMIX_MAG": 1.6, "BMIX_MAG": 1.0, "IMIX": 4, "MIXFIRST": false, "MAXMIX": -45, "WC": 100.0, "INIMIX": 1, "MIXPRE": 1, "MREMOVE": 5, "LDIPOL": false, "LMONO": false, "IDIPOL": 0, "EPSILON": 1.0, "DIPOL": [-100.0, -100.0, -100.0], "EFIELD": 0.0, "NGX": 36, "NGY": 70, "NGZ": 252, "NGXF": 72, "NGYF": 140, "NGZF": 504, "ADDGRID": false, "NSW": 150, "IBRION": 2, "MDALGO": 0, "ISIF": 2, "PSTRESS": 0.0, "EDIFFG": -0.01, "NFREE": 1, "POTIM": 0.5, "SMASS": -3.0, "SCALEE": 1.0, "TEBEG": 0.0001, "TEEND": 0.0001, "NBLOCK": 1, "KBLOCK": 150, "NPACO": 256, "APACO": 10.0, "ISYM": 0, "SYMPREC": 1e-05, "LORBIT": 11, "RWIGS": [-1.0, -1.0, -1.0], "NEDOS": 301, "EMIN": 10.0, "EMAX": -10.0, "EFERMI": 0.0, "NWRITE": 2, "LWAVE": false, "LDOWNSAMPLE": false, "LCHARG": false, "LPARD": false, "LVTOT": false, "LVHAR": false, "LELF": false, "LOPTICS": false, "STM": [0.0, 0.0, 0.0, 0.0, 0.0, 0.0, 0.0], "NPAR": 2, "NSIM": 4, "NBLK": -1, "LPLANE": true, "LSCALAPACK": true, "LSCAAWARE": false, "LSCALU": false, "LASYNC": false, "LORBITALREAL": false, "IDIOT": 3, "PHON_NSTRUCT": -1, "LMUSIC": false, "POMASS": [7.01, 30.974, 16.0], "DARWINR": [0.0, 0.0, 0.0], "DARWINV": [1.0, 1.0, 1.0], "LCORR": true, "GGA_COMPAT": true, "LBERRY": false, "ICORELEVEL": 0, "LDAU": false, "I_CONSTRAINED_M": 0, "GGA": "--", "VOSKOWN": 0, "LHFCALC": false, "PRECFOCK": "", "LSYMGRAD": false, "LHFONE": false, "LRHFCALC": false, "LTHOMAS": false, "LMODELHF": false, "LFOCKACE": false, "ENCUT4O": -1.0, "EXXOEP": 0, "FOURORBIT": 0, "AEXX": 0.0, "HFALPHA": 0.0, "MCALPHA": 0.0, "ALDAX": 1.0, "AGGAX": 1.0, "ALDAC": 1.0, "AGGAC": 1.0, "NKREDX": 1, "NKREDY": 1, "NKREDZ": 1, "SHIFTRED": false, "ODDONLY": false, "EVENONLY": false, "LMAXFOCK": 0, "NMAXFOCKAE": 0, "LFOCKAEDFT": false, "HFSCREEN": 0.0, "HFSCREENC": 0.0, "NBANDSGWLOW": 0, "LUSE_VDW": false, "Zab_VDW": -0.8491, "PARAM1": 0.1234, "PARAM2": 1.0, "PARAM3": 0.0, "MODEL_GW": 0, "MODEL_EPS0": 12.11948466, "MODEL_ALPHA": 1.0, "LEPSILON": false, "LRPA": false, "LNABLA": false, "LVEL": false, "CSHIFT": 0.1, "OMEGAMAX": -1.0, "DEG_THRESHOLD": 0.002, "RTIME": -0.1, "WPLASMAI": 0.0, "DFIELD": [0.0, 0.0, 0.0], "WPLASMA": [0.0, 0.0, 0.0, 0.0, 0.0, 0.0, 0.0, 0.0, 0.0], "NUCIND": false, "MAGPOS": [0.0, 0.0, 0.0], "LNICSALL": true, "ORBITALMAG": false, "LMAGBLOCH": false, "LCHIMAG": false, "LGAUGE": true, "MAGATOM": 0, "MAGDIPOL": [0.0, 0.0, 0.0], "AVECCONST": [0.0, 0.0, 0.0], "LFINITE_TEMPERATURE": false, "LADDER": false, "LRPAFORCE": false, "LFXC": false, "LHARTREE": true, "IBSE": 0, "KPOINT": [-1, 0, 0, 0], "LTCTC": false, "LTCTE": false, "LTETE": false, "LTRIPLET": false, "LFXCEPS": false, "LFXHEG": false, "NATURALO": 2, "LHOLEGF": false, "L2ORDER": false, "LDMP1": false, "LMP2LT": false, "LSMP2LT": false, "LGWLF": false, "ENCUTGW": -2.0, "ENCUTGWSOFT": -2.0, "ENCUTLF": -1.0, "LESF_SPLINES": false, "LMAXMP2": -1, "SCISSOR": 0.0, "NOMEGA": 0, "NOMEGAR": 0, "NBANDSGW": -1, "NBANDSO": -1, "NBANDSV": -1, "NELMGW": 1, "NELMHF": 1, "DIM": 3, "IESPILON": 4, "ANTIRES": 0, "OMEGAMIN": -30.0, "OMEGATL": -200.0, "OMEGAGRID": 0, "LSELFENERGY": false, "LSPECTRAL": false, "LSPECTRALGW": false, "LSINGLES": false, "LFERMIGW": false, "ODDONLYGW": false, "EVENONLYGW": false, "NKREDLFX": 1, "NKREDLFY": 1, "NKREDLFZ": 1, "MAXMEM": 2800, "TELESCOPE": 0, "NTAUPAR": -1, "NOMEGAPAR": -1, "DAMP_NEWTON": 0.80000001, "LAMBDA": 1.0, "OFIELD_KAPPA": 0.0, "OFIELD_K": [0.0, 0.0, 0.0], "OFIELD_Q6_NEAR": 0.0, "OFIELD_Q6_FAR": 0.0, "OFIELD_A": 0.0, "KPOINTS_OPT_MODE": 1, "LKPOINTS_OPT": false, "@module": "pymatgen.io.vasp.inputs", "@class": "Incar"}, "relaxed_structures": {"@module": "pymatgen.core.structure", "@class": "Structure", "charge": 0, "lattice": {"matrix": [[6.151192, 0.0, 0.0], [0.0, 11.669783, 0.0], [0.0, 0.0, 45.022626]], "a": 6.151192, "b": 11.669783, "c": 45.022626, "alpha": 90.0, "beta": 90.0, "gamma": 90.0, "volume": 3231.86257628388}, "sites": [{"species": [{"element": "Li", "occu": 1}], "abc": [0.50043476, 0.19401765, 0.011391150000000037], "xyz": [3.07827029223392, 2.2641438736699504, 0.5128594861599017], "label": "Li", "properties": {}}, {"species": [{"element": "Li", "occu": 1}], "abc": [0.46185739, 0.54168231, 0.06651530000000004], "xyz": [2.84097348250888, 6.32131501263873, 2.994693475177802], "label": "Li", "properties": {}}, {"species": [{"element": "Li", "occu": 1}], "abc": [0.48842997, 0.19497694, 0.08144801000000004], "xyz": [3.00442652402424, 2.27533857980402, 3.667003292674262], "label": "Li", "properties": {}}, {"species": [{"element": "Li", "occu": 1}], "abc": [0.01146544, 0.19469063, 0.08153689000000004], "xyz": [0.07052612280448001, 2.27199740423329, 3.671004903673142], "label": "Li", "properties": {}}, {"species": [{"element": "Li", "occu": 1}], "abc": [0.03147142, 0.54213129, 0.06688944000000004], "xyz": [0.19358674693264, 6.326554511810071, 3.011538240469442], "label": "Li", "properties": {}}, {"species": [{"element": "Li", "occu": 1}], "abc": [0.9992093, 0.19211258, 0.011443300000000038], "xyz": [6.1463282524856, 2.24191212017014, 0.5152074161058018], "label": "Li", "properties": {}}, {"species": [{"element": "Li", "occu": 1}], "abc": [0.74983308, 0.77990777, 0.07278889000000004], "xyz": [4.61236724303136, 9.10135443591391, 3.2771469714251418], "label": "Li", "properties": {}}, {"species": [{"element": "Li", "occu": 1}], "abc": [0.24994086, 0.96902702, 0.06246574000000005], "xyz": [1.53743421850512, 11.30833504453666, 2.8123716498332425], "label": "Li", "properties": {}}, {"species": [{"element": "Li", "occu": 1}], "abc": [0.75001953, 0.29703103, 0.05235721000000004], "xyz": [4.61351413277976, 3.4662876643664897, 2.357259084233462], "label": "Li", "properties": {}}, {"species": [{"element": "Li", "occu": 1}], "abc": [0.50218065, 0.5948105, 0.13502616000000003], "xyz": [3.0890095968348, 6.9413094611215005, 6.079232301896162], "label": "Li", "properties": {}}, {"species": [{"element": "Li", "occu": 1}], "abc": [0.50520927, 0.96399436, 0.10866298000000003], "xyz": [3.1076392199498404, 11.249604994423882, 4.892292708585482], "label": "Li", "properties": {}}, {"species": [{"element": "Li", "occu": 1}], "abc": [0.50271814, 0.35946503, 0.17251917000000003], "xyz": [3.09231580102288, 4.194878896188491, 7.767266068740422], "label": "Li", "properties": {}}, {"species": [{"element": "Li", "occu": 1}], "abc": [0.50145647, 0.01460476, 0.17779329000000005], "xyz": [3.0845550266122403, 0.17043437996708, 8.004720800979543], "label": "Li", "properties": {}}, {"species": [{"element": "Li", "occu": 1}], "abc": [0.9986823, 0.01459143, 0.17779030000000004], "xyz": [6.1430865743016, 0.17027882175969003, 8.004586183327802], "label": "Li", "properties": {}}, {"species": [{"element": "Li", "occu": 1}], "abc": [0.99729194, 0.35950269, 0.17251385000000002], "xyz": [6.13453420299248, 4.19531838021627, 7.767026548370102], "label": "Li", "properties": {}}, {"species": [{"element": "Li", "occu": 1}], "abc": [0.99478538, 0.96395429, 0.10865433000000004], "xyz": [6.11911587117296, 11.24913738621907, 4.891903262870581], "label": "Li", "properties": {}}, {"species": [{"element": "Li", "occu": 1}], "abc": [0.99782058, 0.59484015, 0.13504093000000003], "xyz": [6.13778596913136, 6.941655470187451, 6.079897286082182], "label": "Li", "properties": {}}, {"species": [{"element": "Li", "occu": 1}], "abc": [0.74995818, 0.59108175, 0.18512351000000005], "xyz": [4.61313675715056, 6.89779575776025, 8.334746554537263], "label": "Li", "properties": {}}, {"species": [{"element": "Li", "occu": 1}], "abc": [0.24996578, 0.78393606, 0.16002345000000004], "xyz": [1.53758750620976, 9.148363706074981, 7.204675940579702], "label": "Li", "properties": {}}, {"species": [{"element": "Li", "occu": 1}], "abc": [0.24988501, 0.38783222, 0.11088698000000004], "xyz": [1.53709067443192, 4.525917847808261, 4.992423028809482], "label": "Li", "properties": {}}, {"species": [{"element": "Li", "occu": 1}], "abc": [0.75001684, 0.16792033, 0.14612527000000003], "xyz": [4.61349758607328, 1.9595938123883903, 6.578943380359021], "label": "Li", "properties": {}}, {"species": [{"element": "Li", "occu": 1}], "abc": [0.49733674, 0.40757389, 0.23847176000000003], "xyz": [3.05921377639408, 4.7562988527658705, 10.736624862041761], "label": "Li", "properties": {}}, {"species": [{"element": "Li", "occu": 1}], "abc": [0.50265978, 0.78494753, 0.20939978000000004], "xyz": [3.09195681745776, 9.16016734148599, 9.427727979422283], "label": "Li", "properties": {}}, {"species": [{"element": "Li", "occu": 1}], "abc": [0.50163849, 0.1741296, 0.27112088000000006], "xyz": [3.0856746665800805, 2.0320546458768, 12.206573981030884], "label": "Li", "properties": {}}, {"species": [{"element": "Li", "occu": 1}], "abc": [0.49874092, 0.83354, 0.27747560000000004], "xyz": [3.06785115717664, 9.72723092182, 12.492680162925602], "label": "Li", "properties": {}}, {"species": [{"element": "Li", "occu": 1}], "abc": [0.0024065, 0.83405459, 0.27754297000000006], "xyz": [0.014802843547999999, 9.733236075453972, 12.495713337239224], "label": "Li", "properties": {}}, {"species": [{"element": "Li", "occu": 1}], "abc": [0.99867928, 0.17413094, 0.27114126000000005], "xyz": [6.14306799770176, 2.0320702833860205, 12.207491542148762], "label": "Li", "properties": {}}, {"species": [{"element": "Li", "occu": 1}], "abc": [0.9974926, 0.78491829, 0.20943256000000005], "xyz": [6.1357685011792, 9.15982611703107, 9.429203821102563], "label": "Li", "properties": {}}, {"species": [{"element": "Li", "occu": 1}], "abc": [0.00277384, 0.40758296, 0.23846778000000005], "xyz": [0.01706242241728, 4.75640469769768, 10.736445671990282], "label": "Li", "properties": {}}, {"species": [{"element": "Li", "occu": 1}], "abc": [0.75010496, 0.40420627, 0.28767202000000003], "xyz": [4.6140396291123205, 4.71699945813941, 12.951749767124522], "label": "Li", "properties": {}}, {"species": [{"element": "Li", "occu": 1}], "abc": [0.25046928, 0.60218458, 0.26092373], "xyz": [1.5406846313817602, 7.02736337454614, 11.747471510314982], "label": "Li", "properties": {}}, {"species": [{"element": "Li", "occu": 1}], "abc": [0.25004111, 0.21072403, 0.20314449000000004], "xyz": [1.5380508755031201, 2.45910370298549, 9.146098397230743], "label": "Li", "properties": {}}, {"species": [{"element": "Li", "occu": 1}], "abc": [0.75107395, 0.97964594, 0.24664749000000002], "xyz": [4.6200000726484, 11.432255536631022, 11.104717696108741], "label": "Li", "properties": {}}, {"species": [{"element": "Li", "occu": 1}], "abc": [0.4982719, 0.22366253, 0.33934306000000003], "xyz": [3.0649661251048, 2.61009319033099, 15.278115676075561], "label": "Li", "properties": {}}, {"species": [{"element": "Li", "occu": 1}], "abc": [0.50465598, 0.59916954, 0.31001674], "xyz": [3.10423582692816, 6.99217851200982, 13.957767738759241], "label": "Li", "properties": {}}, {"species": [{"element": "Li", "occu": 1}], "abc": [0.4993125, 0.99085255, 0.37093019000000005], "xyz": [3.0713670555, 11.56303424349665, 16.700251216478943], "label": "Li", "properties": {}}, {"species": [{"element": "Li", "occu": 1}], "abc": [0.49691456, 0.64855358, 0.37566210000000005], "xyz": [3.05661686615552, 7.56847954247314, 16.9132942306746], "label": "Li", "properties": {}}, {"species": [{"element": "Li", "occu": 1}], "abc": [0.00362207, 0.6485238, 0.37555285000000005], "xyz": [0.02228004800744, 7.5681320163354, 16.908375508784104], "label": "Li", "properties": {}}, {"species": [{"element": "Li", "occu": 1}], "abc": [0.00072809, 0.99087925, 0.37102602], "xyz": [0.00447862138328, 11.56334582670275, 16.704565734728522], "label": "Li", "properties": {}}, {"species": [{"element": "Li", "occu": 1}], "abc": [0.99718849, 0.59977888, 0.30943244000000003], "xyz": [6.1338978621800795, 6.9992893775830405, 13.931461018387441], "label": "Li", "properties": {}}, {"species": [{"element": "Li", "occu": 1}], "abc": [0.00317576, 0.22288782, 0.33950911000000006], "xyz": [0.01953470950592, 2.60105249274306, 15.285591683122863], "label": "Li", "properties": {}}, {"species": [{"element": "Li", "occu": 1}], "abc": [0.75013633, 0.22128112, 0.38883672], "xyz": [4.61423259200536, 2.5823026523969603, 17.50645021962672], "label": "Li", "properties": {}}, {"species": [{"element": "Li", "occu": 1}], "abc": [0.25062911, 0.41722123, 0.36312646000000004], "xyz": [1.54166777639912, 4.86888121709309, 16.348906799283963], "label": "Li", "properties": {}}, {"species": [{"element": "Li", "occu": 1}], "abc": [0.251265, 0.02870953, 0.30183620000000005], "xyz": [1.54557925788, 0.33503398513199, 13.589458345861203], "label": "Li", "properties": {}}, {"species": [{"element": "Li", "occu": 1}], "abc": [0.75022695, 0.7971991, 0.34491391000000005], "xyz": [4.6147900130243995, 9.303140504795302, 15.528929972127663], "label": "Li", "properties": {}}, {"species": [{"element": "Li", "occu": 1}], "abc": [0.4964781, 0.04282153, 0.43985725000000003], "xyz": [3.0539321168952, 0.49971796282798997, 19.8035284601385], "label": "Li", "properties": {}}, {"species": [{"element": "Li", "occu": 1}], "abc": [0.49866732, 0.41155752, 0.41355620000000004], "xyz": [3.06739842944544, 4.80278695041816, 18.619386122581204], "label": "Li", "properties": {}}, {"species": [{"element": "Li", "occu": 1}], "abc": [0.51160721, 0.80875232, 0.46739215000000006], "xyz": [3.14699417729432, 9.43796407514656, 21.043221964785904], "label": "Li", "properties": {}}, {"species": [{"element": "Li", "occu": 1}], "abc": [0.53919056, 0.46605947, 0.48213665000000006], "xyz": [3.31666465914752, 5.43881287999501, 21.707058073842905], "label": "Li", "properties": {}}, {"species": [{"element": "Li", "occu": 1}], "abc": [0.96735548, 0.46567681, 0.48145097000000003], "xyz": [5.95038928973216, 5.43434732083223, 21.67618695964722], "label": "Li", "properties": {}}, {"species": [{"element": "Li", "occu": 1}], "abc": [0.9887755, 0.81365704, 0.46632058000000004], "xyz": [6.082147945396001, 9.49520109322232, 20.994977069443085], "label": "Li", "properties": {}}, {"species": [{"element": "Li", "occu": 1}], "abc": [0.00313741, 0.41184197, 0.41336352000000004], "xyz": [0.01929881129272, 4.80610642019251, 18.610711163003522], "label": "Li", "properties": {}}, {"species": [{"element": "Li", "occu": 1}], "abc": [0.00400337, 0.04362661, 0.43979661000000003], "xyz": [0.02462549751704, 0.50911307172563, 19.800798288097862], "label": "Li", "properties": {}}, {"species": [{"element": "Li", "occu": 1}], "abc": [0.75005295, 0.03932057, 0.48620246000000006], "xyz": [4.6137197056164005, 0.45886251933631, 21.890111516859964], "label": "Li", "properties": {}}, {"species": [{"element": "Li", "occu": 1}], "abc": [0.25207321, 0.2282402, 0.47550106000000003], "xyz": [1.5505507127663198, 2.6635136058766, 21.40830638698356], "label": "Li", "properties": {}}, {"species": [{"element": "Li", "occu": 1}], "abc": [0.25003671, 0.83989012, 0.40256060000000005], "xyz": [1.53802381025832, 9.80133544424396, 18.1243353361356], "label": "Li", "properties": {}}, {"species": [{"element": "Li", "occu": 1}], "abc": [0.75019725, 0.61797938, 0.43722468000000003], "xyz": [4.614607322622001, 7.21168526307454, 19.685003245609682], "label": "Li", "properties": {}}, {"species": [{"element": "Li", "occu": 1}], "abc": [0.49200404, 0.81148424, 0.53719255], "xyz": [3.0264113148156797, 9.46984498871992, 24.1858192686363], "label": "Li", "properties": {}}, {"species": [{"element": "Li", "occu": 1}], "abc": [0.99626278, 0.81708969, 0.5364909], "xyz": [6.1282036422337605, 9.53525937383727, 24.1542291431034], "label": "Li", "properties": {}}, {"species": [{"element": "Li", "occu": 1}], "abc": [0.2418202, 0.70688385, 0.49596280000000004], "xyz": [1.4874824796784, 8.24918113570455, 22.329547654312805], "label": "Li", "properties": {}}, {"species": [{"element": "P", "occu": 1}], "abc": [0.24982193, 0.73795664, 0.09358826000000003], "xyz": [1.53670265724056, 8.611793852209122, 4.213589227970762], "label": "P", "properties": {}}, {"species": [{"element": "P", "occu": 1}], "abc": [0.74939636, 0.01637281, 0.04880548000000004], "xyz": [4.60968089446112, 0.19106713980023002, 2.197350872790482], "label": "P", "properties": {}}, {"species": [{"element": "P", "occu": 1}], "abc": [0.24876355, 0.3448213, 0.03250014000000004], "xyz": [1.5301923586516, 4.0239897447779, 1.4632416481676418], "label": "P", "properties": {}}, {"species": [{"element": "P", "occu": 1}], "abc": [0.25000574, 0.55989637, 0.19481822000000004], "xyz": [1.5378333078420798, 6.5338691403877105, 8.771227857045723], "label": "P", "properties": {}}, {"species": [{"element": "P", "occu": 1}], "abc": [0.74994596, 0.81543339, 0.15059232000000003], "xyz": [4.61306158958432, 9.51593071225437, 6.780061701832322], "label": "P", "properties": {}}, {"species": [{"element": "P", "occu": 1}], "abc": [0.74963289, 0.3842895, 0.11335272000000003], "xyz": [4.61113583590488, 4.4845750741785, 5.103437118642722], "label": "P", "properties": {}}, {"species": [{"element": "P", "occu": 1}], "abc": [0.25008128, 0.16825753, 0.13626129000000003], "xyz": [1.53829796888576, 1.96352886321599, 6.134841097947542], "label": "P", "properties": {}}, {"species": [{"element": "P", "occu": 1}], "abc": [0.25024559, 0.37530583, 0.29640876000000005], "xyz": [1.5393086712432802, 4.37973759473489, 13.345100744603762], "label": "P", "properties": {}}, {"species": [{"element": "P", "occu": 1}], "abc": [0.75022095, 0.63219241, 0.25192078], "xyz": [4.6147531058724, 7.377548238947031, 11.342135059568282], "label": "P", "properties": {}}, {"species": [{"element": "P", "occu": 1}], "abc": [0.75018858, 0.20352794, 0.21424193000000002], "xyz": [4.61455399178736, 2.37512689423702, 9.645734287908182], "label": "P", "properties": {}}, {"species": [{"element": "P", "occu": 1}], "abc": [0.25045001, 0.98743975, 0.23455763000000004], "xyz": [1.54056609791192, 11.52320760807425, 10.560400450936383], "label": "P", "properties": {}}, {"species": [{"element": "P", "occu": 1}], "abc": [0.25069639, 0.19102787, 0.39786405], "xyz": [1.54208162859688, 2.22925378985221, 17.912884321995303], "label": "P", "properties": {}}, {"species": [{"element": "P", "occu": 1}], "abc": [0.75086412, 0.44751336, 0.35370283], "xyz": [4.61870936803104, 5.2223838008008805, 15.924630230231582], "label": "P", "properties": {}}, {"species": [{"element": "P", "occu": 1}], "abc": [0.75068772, 0.02082829, 0.31406717000000006], "xyz": [4.61762429776224, 0.24306162456107, 14.140128733788423], "label": "P", "properties": {}}, {"species": [{"element": "P", "occu": 1}], "abc": [0.25025845, 0.80373673, 0.33412702000000005], "xyz": [1.5393877755724001, 9.37943322822959, 15.043275857954523], "label": "P", "properties": {}}, {"species": [{"element": "P", "occu": 1}], "abc": [0.25231409, 0.99069427, 0.49934972000000005], "xyz": [1.55203241189528, 11.561187150243411, 22.482035686764725], "label": "P", "properties": {}}, {"species": [{"element": "P", "occu": 1}], "abc": [0.75098443, 0.26971406, 0.45497459], "xyz": [4.61944941794056, 3.14750455224898, 20.48415080507334], "label": "P", "properties": {}}, {"species": [{"element": "P", "occu": 1}], "abc": [0.74937959, 0.83837625, 0.41216681000000005], "xyz": [4.6095777389712795, 9.783668909853752, 18.556832136243063], "label": "P", "properties": {}}, {"species": [{"element": "P", "occu": 1}], "abc": [0.25019941, 0.62249454, 0.43494308000000004], "xyz": [1.5390246091967201, 7.264376200484821, 19.582279622128084], "label": "P", "properties": {}}, {"species": [{"element": "P", "occu": 1}], "abc": [0.74753525, 0.66213664, 0.51591652], "xyz": [4.598232849518, 7.726990905149121, 23.22791652718152], "label": "P", "properties": {}}, {"species": [{"element": "O", "occu": 1}], "abc": [0.4581837, 0.69608003, 0.07742067000000004], "xyz": [2.8183759099704, 8.12310290073349, 3.485681870079422], "label": "O", "properties": {}}, {"species": [{"element": "O", "occu": 1}], "abc": [0.5394257, 0.04348917, 0.06808175000000004], "xyz": [3.3181110504344002, 0.5075091767501101, 3.065219167675502], "label": "O", "properties": {}}, {"species": [{"element": "O", "occu": 1}], "abc": [0.45962679, 0.2919173, 0.046258950000000035], "xyz": [2.82725263363368, 3.4066115449459002, 2.082699405002702], "label": "O", "properties": {}}, {"species": [{"element": "O", "occu": 1}], "abc": [0.04022839, 0.28996899, 0.04635451000000004], "xyz": [0.24745255074088002, 3.38387519002917, 2.087001767143262], "label": "O", "properties": {}}, {"species": [{"element": "O", "occu": 1}], "abc": [0.95980849, 0.04335544, 0.06801029000000004], "xyz": [5.90396630522008, 0.5059485766695201, 3.062001850821542], "label": "O", "properties": {}}, {"species": [{"element": "O", "occu": 1}], "abc": [0.04099416, 0.69641338, 0.07746554000000004], "xyz": [0.25216294903872, 8.12699302289654, 3.487702035308042], "label": "O", "properties": {}}, {"species": [{"element": "O", "occu": 1}], "abc": [0.74929592, 0.89124493, 0.03996071000000004], "xyz": [4.60906306873664, 10.400634932950192, 1.7991361010244618], "label": "O", "properties": {}}, {"species": [{"element": "O", "occu": 1}], "abc": [0.25010808, 0.87161537, 0.09652052000000004], "xyz": [1.53846282083136, 10.17156222736471, 4.345607273285522], "label": "O", "properties": {}}, {"species": [{"element": "O", "occu": 1}], "abc": [0.24653745, 0.47429266, 0.039870150000000035], "xyz": [1.5164991901404, 5.53489242069278, 1.7950588520139017], "label": "O", "properties": {}}, {"species": [{"element": "O", "occu": 1}], "abc": [0.74985733, 0.27433975, 0.09402865000000003], "xyz": [4.61251640943736, 3.20148535077425, 4.233416742234902], "label": "O", "properties": {}}, {"species": [{"element": "O", "occu": 1}], "abc": [0.74907962, 0.10573713, 0.02221174000000004], "xyz": [4.60773256590704, 1.23392936214279, 1.0000308628292418], "label": "O", "properties": {}}, {"species": [{"element": "O", "occu": 1}], "abc": [0.24899814, 0.2980983, 9.999999999998899e-05], "xyz": [1.5316353667828801, 3.4787424736689, 0.004502262599999504], "label": "O", "properties": {}}, {"species": [{"element": "O", "occu": 1}], "abc": [0.4560544, 0.52165821, 0.17721318000000003], "xyz": [2.8052781768448, 6.08763811086843, 7.978602725410681], "label": "O", "properties": {}}, {"species": [{"element": "O", "occu": 1}], "abc": [0.54353557, 0.85348312, 0.16842035000000002], "xyz": [3.3433916498994396, 9.959962804562961, 7.582726428839101], "label": "O", "properties": {}}, {"species": [{"element": "O", "occu": 1}], "abc": [0.5419255, 0.45777182, 0.10658736000000003], "xyz": [3.3334878001959996, 5.3420978029150605, 4.7988428456073615], "label": "O", "properties": {}}, {"species": [{"element": "O", "occu": 1}], "abc": [0.45790191, 0.09310863, 0.13868421000000003], "xyz": [2.81664256557672, 1.08655750752729, 6.243927318935461], "label": "O", "properties": {}}, {"species": [{"element": "O", "occu": 1}], "abc": [0.04221529, 0.09311344, 0.13866255000000005], "xyz": [0.25967435412568, 1.0866136391835202, 6.242952128856302], "label": "O", "properties": {}}, {"species": [{"element": "O", "occu": 1}], "abc": [0.95720974, 0.4579798, 0.10659795000000004], "xyz": [5.88798089501008, 5.3445248843834, 4.799319635216702], "label": "O", "properties": {}}, {"species": [{"element": "O", "occu": 1}], "abc": [0.95630202, 0.85346669, 0.16843664000000003], "xyz": [5.88239733500784, 9.959771070028271, 7.583459847416641], "label": "O", "properties": {}}, {"species": [{"element": "O", "occu": 1}], "abc": [0.04378977, 0.52168909, 0.17724413000000003], "xyz": [0.26935928290584, 6.08799847376747, 7.979996175685382], "label": "O", "properties": {}}, {"species": [{"element": "O", "occu": 1}], "abc": [0.74989935, 0.68255527, 0.14779436000000004], "xyz": [4.6127748825251995, 7.965271886406411, 6.6540901951893625], "label": "O", "properties": {}}, {"species": [{"element": "O", "occu": 1}], "abc": [0.25003163, 0.69210769, 0.19875325000000005], "xyz": [1.53799256220296, 8.07674655493127, 8.948393241034502], "label": "O", "properties": {}}, {"species": [{"element": "O", "occu": 1}], "abc": [0.25000417, 0.26509842, 0.16015609000000003], "xyz": [1.5378236504706402, 3.09364103504286, 7.210647741692342], "label": "O", "properties": {}}, {"species": [{"element": "O", "occu": 1}], "abc": [0.75018583, 0.11063944, 0.18954193000000003], "xyz": [4.61453707600936, 1.29113825604152, 8.533675425708182], "label": "O", "properties": {}}, {"species": [{"element": "O", "occu": 1}], "abc": [0.24983723, 0.68475554, 0.12578719000000002], "xyz": [1.53679677047816, 7.990948559847821, 5.663269610960941], "label": "O", "properties": {}}, {"species": [{"element": "O", "occu": 1}], "abc": [0.74998401, 0.87287309, 0.11948505000000004], "xyz": [4.61329564243992, 10.18623954683947, 5.379530718741302], "label": "O", "properties": {}}, {"species": [{"element": "O", "occu": 1}], "abc": [0.74989403, 0.34411714, 0.14633005000000004], "xyz": [4.61274215818376, 4.01577235038062, 6.588163113711302], "label": "O", "properties": {}}, {"species": [{"element": "O", "occu": 1}], "abc": [0.25012991, 0.22825305, 0.10540341000000004], "xyz": [1.53859710135272, 2.6636635625881504, 4.745538307554662], "label": "O", "properties": {}}, {"species": [{"element": "O", "occu": 1}], "abc": [0.45721366, 0.33653221, 0.27905473000000003], "xyz": [2.81240900768272, 3.9272578632104302, 12.563776742320982], "label": "O", "properties": {}}, {"species": [{"element": "O", "occu": 1}], "abc": [0.54364865, 0.67091591, 0.26937770000000005], "xyz": [3.3440872266908, 7.82944308094753, 12.128091439840203], "label": "O", "properties": {}}, {"species": [{"element": "O", "occu": 1}], "abc": [0.543208, 0.28000969, 0.21121726000000005], "xyz": [3.341376703936, 3.26765232019727, 9.509555701724762], "label": "O", "properties": {}}, {"species": [{"element": "O", "occu": 1}], "abc": [0.45781691, 0.91139435, 0.23770960000000005], "xyz": [2.81611971425672, 10.635774291926051, 10.702310417409603], "label": "O", "properties": {}}, {"species": [{"element": "O", "occu": 1}], "abc": [0.04318794, 0.91129476, 0.23771653000000004], "xyz": [0.26565731102448, 10.63461209823708, 10.702622424207782], "label": "O", "properties": {}}, {"species": [{"element": "O", "occu": 1}], "abc": [0.95700292, 0.28009158, 0.21119778000000003], "xyz": [5.88670870548064, 3.26860795872714, 9.508678660970283], "label": "O", "properties": {}}, {"species": [{"element": "O", "occu": 1}], "abc": [0.95745004, 0.67107436, 0.26922934000000004], "xyz": [5.88945902644768, 7.831292158063881, 12.121411883046843], "label": "O", "properties": {}}, {"species": [{"element": "O", "occu": 1}], "abc": [0.0432596, 0.33666347, 0.27904315], "xyz": [0.2660981054432, 3.9287896389270105, 12.563255380311901], "label": "O", "properties": {}}, {"species": [{"element": "O", "occu": 1}], "abc": [0.75021781, 0.49940283, 0.24903405000000003], "xyz": [4.61473379112952, 5.8279226556858905, 11.212166894415303], "label": "O", "properties": {}}, {"species": [{"element": "O", "occu": 1}], "abc": [0.25066159, 0.50813925, 0.29924489000000004], "xyz": [1.54186756711528, 5.929874781282751, 13.472790764881143], "label": "O", "properties": {}}, {"species": [{"element": "O", "occu": 1}], "abc": [0.25036259, 0.08184801, 0.25898582000000003], "xyz": [1.54002836070728, 0.95514851568183, 11.660221713163322], "label": "O", "properties": {}}, {"species": [{"element": "O", "occu": 1}], "abc": [0.75052472, 0.92631465, 0.28965084], "xyz": [4.6166216534662405, 10.80989095522095, 13.040841439905842], "label": "O", "properties": {}}, {"species": [{"element": "O", "occu": 1}], "abc": [0.2501416, 0.50097096, 0.22607730000000004], "xyz": [1.5386690087872001, 5.84622239250168, 10.178593724989803], "label": "O", "properties": {}}, {"species": [{"element": "O", "occu": 1}], "abc": [0.74988271, 0.68906263, 0.22057379000000005], "xyz": [4.61267252669032, 8.041211365509291, 9.930811252572543], "label": "O", "properties": {}}, {"species": [{"element": "O", "occu": 1}], "abc": [0.75031018, 0.14588631, 0.24548932000000004], "xyz": [4.61530197673456, 1.70246158037073, 11.052573841354322], "label": "O", "properties": {}}, {"species": [{"element": "O", "occu": 1}], "abc": [0.25023476, 0.0444795, 0.20322324000000003], "xyz": [1.53924205383392, 0.5190661129485, 9.149643929028242], "label": "O", "properties": {}}, {"species": [{"element": "O", "occu": 1}], "abc": [0.45694118, 0.15276425, 0.38004683000000006], "xyz": [2.81073293088656, 1.78272564765775, 17.110706289575585], "label": "O", "properties": {}}, {"species": [{"element": "O", "occu": 1}], "abc": [0.54442776, 0.48612595, 0.37117500000000003], "xyz": [3.3488796818899202, 5.67298434716885, 16.711273205550004], "label": "O", "properties": {}}, {"species": [{"element": "O", "occu": 1}], "abc": [0.54367084, 0.09707566, 0.31088612000000004], "xyz": [3.34422372164128, 1.13285188678178, 13.996909509351124], "label": "O", "properties": {}}, {"species": [{"element": "O", "occu": 1}], "abc": [0.45726292, 0.72724728, 0.33703671], "xyz": [2.81271201540064, 8.486817944940242, 15.174277742600461], "label": "O", "properties": {}}, {"species": [{"element": "O", "occu": 1}], "abc": [0.04329548, 0.72714995, 0.33689082000000004], "xyz": [0.26631881021216, 8.485682124960851, 15.167709391693322], "label": "O", "properties": {}}, {"species": [{"element": "O", "occu": 1}], "abc": [0.95814658, 0.09678048, 0.31093645000000003], "xyz": [5.8937435777233596, 1.1294072002358402, 13.999175498117703], "label": "O", "properties": {}}, {"species": [{"element": "O", "occu": 1}], "abc": [0.95705709, 0.4860165, 0.37123342000000004], "xyz": [5.88704191555128, 5.671707089419501, 16.713903427360922], "label": "O", "properties": {}}, {"species": [{"element": "O", "occu": 1}], "abc": [0.04389835, 0.15263469, 0.38017116000000006], "xyz": [0.27002717933320003, 1.78121371057227, 17.116303952666165], "label": "O", "properties": {}}, {"species": [{"element": "O", "occu": 1}], "abc": [0.75076769, 0.3152312, 0.35000407000000006], "xyz": [4.61811620858648, 3.6786796988296, 15.758102342087824], "label": "O", "properties": {}}, {"species": [{"element": "O", "occu": 1}], "abc": [0.25076381, 0.32399362, 0.40048051], "xyz": [1.5424963419615199, 3.78093523878446, 18.03068422201926], "label": "O", "properties": {}}, {"species": [{"element": "O", "occu": 1}], "abc": [0.24975491, 0.895639, 0.35907394000000004], "xyz": [1.53629040435272, 10.451912776337, 16.16645170696644], "label": "O", "properties": {}}, {"species": [{"element": "O", "occu": 1}], "abc": [0.75040674, 0.74280243, 0.38794363000000004], "xyz": [4.61589593583408, 8.66834316997269, 17.466240962572382], "label": "O", "properties": {}}, {"species": [{"element": "O", "occu": 1}], "abc": [0.25024241, 0.31883727, 0.32779858000000006], "xyz": [1.5392891104527202, 3.72076175321241, 14.758352870671084], "label": "O", "properties": {}}, {"species": [{"element": "O", "occu": 1}], "abc": [0.75108359, 0.50587032, 0.32237371000000004], "xyz": [4.6200593701392805, 5.9033968605405605, 14.514110977562462], "label": "O", "properties": {}}, {"species": [{"element": "O", "occu": 1}], "abc": [0.75026324, 0.96342278, 0.34537913000000003], "xyz": [4.61501323978208, 11.242934779856741, 15.549875398195383], "label": "O", "properties": {}}, {"species": [{"element": "O", "occu": 1}], "abc": [0.25072522, 0.86244193, 0.30302799], "xyz": [1.5422589674622402, 10.06451017320119, 13.643115861301743], "label": "O", "properties": {}}, {"species": [{"element": "O", "occu": 1}], "abc": [0.46247058, 0.96160667, 0.48030609], "xyz": [2.8447453319313603, 11.22174117025261, 21.624641455592343], "label": "O", "properties": {}}, {"species": [{"element": "O", "occu": 1}], "abc": [0.54289082, 0.31206668, 0.47111069000000005], "xyz": [3.33942566885744, 3.64175043713044, 21.210640400471945], "label": "O", "properties": {}}, {"species": [{"element": "O", "occu": 1}], "abc": [0.54220217, 0.9139524, 0.40980895000000006], "xyz": [3.3351896504866403, 10.6656261803292, 18.450675087302702], "label": "O", "properties": {}}, {"species": [{"element": "O", "occu": 1}], "abc": [0.45788049, 0.54897622, 0.44170642000000004], "xyz": [2.8165108070440796, 6.4064333595602605, 19.886782949458922], "label": "O", "properties": {}}, {"species": [{"element": "O", "occu": 1}], "abc": [0.04279452, 0.54859947, 0.44168995000000005], "xyz": [0.26323730906784004, 6.40203676881501, 19.886041426808703], "label": "O", "properties": {}}, {"species": [{"element": "O", "occu": 1}], "abc": [0.95743592, 0.91363738, 0.41012024], "xyz": [5.88937217161664, 10.66194996528854, 18.464690180550242], "label": "O", "properties": {}}, {"species": [{"element": "O", "occu": 1}], "abc": [0.96000103, 0.31108232, 0.47105177000000004], "xyz": [5.90515065572776, 3.6302631695365606, 21.20798766734802], "label": "O", "properties": {}}, {"species": [{"element": "O", "occu": 1}], "abc": [0.0413815, 0.96480374, 0.48015822], "xyz": [0.25454555174800003, 11.25905028338842, 21.617983959885724], "label": "O", "properties": {}}, {"species": [{"element": "O", "occu": 1}], "abc": [0.74977016, 0.13608137, 0.45206477000000006], "xyz": [4.61198021003072, 1.58804005824271, 20.353143067486023], "label": "O", "properties": {}}, {"species": [{"element": "O", "occu": 1}], "abc": [0.25583765, 0.11604664, 0.5080223300000001], "xyz": [1.5737065059788002, 1.3542391066791202, 22.872499363238585], "label": "O", "properties": {}}, {"species": [{"element": "O", "occu": 1}], "abc": [0.24899575, 0.73208968, 0.45438433000000006], "xyz": [1.5316206654339999, 8.54332770213944, 20.457575749850584], "label": "O", "properties": {}}, {"species": [{"element": "O", "occu": 1}], "abc": [0.75607762, 0.5325494, 0.5087513000000001], "xyz": [4.65077860752304, 6.2147359347802, 22.905319506913806], "label": "O", "properties": {}}, {"species": [{"element": "O", "occu": 1}], "abc": [0.25090824, 0.13413647, 0.42904562], "xyz": [1.5433847586220801, 1.56534349728601, 19.31676048619812], "label": "O", "properties": {}}, {"species": [{"element": "O", "occu": 1}], "abc": [0.75099684, 0.32237367, 0.42272108], "xyz": [4.61952575423328, 3.7620307738136103, 19.03201308715608], "label": "O", "properties": {}}, {"species": [{"element": "O", "occu": 1}], "abc": [0.74848758, 0.77724011, 0.44286177000000004], "xyz": [4.60409081419536, 9.070223422596131, 19.938799840408024], "label": "O", "properties": {}}, {"species": [{"element": "O", "occu": 1}], "abc": [0.25018808, 0.66341921, 0.40203142000000003], "xyz": [1.5389549161913598, 7.741958218731431, 18.100510262908923], "label": "O", "properties": {}}, {"species": [{"element": "O", "occu": 1}], "abc": [0.53192599, 0.71094649, 0.5024931900000001], "xyz": [3.2719788942800796, 8.29659126291167, 22.62356296091695], "label": "O", "properties": {}}, {"species": [{"element": "O", "occu": 1}], "abc": [0.95167365, 0.71970503, 0.50157364], "xyz": [5.8539273424908, 8.39880152410849, 22.582162405178643], "label": "O", "properties": {}}, {"species": [{"element": "O", "occu": 1}], "abc": [0.24895285, 0.90209354, 0.52611589], "xyz": [1.5313567792972, 10.52723585750182, 23.687118948127143], "label": "O", "properties": {}}, {"species": [{"element": "O", "occu": 1}], "abc": [0.7487421, 0.70971271, 0.5482217899999999], "xyz": [4.6056564155832, 8.28219331804193, 24.68238461622054], "label": "O", "properties": {}}]}, "formula": "(Li3PO4)20.0", "bandgap": 4.1457, "slab_thickness": 24.67788235362054}