{"miller": "101_0.19", "final_energy": -997.03280421, "gamma": 0.06724967604261764, "work_function": "Not calculated", "ionization_potentail": "Not calculated", "electron_affinity": "Not calculated", "is_stochiometric": true, "incar_parameters": {"SYSTEM": "unknown system", "LCOMPAT": false, "PREC": "normal", "ENMAX": 520.0, "ENAUG": 628.945, "EDIFF": 1e-05, "IALGO": 38, "IWAVPR": 11, "NBANDS": 461, "NBANDSLOW": -1, "NBANDSHIGH": -1, "NELECT": 760.0, "TURBO": 0, "IRESTART": 0, "NREBOOT": 0, "NMIN": 0, "EREF": 0.0, "ISMEAR": 0, "SIGMA": 0.05, "KSPACING": 0.5, "KGAMMA": true, "KBLOWUP": true, "LREAL": true, "ROPT": [-0.0005, -0.0005, -0.0005], "LMAXPAW": -100, "LMAXMIX": 2, "NLSPLINE": false, "ISTART": 0, "ICHARG": 2, "INIWAV": 1, "ISPIN": 1, "LNONCOLLINEAR": false, "MAGMOM": [0.6, 0.6, 0.6, 0.6, 0.6, 0.6, 0.6, 0.6, 0.6, 0.6, 0.6, 0.6, 0.6, 0.6, 0.6, 0.6, 0.6, 0.6, 0.6, 0.6, 0.6, 0.6, 0.6, 0.6, 0.6, 0.6, 0.6, 0.6, 0.6, 0.6, 0.6, 0.6, 0.6, 0.6, 0.6, 0.6, 0.6, 0.6, 0.6, 0.6, 0.6, 0.6, 0.6, 0.6, 0.6, 0.6, 0.6, 0.6, 0.6, 0.6, 0.6, 0.6, 0.6, 0.6, 0.6, 0.6, 0.6, 0.6, 0.6, 0.6, 0.6, 0.6, 0.6, 0.6, 0.6, 0.6, 0.6, 0.6, 0.6, 0.6, 0.6, 0.6, 0.6, 0.6, 0.6, 0.6, 0.6, 0.6, 0.6, 0.6, 0.6, 0.6, 0.6, 0.6, 0.6, 0.6, 0.6, 0.6, 0.6, 0.6, 0.6, 0.6, 0.6, 0.6, 0.6, 0.6, 0.6, 0.6, 0.6, 0.6, 0.6, 0.6, 0.6, 0.6, 0.6, 0.6, 0.6, 0.6, 0.6, 0.6, 0.6, 0.6, 0.6, 0.6, 0.6, 0.6, 0.6, 0.6, 0.6, 0.6, 0.6, 0.6, 0.6, 0.6, 0.6, 0.6, 0.6, 0.6, 0.6, 0.6, 0.6, 0.6, 0.6, 0.6, 0.6, 0.6, 0.6, 0.6, 0.6, 0.6, 0.6, 0.6, 0.6, 0.6, 0.6, 0.6, 0.6, 0.6, 0.6, 0.6, 0.6, 0.6, 0.6, 0.6, 0.6, 0.6, 0.6, 0.6, 0.6, 0.6], "NUPDOWN": -1.0, "LSORBIT": false, "SAXIS": [0.0, 0.0, 1.0], "LSPIRAL": false, "QSPIRAL": [0.0, 0.0, 0.0], "LZEROZ": false, "LASPH": false, "LMETAGGA": false, "NELM": 100, "NELMDL": -5, "NELMIN": 6, "ENINI": 520.0, "LDIAG": true, "LSUBROT": false, "WEIMIN": 0.001, "EBREAK": 1e-08, "DEPER": 0.3, "NRMM": 4, "TIME": 0.4, "AMIX": 0.4, "BMIX": 1.0, "AMIN": 0.1, "AMIX_MAG": 1.6, "BMIX_MAG": 1.0, "IMIX": 4, "MIXFIRST": false, "MAXMIX": -45, "WC": 100.0, "INIMIX": 1, "MIXPRE": 1, "MREMOVE": 5, "LDIPOL": false, "LMONO": false, "IDIPOL": 0, "EPSILON": 1.0, "DIPOL": [-100.0, -100.0, -100.0], "EFIELD": 0.0, "NGX": 36, "NGY": 70, "NGZ": 252, "NGXF": 72, "NGYF": 140, "NGZF": 504, "ADDGRID": false, "NSW": 150, "IBRION": 2, "MDALGO": 0, "ISIF": 2, "PSTRESS": 0.0, "EDIFFG": -0.01, "NFREE": 1, "POTIM": 0.5, "SMASS": -3.0, "SCALEE": 1.0, "TEBEG": 0.0001, "TEEND": 0.0001, "NBLOCK": 1, "KBLOCK": 150, "NPACO": 256, "APACO": 10.0, "ISYM": 0, "SYMPREC": 1e-05, "LORBIT": 11, "RWIGS": [-1.0, -1.0, -1.0], "NEDOS": 301, "EMIN": 10.0, "EMAX": -10.0, "EFERMI": 0.0, "NWRITE": 2, "LWAVE": false, "LDOWNSAMPLE": false, "LCHARG": false, "LPARD": false, "LVTOT": false, "LVHAR": false, "LELF": false, "LOPTICS": false, "STM": [0.0, 0.0, 0.0, 0.0, 0.0, 0.0, 0.0], "NPAR": 1, "NSIM": 4, "NBLK": -1, "LPLANE": true, "LSCALAPACK": true, "LSCAAWARE": false, "LSCALU": false, "LASYNC": false, "LORBITALREAL": false, "IDIOT": 3, "PHON_NSTRUCT": -1, "LMUSIC": false, "POMASS": [7.01, 30.974, 16.0], "DARWINR": [0.0, 0.0, 0.0], "DARWINV": [1.0, 1.0, 1.0], "LCORR": true, "GGA_COMPAT": true, "LBERRY": false, "ICORELEVEL": 0, "LDAU": false, "I_CONSTRAINED_M": 0, "GGA": "--", "VOSKOWN": 0, "LHFCALC": false, "PRECFOCK": "", "LSYMGRAD": false, "LHFONE": false, "LRHFCALC": false, "LTHOMAS": false, "LMODELHF": false, "LFOCKACE": false, "ENCUT4O": -1.0, "EXXOEP": 0, "FOURORBIT": 0, "AEXX": 0.0, "HFALPHA": 0.0, "MCALPHA": 0.0, "ALDAX": 1.0, "AGGAX": 1.0, "ALDAC": 1.0, "AGGAC": 1.0, "NKREDX": 1, "NKREDY": 1, "NKREDZ": 1, "SHIFTRED": false, "ODDONLY": false, "EVENONLY": false, "LMAXFOCK": 0, "NMAXFOCKAE": 0, "LFOCKAEDFT": false, "HFSCREEN": 0.0, "HFSCREENC": 0.0, "NBANDSGWLOW": 0, "LUSE_VDW": false, "Zab_VDW": -0.8491, "PARAM1": 0.1234, "PARAM2": 1.0, "PARAM3": 0.0, "MODEL_GW": 0, "MODEL_EPS0": 12.11948466, "MODEL_ALPHA": 1.0, "LEPSILON": false, "LRPA": false, "LNABLA": false, "LVEL": false, "CSHIFT": 0.1, "OMEGAMAX": -1.0, "DEG_THRESHOLD": 0.002, "RTIME": -0.1, "WPLASMAI": 0.0, "DFIELD": [0.0, 0.0, 0.0], "WPLASMA": [0.0, 0.0, 0.0, 0.0, 0.0, 0.0, 0.0, 0.0, 0.0], "NUCIND": false, "MAGPOS": [0.0, 0.0, 0.0], "LNICSALL": true, "ORBITALMAG": false, "LMAGBLOCH": false, "LCHIMAG": false, "LGAUGE": true, "MAGATOM": 0, "MAGDIPOL": [0.0, 0.0, 0.0], "AVECCONST": [0.0, 0.0, 0.0], "LFINITE_TEMPERATURE": false, "LADDER": false, "LRPAFORCE": false, "LFXC": false, "LHARTREE": true, "IBSE": 0, "KPOINT": [-1, 0, 0, 0], "LTCTC": false, "LTCTE": false, "LTETE": false, "LTRIPLET": false, "LFXCEPS": false, "LFXHEG": false, "NATURALO": 2, "LHOLEGF": false, "L2ORDER": false, "LDMP1": false, "LMP2LT": false, "LSMP2LT": false, "LGWLF": false, "ENCUTGW": -2.0, "ENCUTGWSOFT": -2.0, "ENCUTLF": -1.0, "LESF_SPLINES": false, "LMAXMP2": -1, "SCISSOR": 0.0, "NOMEGA": 0, "NOMEGAR": 0, "NBANDSGW": -1, "NBANDSO": -1, "NBANDSV": -1, "NELMGW": 1, "NELMHF": 1, "DIM": 3, "IESPILON": 4, "ANTIRES": 0, "OMEGAMIN": -30.0, "OMEGATL": -200.0, "OMEGAGRID": 0, "LSELFENERGY": false, "LSPECTRAL": false, "LSPECTRALGW": false, "LSINGLES": false, "LFERMIGW": false, "ODDONLYGW": false, "EVENONLYGW": false, "NKREDLFX": 1, "NKREDLFY": 1, "NKREDLFZ": 1, "MAXMEM": 2800, "TELESCOPE": 0, "NTAUPAR": -1, "NOMEGAPAR": -1, "DAMP_NEWTON": 0.80000001, "LAMBDA": 1.0, "OFIELD_KAPPA": 0.0, "OFIELD_K": [0.0, 0.0, 0.0], "OFIELD_Q6_NEAR": 0.0, "OFIELD_Q6_FAR": 0.0, "OFIELD_A": 0.0, "KPOINTS_OPT_MODE": 1, "LKPOINTS_OPT": false, "@module": "pymatgen.io.vasp.inputs", "@class": "Incar"}, "relaxed_structures": {"@module": "pymatgen.core.structure", "@class": "Structure", "charge": 0, "lattice": {"matrix": [[6.151192, 0.0, 0.0], [0.0, 11.669783, 0.0], [0.0, 0.0, 45.022626]], "a": 6.151192, "b": 11.669783, "c": 45.022626, "alpha": 90.0, "beta": 90.0, "gamma": 90.0, "volume": 3231.86257628388}, "sites": [{"species": [{"element": "Li", "occu": 1}], "abc": [0.50838845, 0.17997669, 0.01127481], "xyz": [3.1271949665324, 2.10028891735827, 0.50762155385106], "label": "Li", "properties": {}}, {"species": [{"element": "Li", "occu": 1}], "abc": [0.46575135, 0.52701919, 0.06683570999999999], "xyz": [2.8649259781092002, 6.15019958413577, 3.00911917477446], "label": "Li", "properties": {}}, {"species": [{"element": "Li", "occu": 1}], "abc": [0.49189074, 0.18340091, 0.08083772], "xyz": [3.0257143847620798, 2.14024882170253, 3.6395264342527205], "label": "Li", "properties": {}}, {"species": [{"element": "Li", "occu": 1}], "abc": [0.0134375, 0.17989645, 0.08155388], "xyz": [0.0826566425, 2.0993525339703503, 3.67176983808888], "label": "Li", "properties": {}}, {"species": [{"element": "Li", "occu": 1}], "abc": [0.03706879, 0.52792569, 0.06721395], "xyz": [0.22801724449768, 6.160778242425271, 3.0261485328327], "label": "Li", "properties": {}}, {"species": [{"element": "Li", "occu": 1}], "abc": [0.00393916, 0.17795082, 0.011632], "xyz": [0.02423052947872, 2.0766474540720603, 0.523703185632], "label": "Li", "properties": {}}, {"species": [{"element": "Li", "occu": 1}], "abc": [0.75189945, 0.76523797, 0.0726941], "xyz": [4.6250778816444, 8.93016105326051, 3.2728792767066], "label": "Li", "properties": {}}, {"species": [{"element": "Li", "occu": 1}], "abc": [0.25246896, 0.95517493, 0.06209097], "xyz": [1.5529850470003201, 11.14668416014019, 2.7954985202872202], "label": "Li", "properties": {}}, {"species": [{"element": "Li", "occu": 1}], "abc": [0.75941942, 0.28809231, 0.052535910000000005], "xyz": [4.67133466094864, 3.3619747416687304, 2.3653046274996603], "label": "Li", "properties": {}}, {"species": [{"element": "Li", "occu": 1}], "abc": [0.50196092, 0.58102688, 0.13478378000000002], "xyz": [3.0876579954166403, 6.78045760676704, 6.068319717806281], "label": "Li", "properties": {}}, {"species": [{"element": "Li", "occu": 1}], "abc": [0.50880774, 0.95026771, 0.10831787], "xyz": [3.1297740998260797, 11.08941796760693, 4.87675495012662], "label": "Li", "properties": {}}, {"species": [{"element": "Li", "occu": 1}], "abc": [0.5035358, 0.34333986, 0.17265202000000002], "xyz": [3.0973453846736, 4.00670166145038, 7.7732473246045215], "label": "Li", "properties": {}}, {"species": [{"element": "Li", "occu": 1}], "abc": [0.50188814, 0.99994658, 0.17721535000000002], "xyz": [3.08721031166288, 11.669159600192142, 7.9787004245091016], "label": "Li", "properties": {}}, {"species": [{"element": "Li", "occu": 1}], "abc": [0.00016099, 0.99993117, 0.17711867], "xyz": [0.00099028040008, 11.66897976883611, 7.974347637027421], "label": "Li", "properties": {}}, {"species": [{"element": "Li", "occu": 1}], "abc": [0.99706019, 0.34340436, 0.1726853], "xyz": [6.13310866424648, 4.00745436245388, 7.774745677597801], "label": "Li", "properties": {}}, {"species": [{"element": "Li", "occu": 1}], "abc": [0.99748692, 0.94862879, 0.10845207999999999], "xyz": [6.135733562408641, 11.070292126852571, 4.88279743676208], "label": "Li", "properties": {}}, {"species": [{"element": "Li", "occu": 1}], "abc": [0.99880946, 0.58128839, 0.13480733], "xyz": [6.14386875987632, 6.78350937171937, 6.0693800006485805], "label": "Li", "properties": {}}, {"species": [{"element": "Li", "occu": 1}], "abc": [0.75044334, 0.57438735, 0.18495122], "xyz": [4.61612106946128, 6.70297573244505, 8.326989606303721], "label": "Li", "properties": {}}, {"species": [{"element": "Li", "occu": 1}], "abc": [0.25165304, 0.76964417, 0.15968162], "xyz": [1.54796616642368, 8.98158045111511, 7.18928585633412], "label": "Li", "properties": {}}, {"species": [{"element": "Li", "occu": 1}], "abc": [0.25023205, 0.37397388, 0.11172213], "xyz": [1.5392253841035999, 4.36419402726804, 5.03002367491338], "label": "Li", "properties": {}}, {"species": [{"element": "Li", "occu": 1}], "abc": [0.751629, 0.15222107, 0.14592667], "xyz": [4.623414291768, 1.7763868549278103, 6.570001886835421], "label": "Li", "properties": {}}, {"species": [{"element": "Li", "occu": 1}], "abc": [0.49641705, 0.39146302, 0.23828101000000002], "xyz": [3.0535565866236003, 4.56828849592466, 10.728036796132262], "label": "Li", "properties": {}}, {"species": [{"element": "Li", "occu": 1}], "abc": [0.50307808, 0.76964434, 0.20881097], "xyz": [3.09452986107136, 8.981582434978222, 9.40121820700722], "label": "Li", "properties": {}}, {"species": [{"element": "Li", "occu": 1}], "abc": [0.5033079, 0.15660765, 0.27083165000000003], "xyz": [3.0959435280168, 1.82757729163995, 12.193552086912902], "label": "Li", "properties": {}}, {"species": [{"element": "Li", "occu": 1}], "abc": [0.4972361, 0.81767307, 0.27705328], "xyz": [3.0585947204312003, 9.54206729184381, 12.473666207513281], "label": "Li", "properties": {}}, {"species": [{"element": "Li", "occu": 1}], "abc": [0.00256988, 0.81770247, 0.27703893], "xyz": [0.01580782529696, 9.54241038346401, 12.47302013283018], "label": "Li", "properties": {}}, {"species": [{"element": "Li", "occu": 1}], "abc": [0.99815829, 0.15612454, 0.27080378], "xyz": [6.13986328818168, 1.8219395027748202, 12.19229730632628], "label": "Li", "properties": {}}, {"species": [{"element": "Li", "occu": 1}], "abc": [0.99734844, 0.76947558, 0.20879572000000002], "xyz": [6.13488174534048, 8.97961304239914, 9.400531611960721], "label": "Li", "properties": {}}, {"species": [{"element": "Li", "occu": 1}], "abc": [0.00366686, 0.39181889, 0.23842449000000002], "xyz": [0.02255555989712, 4.57244142160087, 10.734496642510742], "label": "Li", "properties": {}}, {"species": [{"element": "Li", "occu": 1}], "abc": [0.74987579, 0.3876053, 0.28760167000000003], "xyz": [4.61262996044168, 4.5232697406499005, 12.948582425385423], "label": "Li", "properties": {}}, {"species": [{"element": "Li", "occu": 1}], "abc": [0.25040617, 0.58634179, 0.26045052], "xyz": [1.54029642965464, 6.84248145313157, 11.726166353465521], "label": "Li", "properties": {}}, {"species": [{"element": "Li", "occu": 1}], "abc": [0.25039568, 0.19537873, 0.20274127], "xyz": [1.54023190365056, 2.2800273819155903, 9.127944373975021], "label": "Li", "properties": {}}, {"species": [{"element": "Li", "occu": 1}], "abc": [0.7503643, 0.96204868, 0.24600729], "xyz": [4.6156348792456, 11.22689933103644, 11.07589421094354], "label": "Li", "properties": {}}, {"species": [{"element": "Li", "occu": 1}], "abc": [0.49455501, 0.20655382, 0.33894986], "xyz": [3.04210282107192, 2.41043825722106, 15.260412779532361], "label": "Li", "properties": {}}, {"species": [{"element": "Li", "occu": 1}], "abc": [0.50266463, 0.58316209, 0.30960066], "xyz": [3.0919866507389595, 6.80537504412647, 13.939034724533162], "label": "Li", "properties": {}}, {"species": [{"element": "Li", "occu": 1}], "abc": [0.49853812, 0.97586906, 0.37027578], "xyz": [3.06660369543904, 11.38818016661398, 16.670787959798282], "label": "Li", "properties": {}}, {"species": [{"element": "Li", "occu": 1}], "abc": [0.49447794, 0.63207937, 0.37543831], "xyz": [3.04162874870448, 7.376229086676711, 16.90321861720206], "label": "Li", "properties": {}}, {"species": [{"element": "Li", "occu": 1}], "abc": [0.00089961, 0.63159888, 0.37543172], "xyz": [0.00553367383512, 7.37062187264304, 16.902921918096723], "label": "Li", "properties": {}}, {"species": [{"element": "Li", "occu": 1}], "abc": [0.00039696, 0.97581024, 0.37036248], "xyz": [0.0024417771763200003, 11.38749374997792, 16.67469142147248], "label": "Li", "properties": {}}, {"species": [{"element": "Li", "occu": 1}], "abc": [0.99699111, 0.58319261, 0.30958029000000004], "xyz": [6.132683739903119, 6.805731205903631, 13.938117613641543], "label": "Li", "properties": {}}, {"species": [{"element": "Li", "occu": 1}], "abc": [0.0015203, 0.20626819, 0.33897904], "xyz": [0.0093516571976, 2.40710501710277, 15.26172653975904], "label": "Li", "properties": {}}, {"species": [{"element": "Li", "occu": 1}], "abc": [0.74880995, 0.20496688, 0.38848344], "xyz": [4.6060737739604, 2.39191901178704, 17.49054462631344], "label": "Li", "properties": {}}, {"species": [{"element": "Li", "occu": 1}], "abc": [0.24837733, 0.40011993, 0.36311311], "xyz": [1.52781664527736, 4.669312757075191, 16.348305747226863], "label": "Li", "properties": {}}, {"species": [{"element": "Li", "occu": 1}], "abc": [0.25030332, 0.01145762, 0.30158733], "xyz": [1.53966377955744, 0.13370793909646, 13.57825356492858], "label": "Li", "properties": {}}, {"species": [{"element": "Li", "occu": 1}], "abc": [0.74966451, 0.78072143, 0.34500453000000003], "xyz": [4.61133033659592, 9.11084967154969, 15.533009922495783], "label": "Li", "properties": {}}, {"species": [{"element": "Li", "occu": 1}], "abc": [0.49300478, 0.02587475, 0.43943729000000004], "xyz": [3.0325670586977598, 0.30195271767925, 19.78462075812354], "label": "Li", "properties": {}}, {"species": [{"element": "Li", "occu": 1}], "abc": [0.49702452, 0.39653605, 0.41298206], "xyz": [3.0572932512278403, 4.62748965517715, 18.593536832089562], "label": "Li", "properties": {}}, {"species": [{"element": "Li", "occu": 1}], "abc": [0.50979934, 0.79247246, 0.46727302], "xyz": [3.13587362181328, 9.247981641676182, 21.03785841935052], "label": "Li", "properties": {}}, {"species": [{"element": "Li", "occu": 1}], "abc": [0.53692071, 0.45063037, 0.48135479000000003], "xyz": [3.30270237598632, 5.2587586311097105, 21.67185668347854], "label": "Li", "properties": {}}, {"species": [{"element": "Li", "occu": 1}], "abc": [0.9657633, 0.44791373, 0.4812264], "xyz": [5.9405954848536, 5.227056031820591, 21.6660762285264], "label": "Li", "properties": {}}, {"species": [{"element": "Li", "occu": 1}], "abc": [0.98617065, 0.79673861, 0.46613922], "xyz": [6.0661250129148, 9.29776668642163, 20.98681176599172], "label": "Li", "properties": {}}, {"species": [{"element": "Li", "occu": 1}], "abc": [0.00114623, 0.39644674, 0.41289399], "xyz": [0.00705068080616, 4.62644742685742, 18.589571689417742], "label": "Li", "properties": {}}, {"species": [{"element": "Li", "occu": 1}], "abc": [0.00260547, 0.02811973, 0.43917976000000003], "xyz": [0.016026746220239998, 0.32815114711859, 19.773026081249764], "label": "Li", "properties": {}}, {"species": [{"element": "Li", "occu": 1}], "abc": [0.74883821, 0.02284601, 0.48569973], "xyz": [4.60624760664632, 0.26660797911583, 21.86747729209098], "label": "Li", "properties": {}}, {"species": [{"element": "Li", "occu": 1}], "abc": [0.25004214, 0.21087933, 0.47592386000000003], "xyz": [1.5380572112308801, 2.4609160202853904, 21.427341953256363], "label": "Li", "properties": {}}, {"species": [{"element": "Li", "occu": 1}], "abc": [0.24847158, 0.82449854, 0.40192508], "xyz": [1.52839639512336, 9.621719045616821, 18.095722556860082], "label": "Li", "properties": {}}, {"species": [{"element": "Li", "occu": 1}], "abc": [0.74936946, 0.60318568, 0.43650188], "xyz": [4.60951542739632, 7.03904599430744, 19.652460891536883], "label": "Li", "properties": {}}, {"species": [{"element": "Li", "occu": 1}], "abc": [0.4906208, 0.79327214, 0.5369615], "xyz": [3.0179027399936, 9.25731373374562, 24.175416790899], "label": "Li", "properties": {}}, {"species": [{"element": "Li", "occu": 1}], "abc": [0.99310286, 0.79941226, 0.536323], "xyz": [6.10876636760912, 9.32896760173958, 24.146669844198], "label": "Li", "properties": {}}, {"species": [{"element": "Li", "occu": 1}], "abc": [0.23904809, 0.69212643, 0.49573090000000003], "xyz": [1.47043069882328, 8.07696524666469, 22.319106907343404], "label": "Li", "properties": {}}, {"species": [{"element": "P", "occu": 1}], "abc": [0.75149873, 0.00216789, 0.04878549], "xyz": [4.62261297598616, 0.025298805867870002, 2.19645087049674], "label": "P", "properties": {}}, {"species": [{"element": "P", "occu": 1}], "abc": [0.25512489, 0.33102668, 0.03246687], "xyz": [1.5693221823688799, 3.8630095228104406, 1.4617437454006201], "label": "P", "properties": {}}, {"species": [{"element": "P", "occu": 1}], "abc": [0.25223333, 0.72395438, 0.09331650999999999], "xyz": [1.5515356416293598, 8.44839051649954, 4.20135432935526], "label": "P", "properties": {}}, {"species": [{"element": "P", "occu": 1}], "abc": [0.75100103, 0.8008048, 0.15032203000000002], "xyz": [4.61955152772776, 9.3452182413584, 6.767892536250781], "label": "P", "properties": {}}, {"species": [{"element": "P", "occu": 1}], "abc": [0.75102903, 0.37043573, 0.11348095999999999], "xyz": [4.61972376110376, 4.32290458454659, 5.10921082020096], "label": "P", "properties": {}}, {"species": [{"element": "P", "occu": 1}], "abc": [0.2520591, 0.15393479, 0.13595838000000002], "xyz": [1.5504639194471999, 1.7963855954505699, 6.121203294305881], "label": "P", "properties": {}}, {"species": [{"element": "P", "occu": 1}], "abc": [0.2503115, 0.54435088, 0.19445293], "xyz": [1.539714096308, 6.35245664545904, 8.75478154199418], "label": "P", "properties": {}}, {"species": [{"element": "P", "occu": 1}], "abc": [0.75000092, 0.61622428, 0.25170813000000003], "xyz": [4.61339965909664, 7.19120362693124, 11.332560998149383], "label": "P", "properties": {}}, {"species": [{"element": "P", "occu": 1}], "abc": [0.75052787, 0.18740766, 0.21397959], "xyz": [4.61664102972104, 2.1870067247377802, 9.63392305220334], "label": "P", "properties": {}}, {"species": [{"element": "P", "occu": 1}], "abc": [0.25048356, 0.97122555, 0.23406915], "xyz": [1.54077247040352, 11.333991412555651, 10.538407798587901], "label": "P", "properties": {}}, {"species": [{"element": "P", "occu": 1}], "abc": [0.24950691, 0.35840242, 0.29615923], "xyz": [1.53476490873672, 4.18247846807486, 13.33386624873798], "label": "P", "properties": {}}, {"species": [{"element": "P", "occu": 1}], "abc": [0.74864565, 0.43098916, 0.35328178], "xyz": [4.6050631331148, 5.02954997255228, 15.90567345355428], "label": "P", "properties": {}}, {"species": [{"element": "P", "occu": 1}], "abc": [0.74988109, 0.00384485, 0.31363185], "xyz": [4.61266256175928, 0.04486856516755, 14.1205294842381], "label": "P", "properties": {}}, {"species": [{"element": "P", "occu": 1}], "abc": [0.24922177, 0.78762669, 0.33386922], "xyz": [1.53301095784984, 9.19143255730827, 15.031669024971722], "label": "P", "properties": {}}, {"species": [{"element": "P", "occu": 1}], "abc": [0.2490936, 0.17514159, 0.39758622], "xyz": [1.5322225595712, 2.0438643495749704, 17.90037568581372], "label": "P", "properties": {}}, {"species": [{"element": "P", "occu": 1}], "abc": [0.74851979, 0.25339371, 0.45455496], "xyz": [4.60428894408968, 2.95704960926493, 20.465257960524962], "label": "P", "properties": {}}, {"species": [{"element": "P", "occu": 1}], "abc": [0.7471415, 0.82270073, 0.41181433], "xyz": [4.595810817668, 9.60073899304159, 18.540962561030582], "label": "P", "properties": {}}, {"species": [{"element": "P", "occu": 1}], "abc": [0.24836645, 0.60669424, 0.43459886000000003], "xyz": [1.5277497203083998, 7.079990128149921, 19.56678193380636], "label": "P", "properties": {}}, {"species": [{"element": "P", "occu": 1}], "abc": [0.250056, 0.97325219, 0.49907043], "xyz": [1.538142466752, 11.35764186157477, 22.469461317549182], "label": "P", "properties": {}}, {"species": [{"element": "P", "occu": 1}], "abc": [0.74539607, 0.64497763, 0.51552155], "xyz": [4.58507434261544, 7.52674898195429, 23.2101339405903], "label": "P", "properties": {}}, {"species": [{"element": "O", "occu": 1}], "abc": [0.4606598, 0.68149847, 0.07729646999999999], "xyz": [2.8336068764816003, 7.95293925973201, 3.48009005993022], "label": "O", "properties": {}}, {"species": [{"element": "O", "occu": 1}], "abc": [0.54109055, 0.03086404, 0.06783045], "xyz": [3.3283518624356, 0.36017664930332, 3.0539049817617], "label": "O", "properties": {}}, {"species": [{"element": "O", "occu": 1}], "abc": [0.46930866, 0.28026163, 0.04584076], "xyz": [2.88680767492272, 3.27059240532629, 2.06387139303576], "label": "O", "properties": {}}, {"species": [{"element": "O", "occu": 1}], "abc": [0.04907654, 0.27438173, 0.04660961], "xyz": [0.30187922023568003, 3.2019752482645902, 2.0984870390358603], "label": "O", "properties": {}}, {"species": [{"element": "O", "occu": 1}], "abc": [0.96168349, 0.02850809, 0.06808204999999999], "xyz": [5.91549979022008, 0.33268322404447004, 3.0652326744633], "label": "O", "properties": {}}, {"species": [{"element": "O", "occu": 1}], "abc": [0.04333294, 0.68264832, 0.07720260999999999], "xyz": [0.26654923386448, 7.96635775971456, 3.4758642362538597], "label": "O", "properties": {}}, {"species": [{"element": "O", "occu": 1}], "abc": [0.74914723, 0.87678764, 0.040168510000000004], "xyz": [4.60814844799816, 10.231921495882121, 1.8084918027072603], "label": "O", "properties": {}}, {"species": [{"element": "O", "occu": 1}], "abc": [0.24932075, 0.4603939, 0.03995375], "xyz": [1.533619802834, 5.372696907523701, 1.7988227435475002], "label": "O", "properties": {}}, {"species": [{"element": "O", "occu": 1}], "abc": [0.75313555, 0.26113892, 0.09393815], "xyz": [4.6326813700756, 3.0474345292543603, 4.2293421945819], "label": "O", "properties": {}}, {"species": [{"element": "O", "occu": 1}], "abc": [0.75417658, 0.09054102, 0.02199837], "xyz": [4.63908494548336, 1.05659405599866, 0.99042438511962], "label": "O", "properties": {}}, {"species": [{"element": "O", "occu": 1}], "abc": [0.25356633, 0.28411824, 0.00010000000000000026], "xyz": [1.55973518056536, 3.3155982071419206, 0.004502262600000012], "label": "O", "properties": {}}, {"species": [{"element": "O", "occu": 1}], "abc": [0.45657279, 0.5059412, 0.17692837], "xyz": [2.80846689326568, 5.9042240147596, 7.965779831299621], "label": "O", "properties": {}}, {"species": [{"element": "O", "occu": 1}], "abc": [0.54461618, 0.83897697, 0.16813042], "xyz": [3.35003868948656, 9.790679181897511, 7.569673018882921], "label": "O", "properties": {}}, {"species": [{"element": "O", "occu": 1}], "abc": [0.54302521, 0.44370318, 0.10673416], "xyz": [3.34025232755032, 5.17791982700994, 4.80545216710416], "label": "O", "properties": {}}, {"species": [{"element": "O", "occu": 1}], "abc": [0.45947249, 0.07860953, 0.13845319], "xyz": [2.82630350470808, 0.91735615683199, 6.2335261918769405], "label": "O", "properties": {}}, {"species": [{"element": "O", "occu": 1}], "abc": [0.04420104, 0.07867402, 0.13823449000000002], "xyz": [0.27188908363968, 0.9181087411376601, 6.223679743570741], "label": "O", "properties": {}}, {"species": [{"element": "O", "occu": 1}], "abc": [0.9582435, 0.44455522, 0.10677418999999999], "xyz": [5.894339751252, 5.18786294891726, 4.80725442282294], "label": "O", "properties": {}}, {"species": [{"element": "O", "occu": 1}], "abc": [0.9576733, 0.83873993, 0.16809955000000001], "xyz": [5.890832341573599, 9.78791297653519, 7.568283170418301], "label": "O", "properties": {}}, {"species": [{"element": "O", "occu": 1}], "abc": [0.04413522, 0.50605114, 0.17689777], "xyz": [0.27148421218224, 5.905506990702619, 7.9644021389440205], "label": "O", "properties": {}}, {"species": [{"element": "O", "occu": 1}], "abc": [0.75051596, 0.66794336, 0.14759463], "xyz": [4.61656776902432, 7.794754067490881, 6.645097826098381], "label": "O", "properties": {}}, {"species": [{"element": "O", "occu": 1}], "abc": [0.25332887, 0.8575341, 0.09618955], "xyz": [1.55827451851304, 10.0072368621003, 4.3307061347583], "label": "O", "properties": {}}, {"species": [{"element": "O", "occu": 1}], "abc": [0.25070879, 0.25032713, 0.15999714], "xyz": [1.54215790337768, 2.92126328611279, 7.203491395289641], "label": "O", "properties": {}}, {"species": [{"element": "O", "occu": 1}], "abc": [0.75107888, 0.09521316, 0.18910365], "xyz": [4.62003039802496, 1.1111169159442802, 8.513942909184902], "label": "O", "properties": {}}, {"species": [{"element": "O", "occu": 1}], "abc": [0.25106521, 0.67074294, 0.12553618], "xyz": [1.5443503112303198, 7.82742455858202, 5.65196848160868], "label": "O", "properties": {}}, {"species": [{"element": "O", "occu": 1}], "abc": [0.75149557, 0.85826754, 0.11922498999999999], "xyz": [4.62259353821944, 10.015795947743822, 5.36782213462374], "label": "O", "properties": {}}, {"species": [{"element": "O", "occu": 1}], "abc": [0.75073176, 0.32904934, 0.146345], "xyz": [4.61789519625792, 3.8399343940932207, 6.58883620197], "label": "O", "properties": {}}, {"species": [{"element": "O", "occu": 1}], "abc": [0.25329343, 0.21464994, 0.10522028], "xyz": [1.55805652026856, 2.5049182207630203, 4.737293314055281], "label": "O", "properties": {}}, {"species": [{"element": "O", "occu": 1}], "abc": [0.4567893, 0.31959245, 0.27887283], "xyz": [2.8097986878456003, 3.72957453993835, 12.55558712665158], "label": "O", "properties": {}}, {"species": [{"element": "O", "occu": 1}], "abc": [0.54297612, 0.6549567, 0.26908059], "xyz": [3.3399503655350395, 7.6432025633961, 12.11471476742934], "label": "O", "properties": {}}, {"species": [{"element": "O", "occu": 1}], "abc": [0.54346023, 0.26389502, 0.21106197000000002], "xyz": [3.34292821909416, 3.07959761818066, 9.502564138133222], "label": "O", "properties": {}}, {"species": [{"element": "O", "occu": 1}], "abc": [0.45758063, 0.89496491, 0.23720619], "xyz": [2.81466631061096, 10.44404629231453, 10.679645577254941], "label": "O", "properties": {}}, {"species": [{"element": "O", "occu": 1}], "abc": [0.04320791, 0.89507125, 0.23718639], "xyz": [0.26578015032872, 10.44528725703875, 10.67875412926014], "label": "O", "properties": {}}, {"species": [{"element": "O", "occu": 1}], "abc": [0.95721175, 0.26418164, 0.21110631000000002], "xyz": [5.8879932589060004, 3.08294241138412, 9.504560441370062], "label": "O", "properties": {}}, {"species": [{"element": "O", "occu": 1}], "abc": [0.95708378, 0.65491866, 0.26906952], "xyz": [5.88720609086576, 7.6427586448507805, 12.114216366959521], "label": "O", "properties": {}}, {"species": [{"element": "O", "occu": 1}], "abc": [0.0426689, 0.31957766, 0.27878527000000003], "xyz": [0.26246459632880004, 3.72940194384778, 12.551644945519023], "label": "O", "properties": {}}, {"species": [{"element": "O", "occu": 1}], "abc": [0.74984244, 0.48336877, 0.24885434], "xyz": [4.61242481818848, 5.640808654876911, 11.204075878296841], "label": "O", "properties": {}}, {"species": [{"element": "O", "occu": 1}], "abc": [0.25043951, 0.67658438, 0.19831905], "xyz": [1.5405015103959199, 7.89559289578954, 8.928844416825301], "label": "O", "properties": {}}, {"species": [{"element": "O", "occu": 1}], "abc": [0.25056801, 0.06508955, 0.2586212], "xyz": [1.54129193856792, 0.75958092406765, 11.6438055632712], "label": "O", "properties": {}}, {"species": [{"element": "O", "occu": 1}], "abc": [0.74984597, 0.90960717, 0.2891676], "xyz": [4.61244653189624, 10.61491828914411, 13.019084706117601], "label": "O", "properties": {}}, {"species": [{"element": "O", "occu": 1}], "abc": [0.250127, 0.48521943, 0.22569021], "xyz": [1.5385792013839998, 5.6624054554836905, 10.161165916691461], "label": "O", "properties": {}}, {"species": [{"element": "O", "occu": 1}], "abc": [0.75006314, 0.67308669, 0.22033593], "xyz": [4.61378238626288, 7.85477561248827, 9.92010217075218], "label": "O", "properties": {}}, {"species": [{"element": "O", "occu": 1}], "abc": [0.75039827, 0.12872707, 0.24508792000000001], "xyz": [4.615843835237841, 1.5022169731258102, 11.034501759277921], "label": "O", "properties": {}}, {"species": [{"element": "O", "occu": 1}], "abc": [0.25074248, 0.02876285, 0.20278864000000002], "xyz": [1.54236513703616, 0.33565621796155004, 9.130077095768641], "label": "O", "properties": {}}, {"species": [{"element": "O", "occu": 1}], "abc": [0.45523331, 0.13696285, 0.37972729], "xyz": [2.80022749460552, 1.59832673856155, 17.09631975966354], "label": "O", "properties": {}}, {"species": [{"element": "O", "occu": 1}], "abc": [0.54219293, 0.46970091, 0.37073701000000003], "xyz": [3.33513281347256, 5.48130769460253, 16.691553745588262], "label": "O", "properties": {}}, {"species": [{"element": "O", "occu": 1}], "abc": [0.54254784, 0.07996117, 0.31055978], "xyz": [3.33731593302528, 0.93312950232611, 13.982216825582281], "label": "O", "properties": {}}, {"species": [{"element": "O", "occu": 1}], "abc": [0.45601544, 0.71107447, 0.33684169], "xyz": [2.80503852640448, 8.29808476174001, 15.165497430077941], "label": "O", "properties": {}}, {"species": [{"element": "O", "occu": 1}], "abc": [0.0422863, 0.71113444, 0.3368468], "xyz": [0.26011115026959997, 8.29878459862652, 15.165727495696801], "label": "O", "properties": {}}, {"species": [{"element": "O", "occu": 1}], "abc": [0.95734994, 0.07985069, 0.31053139], "xyz": [5.88884329212848, 0.9318402247002701, 13.980938633230142], "label": "O", "properties": {}}, {"species": [{"element": "O", "occu": 1}], "abc": [0.95475571, 0.46928071, 0.3708978], "xyz": [5.87288568530632, 5.47640405178593, 16.6987929336228], "label": "O", "properties": {}}, {"species": [{"element": "O", "occu": 1}], "abc": [0.04233894, 0.13704032, 0.37981742], "xyz": [0.26043494901648, 1.5992307966505601, 17.10037764894492], "label": "O", "properties": {}}, {"species": [{"element": "O", "occu": 1}], "abc": [0.74842166, 0.29874552, 0.34948226], "xyz": [4.60368532761872, 3.48629539062216, 15.73460908561476], "label": "O", "properties": {}}, {"species": [{"element": "O", "occu": 1}], "abc": [0.24963042, 0.49129119, 0.29894388], "xyz": [1.53552464246064, 5.7332615771117705, 13.45923850422888], "label": "O", "properties": {}}, {"species": [{"element": "O", "occu": 1}], "abc": [0.2491416, 0.88037547, 0.35859991], "xyz": [1.5325178167872, 10.273790693423011, 16.145109631563663], "label": "O", "properties": {}}, {"species": [{"element": "O", "occu": 1}], "abc": [0.74787732, 0.72584928, 0.38790209000000003], "xyz": [4.60033698776544, 8.470503588306242, 17.464370722688344], "label": "O", "properties": {}}, {"species": [{"element": "O", "occu": 1}], "abc": [0.24871974, 0.30212569, 0.32757781], "xyz": [1.52992287493008, 3.5257412410252704, 14.748413225529061], "label": "O", "properties": {}}, {"species": [{"element": "O", "occu": 1}], "abc": [0.74973456, 0.4897937, 0.32202298], "xyz": [4.611761227595521, 5.715786193767101, 14.498320191945481], "label": "O", "properties": {}}, {"species": [{"element": "O", "occu": 1}], "abc": [0.74979851, 0.946627, 0.34495553], "xyz": [4.612154596323919, 11.046931671941001, 15.530803813821782], "label": "O", "properties": {}}, {"species": [{"element": "O", "occu": 1}], "abc": [0.24958924, 0.84570136, 0.30267892], "xyz": [1.53527133637408, 9.86915135400488, 13.62739981324392], "label": "O", "properties": {}}, {"species": [{"element": "O", "occu": 1}], "abc": [0.4606631, 0.94527475, 0.4800276], "xyz": [2.8336271754152, 11.031151207879251, 21.6121031044776], "label": "O", "properties": {}}, {"species": [{"element": "O", "occu": 1}], "abc": [0.54063721, 0.29580344, 0.47075568], "xyz": [3.32556328105432, 3.4519619554535197, 21.19465691801568], "label": "O", "properties": {}}, {"species": [{"element": "O", "occu": 1}], "abc": [0.53990689, 0.8980981, 0.40927487], "xyz": [3.3210709425128804, 10.4806099397123, 18.426629403208622], "label": "O", "properties": {}}, {"species": [{"element": "O", "occu": 1}], "abc": [0.45667262, 0.53344962, 0.44119741], "xyz": [2.8090809667630396, 6.2252413068324595, 19.86386598259866], "label": "O", "properties": {}}, {"species": [{"element": "O", "occu": 1}], "abc": [0.04128338, 0.53254425, 0.44132011], "xyz": [0.25394199678896, 6.214675835397751, 19.86939025880886], "label": "O", "properties": {}}, {"species": [{"element": "O", "occu": 1}], "abc": [0.9551334, 0.89780008, 0.40948237], "xyz": [5.8752089290128, 10.477132110982641, 18.43597159810362], "label": "O", "properties": {}}, {"species": [{"element": "O", "occu": 1}], "abc": [0.95781151, 0.29388023, 0.47073595], "xyz": [5.89168249781992, 3.4295185120900906, 21.1937686216047], "label": "O", "properties": {}}, {"species": [{"element": "O", "occu": 1}], "abc": [0.03981283, 0.94833883, 0.47969249], "xyz": [0.24489636139336, 11.06690835657389, 21.597015572278742], "label": "O", "properties": {}}, {"species": [{"element": "O", "occu": 1}], "abc": [0.74692813, 0.11973006, 0.45156112], "xyz": [4.59449833783096, 1.39722381877698, 20.33046742190112], "label": "O", "properties": {}}, {"species": [{"element": "O", "occu": 1}], "abc": [0.24927887, 0.30805856, 0.40029387], "xyz": [1.5333621909130402, 3.59497654649248, 18.022281199102622], "label": "O", "properties": {}}, {"species": [{"element": "O", "occu": 1}], "abc": [0.24699482, 0.71608857, 0.45410825], "xyz": [1.51931256082544, 8.356598220680311, 20.4451459032645], "label": "O", "properties": {}}, {"species": [{"element": "O", "occu": 1}], "abc": [0.75456579, 0.51552306, 0.50831834], "xyz": [4.64147905092168, 6.016042241695981, 22.88582651076084], "label": "O", "properties": {}}, {"species": [{"element": "O", "occu": 1}], "abc": [0.24915071, 0.1178334, 0.42869038000000004], "xyz": [1.53257385414632, 1.3750902081522, 19.300766648537884], "label": "O", "properties": {}}, {"species": [{"element": "O", "occu": 1}], "abc": [0.74927668, 0.30657689, 0.42234932000000003], "xyz": [4.60894471980256, 3.57768577911487, 19.015275475714322], "label": "O", "properties": {}}, {"species": [{"element": "O", "occu": 1}], "abc": [0.74622901, 0.7624279, 0.44261781], "xyz": [4.590197916479919, 8.897368146145702, 19.927816120569062], "label": "O", "properties": {}}, {"species": [{"element": "O", "occu": 1}], "abc": [0.24774368, 0.64766752, 0.40168554], "xyz": [1.52391894246656, 7.558139414548161, 18.08493783702804], "label": "O", "properties": {}}, {"species": [{"element": "O", "occu": 1}], "abc": [0.52949242, 0.69365532, 0.5021755299999999], "xyz": [3.25700953796464, 8.09480706119556, 22.609261073541777], "label": "O", "properties": {}}, {"species": [{"element": "O", "occu": 1}], "abc": [0.94866192, 0.70323353, 0.50118414], "xyz": [5.83540161300864, 8.206582693423991, 22.56462609235164], "label": "O", "properties": {}}, {"species": [{"element": "O", "occu": 1}], "abc": [0.25304437, 0.09813065, 0.50820179], "xyz": [1.55652450438904, 1.14516339114895, 22.880579123700542], "label": "O", "properties": {}}, {"species": [{"element": "O", "occu": 1}], "abc": [0.24659722, 0.88331368, 0.52555351], "xyz": [1.51686684688624, 10.30807896653144, 23.66179912371726], "label": "O", "properties": {}}, {"species": [{"element": "O", "occu": 1}], "abc": [0.74683826, 0.69216688, 0.54788116], "xyz": [4.59394553020592, 8.07743728938704, 24.66704855912616], "label": "O", "properties": {}}]}, "formula": "(Li3PO4)20.0", "bandgap": 4.1393, "slab_thickness": 24.662546296526163}