{"miller": "101_0.38", "final_energy": -897.60924111, "gamma": 0.05857635697973886, "work_function": "Not calculated", "ionization_potentail": "Not calculated", "electron_affinity": "Not calculated", "is_stochiometric": true, "incar_parameters": {"SYSTEM": "unknown system", "LCOMPAT": false, "PREC": "normal", "ENMAX": 520.0, "ENAUG": 628.945, "EDIFF": 1e-05, "IALGO": 38, "IWAVPR": 11, "NBANDS": 416, "NBANDSLOW": -1, "NBANDSHIGH": -1, "NELECT": 684.0, "TURBO": 0, "IRESTART": 0, "NREBOOT": 0, "NMIN": 0, "EREF": 0.0, "ISMEAR": 0, "SIGMA": 0.05, "KSPACING": 0.5, "KGAMMA": true, "KBLOWUP": true, "LREAL": true, "ROPT": [-0.0005, -0.0005, -0.0005], "LMAXPAW": -100, "LMAXMIX": 2, "NLSPLINE": false, "ISTART": 0, "ICHARG": 2, "INIWAV": 1, "ISPIN": 1, "LNONCOLLINEAR": false, "MAGMOM": [0.6, 0.6, 0.6, 0.6, 0.6, 0.6, 0.6, 0.6, 0.6, 0.6, 0.6, 0.6, 0.6, 0.6, 0.6, 0.6, 0.6, 0.6, 0.6, 0.6, 0.6, 0.6, 0.6, 0.6, 0.6, 0.6, 0.6, 0.6, 0.6, 0.6, 0.6, 0.6, 0.6, 0.6, 0.6, 0.6, 0.6, 0.6, 0.6, 0.6, 0.6, 0.6, 0.6, 0.6, 0.6, 0.6, 0.6, 0.6, 0.6, 0.6, 0.6, 0.6, 0.6, 0.6, 0.6, 0.6, 0.6, 0.6, 0.6, 0.6, 0.6, 0.6, 0.6, 0.6, 0.6, 0.6, 0.6, 0.6, 0.6, 0.6, 0.6, 0.6, 0.6, 0.6, 0.6, 0.6, 0.6, 0.6, 0.6, 0.6, 0.6, 0.6, 0.6, 0.6, 0.6, 0.6, 0.6, 0.6, 0.6, 0.6, 0.6, 0.6, 0.6, 0.6, 0.6, 0.6, 0.6, 0.6, 0.6, 0.6, 0.6, 0.6, 0.6, 0.6, 0.6, 0.6, 0.6, 0.6, 0.6, 0.6, 0.6, 0.6, 0.6, 0.6, 0.6, 0.6, 0.6, 0.6, 0.6, 0.6, 0.6, 0.6, 0.6, 0.6, 0.6, 0.6, 0.6, 0.6, 0.6, 0.6, 0.6, 0.6, 0.6, 0.6, 0.6, 0.6, 0.6, 0.6, 0.6, 0.6, 0.6, 0.6, 0.6, 0.6], "NUPDOWN": -1.0, "LSORBIT": false, "SAXIS": [0.0, 0.0, 1.0], "LSPIRAL": false, "QSPIRAL": [0.0, 0.0, 0.0], "LZEROZ": false, "LASPH": false, "LMETAGGA": false, "NELM": 100, "NELMDL": -5, "NELMIN": 6, "ENINI": 520.0, "LDIAG": true, "LSUBROT": false, "WEIMIN": 0.001, "EBREAK": 1e-08, "DEPER": 0.3, "NRMM": 4, "TIME": 0.4, "AMIX": 0.4, "BMIX": 1.0, "AMIN": 0.1, "AMIX_MAG": 1.6, "BMIX_MAG": 1.0, "IMIX": 4, "MIXFIRST": false, "MAXMIX": -45, "WC": 100.0, "INIMIX": 1, "MIXPRE": 1, "MREMOVE": 5, "LDIPOL": false, "LMONO": false, "IDIPOL": 0, "EPSILON": 1.0, "DIPOL": [-100.0, -100.0, -100.0], "EFIELD": 0.0, "NGX": 36, "NGY": 70, "NGZ": 252, "NGXF": 72, "NGYF": 140, "NGZF": 504, "ADDGRID": false, "NSW": 150, "IBRION": 2, "MDALGO": 0, "ISIF": 2, "PSTRESS": 0.0, "EDIFFG": -0.01, "NFREE": 1, "POTIM": 0.5, "SMASS": -3.0, "SCALEE": 1.0, "TEBEG": 0.0001, "TEEND": 0.0001, "NBLOCK": 1, "KBLOCK": 150, "NPACO": 256, "APACO": 10.0, "ISYM": 0, "SYMPREC": 1e-05, "LORBIT": 11, "RWIGS": [-1.0, -1.0, -1.0], "NEDOS": 301, "EMIN": 10.0, "EMAX": -10.0, "EFERMI": 0.0, "NWRITE": 2, "LWAVE": false, "LDOWNSAMPLE": false, "LCHARG": false, "LPARD": false, "LVTOT": false, "LVHAR": false, "LELF": false, "LOPTICS": false, "STM": [0.0, 0.0, 0.0, 0.0, 0.0, 0.0, 0.0], "NPAR": 2, "NSIM": 4, "NBLK": -1, "LPLANE": true, "LSCALAPACK": true, "LSCAAWARE": false, "LSCALU": false, "LASYNC": false, "LORBITALREAL": false, "IDIOT": 3, "PHON_NSTRUCT": -1, "LMUSIC": false, "POMASS": [7.01, 30.974, 16.0], "DARWINR": [0.0, 0.0, 0.0], "DARWINV": [1.0, 1.0, 1.0], "LCORR": true, "GGA_COMPAT": true, "LBERRY": false, "ICORELEVEL": 0, "LDAU": false, "I_CONSTRAINED_M": 0, "GGA": "--", "VOSKOWN": 0, "LHFCALC": false, "PRECFOCK": "", "LSYMGRAD": false, "LHFONE": false, "LRHFCALC": false, "LTHOMAS": false, "LMODELHF": false, "LFOCKACE": false, "ENCUT4O": -1.0, "EXXOEP": 0, "FOURORBIT": 0, "AEXX": 0.0, "HFALPHA": 0.0, "MCALPHA": 0.0, "ALDAX": 1.0, "AGGAX": 1.0, "ALDAC": 1.0, "AGGAC": 1.0, "NKREDX": 1, "NKREDY": 1, "NKREDZ": 1, "SHIFTRED": false, "ODDONLY": false, "EVENONLY": false, "LMAXFOCK": 0, "NMAXFOCKAE": 0, "LFOCKAEDFT": false, "HFSCREEN": 0.0, "HFSCREENC": 0.0, "NBANDSGWLOW": 0, "LUSE_VDW": false, "Zab_VDW": -0.8491, "PARAM1": 0.1234, "PARAM2": 1.0, "PARAM3": 0.0, "MODEL_GW": 0, "MODEL_EPS0": 13.46609407, "MODEL_ALPHA": 1.0, "LEPSILON": false, "LRPA": false, "LNABLA": false, "LVEL": false, "CSHIFT": 0.1, "OMEGAMAX": -1.0, "DEG_THRESHOLD": 0.002, "RTIME": -0.1, "WPLASMAI": 0.0, "DFIELD": [0.0, 0.0, 0.0], "WPLASMA": [0.0, 0.0, 0.0, 0.0, 0.0, 0.0, 0.0, 0.0, 0.0], "NUCIND": false, "MAGPOS": [0.0, 0.0, 0.0], "LNICSALL": true, "ORBITALMAG": false, "LMAGBLOCH": false, "LCHIMAG": false, "LGAUGE": true, "MAGATOM": 0, "MAGDIPOL": [0.0, 0.0, 0.0], "AVECCONST": [0.0, 0.0, 0.0], "LFINITE_TEMPERATURE": false, "LADDER": false, "LRPAFORCE": false, "LFXC": false, "LHARTREE": true, "IBSE": 0, "KPOINT": [-1, 0, 0, 0], "LTCTC": false, "LTCTE": false, "LTETE": false, "LTRIPLET": false, "LFXCEPS": false, "LFXHEG": false, "NATURALO": 2, "LHOLEGF": false, "L2ORDER": false, "LDMP1": false, "LMP2LT": false, "LSMP2LT": false, "LGWLF": false, "ENCUTGW": -2.0, "ENCUTGWSOFT": -2.0, "ENCUTLF": -1.0, "LESF_SPLINES": false, "LMAXMP2": -1, "SCISSOR": 0.0, "NOMEGA": 0, "NOMEGAR": 0, "NBANDSGW": -1, "NBANDSO": -1, "NBANDSV": -1, "NELMGW": 1, "NELMHF": 1, "DIM": 3, "IESPILON": 4, "ANTIRES": 0, "OMEGAMIN": -30.0, "OMEGATL": -200.0, "OMEGAGRID": 0, "LSELFENERGY": false, "LSPECTRAL": false, "LSPECTRALGW": false, "LSINGLES": false, "LFERMIGW": false, "ODDONLYGW": false, "EVENONLYGW": false, "NKREDLFX": 1, "NKREDLFY": 1, "NKREDLFZ": 1, "MAXMEM": 2800, "TELESCOPE": 0, "NTAUPAR": -1, "NOMEGAPAR": -1, "DAMP_NEWTON": 0.80000001, "LAMBDA": 1.0, "OFIELD_KAPPA": 0.0, "OFIELD_K": [0.0, 0.0, 0.0], "OFIELD_Q6_NEAR": 0.0, "OFIELD_Q6_FAR": 0.0, "OFIELD_A": 0.0, "KPOINTS_OPT_MODE": 1, "LKPOINTS_OPT": false, "@module": "pymatgen.io.vasp.inputs", "@class": "Incar"}, "relaxed_structures": {"@module": "pymatgen.core.structure", "@class": "Structure", "charge": 0, "lattice": {"matrix": [[6.151192, 0.0, 0.0], [0.0, 11.669783, 0.0], [0.0, 0.0, 45.022626]], "a": 6.151192, "b": 11.669783, "c": 45.022626, "alpha": 90.0, "beta": 90.0, "gamma": 90.0, "volume": 3231.86257628388}, "sites": [{"species": [{"element": "Li", "occu": 1}], "abc": [0.50412249, 0.98834042, 0.08625984], "xyz": [3.1009542275080797, 11.53371823152886, 3.8836445151398404], "label": "Li", "properties": {}}, {"species": [{"element": "Li", "occu": 1}], "abc": [0.52676021, 0.20997057, 0.05272481], "xyz": [3.2402031896703196, 2.45031098828631, 2.37380940155106], "label": "Li", "properties": {}}, {"species": [{"element": "Li", "occu": 1}], "abc": [0.99328658, 0.22009796, 0.051365720000000004], "xyz": [6.10989646460336, 2.5684954319426803, 2.3126196007807205], "label": "Li", "properties": {}}, {"species": [{"element": "Li", "occu": 1}], "abc": [0.77296179, 0.62718522, 0.06236994], "xyz": [4.75463637895368, 7.31911541820726, 2.80805848226244], "label": "Li", "properties": {}}, {"species": [{"element": "Li", "occu": 1}], "abc": [0.00542211, 0.98137672, 0.08182523], "xyz": [0.03335243965512, 11.45245336365176, 3.68398672765398], "label": "Li", "properties": {}}, {"species": [{"element": "Li", "occu": 1}], "abc": [0.96903658, 0.7901377, 0.015335749999999999], "xyz": [5.96073005860336, 9.220735499119101, 0.6904557366795], "label": "Li", "properties": {}}, {"species": [{"element": "Li", "occu": 1}], "abc": [0.63511442, 0.85524968, 0.05156131], "xyz": [3.9067107393886396, 9.98057817641944, 2.32142557620006], "label": "Li", "properties": {}}, {"species": [{"element": "Li", "occu": 1}], "abc": [0.27075218, 0.00369963, 0.038116739999999996], "xyz": [1.66544864359856, 0.043173879280290005, 1.71611572935924], "label": "Li", "properties": {}}, {"species": [{"element": "Li", "occu": 1}], "abc": [0.24530494, 0.42111762, 0.07855698], "xyz": [1.50891778448848, 4.91435124287646, 3.5368415302294802], "label": "Li", "properties": {}}, {"species": [{"element": "Li", "occu": 1}], "abc": [0.4916676, 0.60699257, 0.11043937999999999], "xyz": [3.0243418077791997, 7.08347157451231, 4.97227090141188], "label": "Li", "properties": {}}, {"species": [{"element": "Li", "occu": 1}], "abc": [0.50421303, 0.80404519, 0.18225174], "xyz": [3.10151115643176, 9.38303288949377, 8.205451927869241], "label": "Li", "properties": {}}, {"species": [{"element": "Li", "occu": 1}], "abc": [0.50839679, 0.37680324, 0.14342632], "xyz": [3.12724626747368, 4.3972120444969205, 6.45742956391632], "label": "Li", "properties": {}}, {"species": [{"element": "Li", "occu": 1}], "abc": [0.50290209, 0.03640038, 0.15014985], "xyz": [3.09344731279128, 0.42478453571754005, 6.7601405405061], "label": "Li", "properties": {}}, {"species": [{"element": "Li", "occu": 1}], "abc": [0.00704343, 0.03483351, 0.14943768], "xyz": [0.04332549026856, 0.40649950282833003, 6.72807677694768], "label": "Li", "properties": {}}, {"species": [{"element": "Li", "occu": 1}], "abc": [0.99958285, 0.37601625, 0.14419074999999998], "xyz": [6.1486260302572004, 4.38802804197375, 6.491846209909499], "label": "Li", "properties": {}}, {"species": [{"element": "Li", "occu": 1}], "abc": [0.99975782, 0.80366304, 0.1825858], "xyz": [6.1497023043214405, 9.378573281920321, 8.2204921863108], "label": "Li", "properties": {}}, {"species": [{"element": "Li", "occu": 1}], "abc": [0.00999258, 0.60529819, 0.11175754], "xyz": [0.061466278155359995, 7.06369852759277, 5.03161792610004], "label": "Li", "properties": {}}, {"species": [{"element": "Li", "occu": 1}], "abc": [0.7509116, 0.60904965, 0.15884510999999998], "xyz": [4.6190014266272, 7.107477251725951, 7.15162397945886], "label": "Li", "properties": {}}, {"species": [{"element": "Li", "occu": 1}], "abc": [0.25119206, 0.80080576, 0.13329104], "xyz": [1.5451305899355199, 9.34522944435008, 6.00111264307104], "label": "Li", "properties": {}}, {"species": [{"element": "Li", "occu": 1}], "abc": [0.25395844, 0.23005745, 0.17398265999999998], "xyz": [1.56214712446048, 2.68472051903335, 7.83315623166516], "label": "Li", "properties": {}}, {"species": [{"element": "Li", "occu": 1}], "abc": [0.75783338, 0.18472494, 0.11887347999999999], "xyz": [4.66157862438896, 2.1556999644880204, 5.35199623135848], "label": "Li", "properties": {}}, {"species": [{"element": "Li", "occu": 1}], "abc": [0.5004636, 0.42517752, 0.21060921999999999], "xyz": [3.0784476926112, 4.96172939487816, 9.48218014421172], "label": "Li", "properties": {}}, {"species": [{"element": "Li", "occu": 1}], "abc": [0.50470969, 0.6199223, 0.28272335], "xyz": [3.10456620745048, 7.234358717860901, 12.7289476485171], "label": "Li", "properties": {}}, {"species": [{"element": "Li", "occu": 1}], "abc": [0.50653893, 0.19224395, 0.24378147], "xyz": [3.1158182139045603, 2.2434451795628503, 10.97568194954022], "label": "Li", "properties": {}}, {"species": [{"element": "Li", "occu": 1}], "abc": [0.49977534, 0.85349057, 0.25016741], "xyz": [3.07421407320528, 9.96004974444631, 11.263193737818659], "label": "Li", "properties": {}}, {"species": [{"element": "Li", "occu": 1}], "abc": [0.0022664, 0.85353756, 0.25027114], "xyz": [0.0139410615488, 9.960598107549481, 11.26786393481364], "label": "Li", "properties": {}}, {"species": [{"element": "Li", "occu": 1}], "abc": [0.00146799, 0.19186119, 0.24371911000000002], "xyz": [0.00902988834408, 2.23897845342177, 10.972874338582862], "label": "Li", "properties": {}}, {"species": [{"element": "Li", "occu": 1}], "abc": [0.00045992, 0.61948597, 0.28304051999999996], "xyz": [0.00282905622464, 7.229266841444511, 12.743227474805519], "label": "Li", "properties": {}}, {"species": [{"element": "Li", "occu": 1}], "abc": [0.00378067, 0.42534962, 0.2108368], "xyz": [0.02325562705864, 4.9637377645324605, 9.4924263934368], "label": "Li", "properties": {}}, {"species": [{"element": "Li", "occu": 1}], "abc": [0.75170496, 0.42424257, 0.25936359999999997], "xyz": [4.62388153631232, 4.95081873126231, 11.6772303608136], "label": "Li", "properties": {}}, {"species": [{"element": "Li", "occu": 1}], "abc": [0.25225574, 0.622198, 0.23417785], "xyz": [1.55167348984208, 7.260915643034001, 10.5433017580341], "label": "Li", "properties": {}}, {"species": [{"element": "Li", "occu": 1}], "abc": [0.2520199, 0.04648962, 0.27481798], "xyz": [1.5502227927208, 0.54252377715246, 12.373027131615482], "label": "Li", "properties": {}}, {"species": [{"element": "Li", "occu": 1}], "abc": [0.75220843, 0.99794855, 0.21901037999999998], "xyz": [4.62697847694856, 11.645843023664652, 9.860422428857879], "label": "Li", "properties": {}}, {"species": [{"element": "Li", "occu": 1}], "abc": [0.4985068, 0.2423977, 0.31177868999999997], "xyz": [3.0664110401056, 2.8287285586991002, 14.03709535463994], "label": "Li", "properties": {}}, {"species": [{"element": "Li", "occu": 1}], "abc": [0.50956976, 0.4407161, 0.38225733], "xyz": [3.13446143115392, 5.143061251606301, 17.21022880434858], "label": "Li", "properties": {}}, {"species": [{"element": "Li", "occu": 1}], "abc": [0.50611087, 0.0106345, 0.34421981], "xyz": [3.11318513465704, 0.1241023073135, 15.497679767421062], "label": "Li", "properties": {}}, {"species": [{"element": "Li", "occu": 1}], "abc": [0.49908525, 0.66853596, 0.34948457], "xyz": [3.069969197118, 7.8016695808966805, 15.73471308788082], "label": "Li", "properties": {}}, {"species": [{"element": "Li", "occu": 1}], "abc": [0.00559253, 0.66893991, 0.35017174], "xyz": [0.03440072579576, 7.80638358973953, 15.765651285789241], "label": "Li", "properties": {}}, {"species": [{"element": "Li", "occu": 1}], "abc": [0.00394111, 0.01017096, 0.34347616], "xyz": [0.024242524303120003, 0.11869289610168, 15.46419869159616], "label": "Li", "properties": {}}, {"species": [{"element": "Li", "occu": 1}], "abc": [0.99320043, 0.43909981, 0.38328250999999997], "xyz": [6.1093665394125605, 5.12419949804123, 17.25638510007126], "label": "Li", "properties": {}}, {"species": [{"element": "Li", "occu": 1}], "abc": [0.00352927, 0.24236925, 0.31174248], "xyz": [0.02170921738984, 2.8283965533727504, 14.035465085352481], "label": "Li", "properties": {}}, {"species": [{"element": "Li", "occu": 1}], "abc": [0.7514079, 0.24526479, 0.36110473], "xyz": [4.6220542632168, 2.8621868768405703, 16.25788320562098], "label": "Li", "properties": {}}, {"species": [{"element": "Li", "occu": 1}], "abc": [0.25042992, 0.43849058, 0.33460456], "xyz": [1.54044252046464, 5.11708991614414, 15.064775962774561], "label": "Li", "properties": {}}, {"species": [{"element": "Li", "occu": 1}], "abc": [0.25655784, 0.86074605, 0.3749403], "xyz": [1.57813653294528, 10.04471962160715, 16.8807968992278], "label": "Li", "properties": {}}, {"species": [{"element": "Li", "occu": 1}], "abc": [0.75224598, 0.81509422, 0.31980742], "xyz": [4.62720945420816, 9.511972671954261, 14.398569862684921], "label": "Li", "properties": {}}, {"species": [{"element": "Li", "occu": 1}], "abc": [0.5067633, 0.06526308, 0.4121786], "xyz": [3.1171983568536, 0.76160598151164, 18.5573629530036], "label": "Li", "properties": {}}, {"species": [{"element": "Li", "occu": 1}], "abc": [0.46969465, 0.25774358, 0.47878326], "xyz": [2.8891819735228, 3.0078116482431403, 21.55607965004076], "label": "Li", "properties": {}}, {"species": [{"element": "Li", "occu": 1}], "abc": [0.49392132, 0.82820467, 0.44159360999999997], "xyz": [3.03820487221344, 9.66496877848661, 19.881703947019858], "label": "Li", "properties": {}}, {"species": [{"element": "Li", "occu": 1}], "abc": [0.26121001, 0.42305099, 0.4315343], "xyz": [1.60675292383192, 4.93691325123517, 19.4288073950718], "label": "Li", "properties": {}}, {"species": [{"element": "Li", "occu": 1}], "abc": [0.02757808, 0.83917438, 0.44066285], "xyz": [0.16963806507136, 9.792982913759541, 19.8397986876441], "label": "Li", "properties": {}}, {"species": [{"element": "Li", "occu": 1}], "abc": [0.00294752, 0.05806132, 0.4074769], "xyz": [0.018130761443839998, 0.67756300509356, 18.3456800723394], "label": "Li", "properties": {}}, {"species": [{"element": "Li", "occu": 1}], "abc": [0.77167625, 0.04417577, 0.45619085], "xyz": [4.746728775589999, 0.51552164975791, 20.5389100241721], "label": "Li", "properties": {}}, {"species": [{"element": "Li", "occu": 1}], "abc": [0.13735628, 0.19120733, 0.44213945], "xyz": [0.8449048506857599, 2.2313480491093904, 19.9062790971957], "label": "Li", "properties": {}}, {"species": [{"element": "Li", "occu": 1}], "abc": [0.75051049, 0.62575995, 0.41552125], "xyz": [4.61653412200408, 7.3024828265908495, 18.7078578338025], "label": "Li", "properties": {}}, {"species": [{"element": "P", "occu": 1}], "abc": [0.26541313, 0.74971175, 0.06713963], "xyz": [1.63260712195096, 8.748973435050251, 3.0228024512683804], "label": "P", "properties": {}}, {"species": [{"element": "P", "occu": 1}], "abc": [0.77320567, 0.03750742, 0.024068589999999997], "xyz": [4.7561365316586395, 0.43770345228986, 1.08363112591734], "label": "P", "properties": {}}, {"species": [{"element": "P", "occu": 1}], "abc": [0.25260799, 0.57766823, 0.16888199999999998], "xyz": [1.55384024722408, 6.741262890094091, 7.603511124131999], "label": "P", "properties": {}}, {"species": [{"element": "P", "occu": 1}], "abc": [0.75242602, 0.83255572, 0.12341222], "xyz": [4.62831691481584, 9.71574458780876, 5.55634222488972], "label": "P", "properties": {}}, {"species": [{"element": "P", "occu": 1}], "abc": [0.74803505, 0.4045778, 0.08673292], "xyz": [4.601307215279601, 4.7213351326174005, 3.9049438190479204], "label": "P", "properties": {}}, {"species": [{"element": "P", "occu": 1}], "abc": [0.25331488, 0.19398872, 0.10662424000000001], "xyz": [1.55818846333696, 2.26380626684776, 4.800503280054241], "label": "P", "properties": {}}, {"species": [{"element": "P", "occu": 1}], "abc": [0.2521529, 0.39402446, 0.2688486], "xyz": [1.5510409012568, 4.5981799448921805, 12.1042699684236], "label": "P", "properties": {}}, {"species": [{"element": "P", "occu": 1}], "abc": [0.75217479, 0.65176552, 0.22486143], "xyz": [4.62677155084968, 7.60596218528216, 10.12385206471518], "label": "P", "properties": {}}, {"species": [{"element": "P", "occu": 1}], "abc": [0.75442215, 0.22122817, 0.18636808], "xyz": [4.6405954937028, 2.58168473738711, 8.390780364178081], "label": "P", "properties": {}}, {"species": [{"element": "P", "occu": 1}], "abc": [0.25270225, 0.00664934, 0.20707430999999998], "xyz": [1.554420058582, 0.07759635489322, 9.32302921333806], "label": "P", "properties": {}}, {"species": [{"element": "P", "occu": 1}], "abc": [0.25270192, 0.2134596, 0.37044645], "xyz": [1.5544180286886402, 2.4910272112668, 16.6784719713777], "label": "P", "properties": {}}, {"species": [{"element": "P", "occu": 1}], "abc": [0.751784, 0.46777808, 0.3248949], "xyz": [4.624367726528, 5.45886868575664, 14.627621572007401], "label": "P", "properties": {}}, {"species": [{"element": "P", "occu": 1}], "abc": [0.75212569, 0.03922845, 0.28681008999999996], "xyz": [4.62646952732248, 0.45778749892635, 12.91294341509634], "label": "P", "properties": {}}, {"species": [{"element": "P", "occu": 1}], "abc": [0.25306009, 0.82385351, 0.30737052], "xyz": [1.5566212011272802, 9.614191685488331, 13.83862796538552], "label": "P", "properties": {}}, {"species": [{"element": "P", "occu": 1}], "abc": [0.27453623, 0.0099585, 0.46992221], "xyz": [1.68872506168616, 0.11621353400550001, 21.15713190992346], "label": "P", "properties": {}}, {"species": [{"element": "P", "occu": 1}], "abc": [0.76603157, 0.29728508, 0.42685649], "xyz": [4.71200726513144, 3.46925237273764, 19.21820010494274], "label": "P", "properties": {}}, {"species": [{"element": "P", "occu": 1}], "abc": [0.75349372, 0.85256492, 0.38703419], "xyz": [4.63488454251424, 9.94924760981236, 17.42529558558294], "label": "P", "properties": {}}, {"species": [{"element": "P", "occu": 1}], "abc": [0.25056462, 0.64216847, 0.40695908999999997], "xyz": [1.54127108602704, 7.49396669434201, 18.32236690637034], "label": "P", "properties": {}}, {"species": [{"element": "O", "occu": 1}], "abc": [0.48651252, 0.71271267, 0.05357118000000001], "xyz": [2.99263192092384, 8.31720220025061, 2.4119152015186804], "label": "O", "properties": {}}, {"species": [{"element": "O", "occu": 1}], "abc": [0.56817853, 0.04533381, 0.0463503], "xyz": [3.4949752283077595, 0.5290357252632301, 2.0868122218878], "label": "O", "properties": {}}, {"species": [{"element": "O", "occu": 1}], "abc": [0.5388595, 0.47845511, 0.08382456], "xyz": [3.314628245524, 5.58346730894113, 3.7740018144945604], "label": "O", "properties": {}}, {"species": [{"element": "O", "occu": 1}], "abc": [0.9471501, 0.48685479, 0.08245246], "xyz": [5.8261021179192, 5.68148975181057, 3.7122262693599604], "label": "O", "properties": {}}, {"species": [{"element": "O", "occu": 1}], "abc": [0.98437344, 0.06132561, 0.043722960000000005], "xyz": [6.05507002914048, 0.7156565610426301, 1.9685224756929602], "label": "O", "properties": {}}, {"species": [{"element": "O", "occu": 1}], "abc": [0.06402052, 0.71231639, 0.04851951], "xyz": [0.39380251045984, 8.31257769864337, 2.18447575243326], "label": "O", "properties": {}}, {"species": [{"element": "O", "occu": 1}], "abc": [0.78334846, 0.90728591, 0.01584026], "xyz": [4.81852678036432, 10.58782968865753, 0.71317010172276], "label": "O", "properties": {}}, {"species": [{"element": "O", "occu": 1}], "abc": [0.26824805, 0.88488335, 0.06965521000000001], "xyz": [1.6500452591756, 10.32639667481305, 3.1360604687814604], "label": "O", "properties": {}}, {"species": [{"element": "O", "occu": 1}], "abc": [0.75421508, 0.30678715, 0.06372023], "xyz": [4.63932176637536, 3.58013946768845, 2.86885208392398], "label": "O", "properties": {}}, {"species": [{"element": "O", "occu": 1}], "abc": [0.74979451, 0.12534104, 9.99999999999994e-05], "xyz": [4.6121299915559195, 1.46270273779432, 0.004502262599999973], "label": "O", "properties": {}}, {"species": [{"element": "O", "occu": 1}], "abc": [0.2563463, 0.25049975, 0.07499514], "xyz": [1.5768353097896002, 2.9232777240542505, 3.3764781400376402], "label": "O", "properties": {}}, {"species": [{"element": "O", "occu": 1}], "abc": [0.45920346, 0.53927834, 0.15148434], "xyz": [2.82464864952432, 6.29326120440022, 6.82022278467684], "label": "O", "properties": {}}, {"species": [{"element": "O", "occu": 1}], "abc": [0.54448515, 0.87144661, 0.14083066], "xyz": [3.3492326987988, 10.16959283478563, 6.3405661345131605], "label": "O", "properties": {}}, {"species": [{"element": "O", "occu": 1}], "abc": [0.54723918, 0.29735807, 0.18293225], "xyz": [3.3661732661025603, 3.47010415019881, 8.2360902750885], "label": "O", "properties": {}}, {"species": [{"element": "O", "occu": 1}], "abc": [0.46173155, 0.11934086, 0.11072505], "xyz": [2.8401994165076, 1.3926819392333802, 4.9851325149813], "label": "O", "properties": {}}, {"species": [{"element": "O", "occu": 1}], "abc": [0.04984824, 0.11539914, 0.10993203], "xyz": [0.30662609510208, 1.3466829221866201, 4.9494286721107805], "label": "O", "properties": {}}, {"species": [{"element": "O", "occu": 1}], "abc": [0.96159779, 0.29751878, 0.18328671], "xyz": [5.91497263306568, 3.47197960102474, 8.25204899510046], "label": "O", "properties": {}}, {"species": [{"element": "O", "occu": 1}], "abc": [0.95836114, 0.87061128, 0.14122478], "xyz": [5.89506337747888, 10.159844714952241, 6.35831045187228], "label": "O", "properties": {}}, {"species": [{"element": "O", "occu": 1}], "abc": [0.04524864, 0.53896197, 0.15163821], "xyz": [0.27833307237888, 6.28956923515251, 6.82715041613946], "label": "O", "properties": {}}, {"species": [{"element": "O", "occu": 1}], "abc": [0.75147918, 0.69955753, 0.11989562], "xyz": [4.62249272018256, 8.16368457111599, 5.39801565829812], "label": "O", "properties": {}}, {"species": [{"element": "O", "occu": 1}], "abc": [0.25218356, 0.71030648, 0.17210746999999998], "xyz": [1.5512294968035198, 8.28912248509384, 7.74873025361622], "label": "O", "properties": {}}, {"species": [{"element": "O", "occu": 1}], "abc": [0.25069153, 0.28953996, 0.13073426], "xyz": [1.54205173380376, 3.37886850302868, 5.8859996933667595], "label": "O", "properties": {}}, {"species": [{"element": "O", "occu": 1}], "abc": [0.75587156, 0.12682251, 0.16198005999999998], "xyz": [4.64951109289952, 1.47999117121533, 7.292767660837559], "label": "O", "properties": {}}, {"species": [{"element": "O", "occu": 1}], "abc": [0.24531917, 0.6989737, 0.09930889], "xyz": [1.50900531595064, 8.1568714017071, 4.47114701294514], "label": "O", "properties": {}}, {"species": [{"element": "O", "occu": 1}], "abc": [0.75315887, 0.89207669, 0.09256017], "xyz": [4.6328248158730405, 10.410341391658271, 4.16730191640642], "label": "O", "properties": {}}, {"species": [{"element": "O", "occu": 1}], "abc": [0.75705601, 0.3510717, 0.11868766000000001], "xyz": [4.65679687226392, 4.0969305564411, 5.343630126995161], "label": "O", "properties": {}}, {"species": [{"element": "O", "occu": 1}], "abc": [0.25302856, 0.0633553, 0.175642], "xyz": [1.55642725404352, 0.7393426028999001, 7.907864075892], "label": "O", "properties": {}}, {"species": [{"element": "O", "occu": 1}], "abc": [0.45915115, 0.35538209, 0.25149985999999996], "xyz": [2.8243268806708, 4.14723187238647, 11.323184135832358], "label": "O", "properties": {}}, {"species": [{"element": "O", "occu": 1}], "abc": [0.54529717, 0.69040211, 0.24223445], "xyz": [3.35422758972664, 8.05684280644213, 10.9060310466657], "label": "O", "properties": {}}, {"species": [{"element": "O", "occu": 1}], "abc": [0.54494527, 0.11543565, 0.28371567], "xyz": [3.35206298526184, 1.34710898596395, 12.77362450074942], "label": "O", "properties": {}}, {"species": [{"element": "O", "occu": 1}], "abc": [0.45976777, 0.93023243, 0.21017456999999998], "xyz": [2.82811982868184, 10.855610597662691, 9.46261105982082], "label": "O", "properties": {}}, {"species": [{"element": "O", "occu": 1}], "abc": [0.04546537, 0.93050882, 0.21029594999999998], "xyz": [0.27966622022104, 10.85883600898606, 9.4680759061647], "label": "O", "properties": {}}, {"species": [{"element": "O", "occu": 1}], "abc": [0.95959482, 0.11528077, 0.28365936999999997], "xyz": [5.90265198002544, 1.34530156997291, 12.77108972690562], "label": "O", "properties": {}}, {"species": [{"element": "O", "occu": 1}], "abc": [0.95894916, 0.69047792, 0.24224467], "xyz": [5.89868040139872, 8.05772749269136, 10.90649117790342], "label": "O", "properties": {}}, {"species": [{"element": "O", "occu": 1}], "abc": [0.04527334, 0.35539539, 0.25148138], "xyz": [0.27848500682128, 4.14738708050037, 11.322352117703879], "label": "O", "properties": {}}, {"species": [{"element": "O", "occu": 1}], "abc": [0.75213367, 0.51911454, 0.2215152], "xyz": [4.62651861383464, 6.057954033944821, 9.9731960029152], "label": "O", "properties": {}}, {"species": [{"element": "O", "occu": 1}], "abc": [0.2522532, 0.52670679, 0.27219214999999997], "xyz": [1.5516578658144, 6.14655394392657, 12.254805369585899], "label": "O", "properties": {}}, {"species": [{"element": "O", "occu": 1}], "abc": [0.25342757, 0.10046314, 0.23159653], "xyz": [1.5588816411634399, 1.1723830432986202, 10.42708395308778], "label": "O", "properties": {}}, {"species": [{"element": "O", "occu": 1}], "abc": [0.75166138, 0.94554109, 0.26224072], "xyz": [4.623613467364961, 11.034259337883471, 11.80676585853072], "label": "O", "properties": {}}, {"species": [{"element": "O", "occu": 1}], "abc": [0.2525613, 0.51994371, 0.20011684], "xyz": [1.5535530480695998, 6.06763026791493, 9.00978564362184], "label": "O", "properties": {}}, {"species": [{"element": "O", "occu": 1}], "abc": [0.75190225, 0.7093358, 0.19354749999999998], "xyz": [4.625095104982, 8.2777948601314, 8.714016705735], "label": "O", "properties": {}}, {"species": [{"element": "O", "occu": 1}], "abc": [0.75328037, 0.16470696, 0.21779669], "xyz": [4.63357218570104, 1.9220944817896803, 9.80577891790794], "label": "O", "properties": {}}, {"species": [{"element": "O", "occu": 1}], "abc": [0.25146188, 0.88032775, 0.27593568], "xyz": [1.5467903045609601, 10.27323381137825, 12.423348920695682], "label": "O", "properties": {}}, {"species": [{"element": "O", "occu": 1}], "abc": [0.45894544, 0.17521853, 0.35272394], "xyz": [2.82306151896448, 2.0447622226789903, 15.88055803186644], "label": "O", "properties": {}}, {"species": [{"element": "O", "occu": 1}], "abc": [0.54416866, 0.50663148, 0.34205112], "xyz": [3.34728590804272, 5.912279432568841, 15.40003964864112], "label": "O", "properties": {}}, {"species": [{"element": "O", "occu": 1}], "abc": [0.54942197, 0.93077737, 0.38393699], "xyz": [3.3796000264882404, 10.86196992921071, 17.28585150833574], "label": "O", "properties": {}}, {"species": [{"element": "O", "occu": 1}], "abc": [0.46024703, 0.74752636, 0.31039052], "xyz": [2.83106784895976, 8.72347040797988, 13.97459629590552], "label": "O", "properties": {}}, {"species": [{"element": "O", "occu": 1}], "abc": [0.04573305, 0.7478549, 0.31078136], "xyz": [0.2813127712956, 8.7273043984867, 13.99219293905136], "label": "O", "properties": {}}, {"species": [{"element": "O", "occu": 1}], "abc": [0.96156751, 0.92739754, 0.38289913999999997], "xyz": [5.91478637497192, 10.82252804653382, 17.23912477594164], "label": "O", "properties": {}}, {"species": [{"element": "O", "occu": 1}], "abc": [0.95797151, 0.50670344, 0.34232224], "xyz": [5.89266668853992, 5.9131191901535205, 15.41224618300224], "label": "O", "properties": {}}, {"species": [{"element": "O", "occu": 1}], "abc": [0.04501805, 0.1743748, 0.35300683], "xyz": [0.27691466901559997, 2.0349160766684, 15.89329448253558], "label": "O", "properties": {}}, {"species": [{"element": "O", "occu": 1}], "abc": [0.75180467, 0.33517701, 0.32188137], "xyz": [4.62449487166664, 3.91144297328883, 14.49194453787762], "label": "O", "properties": {}}, {"species": [{"element": "O", "occu": 1}], "abc": [0.25138758, 0.34652481, 0.37379073], "xyz": [1.5463332709953599, 4.043869336816231, 16.829040239056983], "label": "O", "properties": {}}, {"species": [{"element": "O", "occu": 1}], "abc": [0.25527297, 0.91832701, 0.33174493], "xyz": [1.57023305088024, 10.716676929738831, 14.93602791078618], "label": "O", "properties": {}}, {"species": [{"element": "O", "occu": 1}], "abc": [0.7498959, 0.75689696, 0.36296331], "xyz": [4.6127536609128, 8.83282327655968, 16.34156135785206], "label": "O", "properties": {}}, {"species": [{"element": "O", "occu": 1}], "abc": [0.25171191, 0.33667308, 0.30019859], "xyz": [1.5483282870967199, 3.9289017855416404, 13.51572884329734], "label": "O", "properties": {}}, {"species": [{"element": "O", "occu": 1}], "abc": [0.75235423, 0.52509432, 0.29361522], "xyz": [4.62787532074216, 6.127736768932561, 13.219328237967721], "label": "O", "properties": {}}, {"species": [{"element": "O", "occu": 1}], "abc": [0.75291631, 0.98212128, 0.31818534], "xyz": [4.63133278274152, 11.46114221728224, 14.32553956150284], "label": "O", "properties": {}}, {"species": [{"element": "O", "occu": 1}], "abc": [0.2550336, 0.69405955, 0.37482253], "xyz": [1.5687606400512002, 8.09952433757765, 16.875494584563782], "label": "O", "properties": {}}, {"species": [{"element": "O", "occu": 1}], "abc": [0.48561863, 0.98566953, 0.45025887], "xyz": [2.98713343190696, 11.502549524811991, 20.27183670719262], "label": "O", "properties": {}}, {"species": [{"element": "O", "occu": 1}], "abc": [0.56571866, 0.33479796, 0.44555143999999997], "xyz": [3.4798440956427203, 3.90701954204268, 20.05989584688144], "label": "O", "properties": {}}, {"species": [{"element": "O", "occu": 1}], "abc": [0.45178805, 0.56165684, 0.4112606], "xyz": [2.7790350388556, 6.554413443265721, 18.5160321823356], "label": "O", "properties": {}}, {"species": [{"element": "O", "occu": 1}], "abc": [0.04401537, 0.56618164, 0.41048323999999997], "xyz": [0.27074699182104, 6.607216877384121, 18.48103339378824], "label": "O", "properties": {}}, {"species": [{"element": "O", "occu": 1}], "abc": [0.98773124, 0.33396926, 0.44032703], "xyz": [6.07572450163808, 3.89734879287058, 19.82467918938078], "label": "O", "properties": {}}, {"species": [{"element": "O", "occu": 1}], "abc": [0.06953478, 0.00218474, 0.44756352], "xyz": [0.42772178245776005, 0.025495441711420003, 20.15048497220352], "label": "O", "properties": {}}, {"species": [{"element": "O", "occu": 1}], "abc": [0.76897681, 0.16205587, 0.42422255999999997], "xyz": [4.7301240018575195, 1.89115683677621, 19.09961365964256], "label": "O", "properties": {}}, {"species": [{"element": "O", "occu": 1}], "abc": [0.28543433, 0.14027159, 0.47797375999999997], "xyz": [1.7557613672213601, 1.6369390163649702, 21.51963383429376], "label": "O", "properties": {}}, {"species": [{"element": "O", "occu": 1}], "abc": [0.25443965, 0.74143557, 0.4295517], "xyz": [1.5651071395628, 8.652392210381311, 19.3395455367642], "label": "O", "properties": {}}, {"species": [{"element": "O", "occu": 1}], "abc": [0.25339433, 0.15413547, 0.40130562999999997], "xyz": [1.55867717554136, 1.7987274875030101, 18.067833291184378], "label": "O", "properties": {}}, {"species": [{"element": "O", "occu": 1}], "abc": [0.74622392, 0.34806549, 0.3946734], "xyz": [4.59016660691264, 4.06184873808867, 17.7692328803484], "label": "O", "properties": {}}, {"species": [{"element": "O", "occu": 1}], "abc": [0.75828694, 0.79603773, 0.41865267], "xyz": [4.6643685590324795, 9.28958756891259, 18.84884258531142], "label": "O", "properties": {}}, {"species": [{"element": "O", "occu": 1}], "abc": [0.25025786, 0.92279064, 0.49400547], "xyz": [1.53938414636912, 10.76876652323112, 22.241423517764222], "label": "O", "properties": {}}]}, "formula": "(Li3PO4)18.0", "bandgap": 4.1437, "slab_thickness": 22.236921255164223}