{"miller": "101_0.24", "final_energy": -996.78718555, "gamma": 0.06896051566014186, "work_function": "Not calculated", "ionization_potentail": "Not calculated", "electron_affinity": "Not calculated", "is_stochiometric": true, "incar_parameters": {"SYSTEM": "unknown system", "LCOMPAT": false, "PREC": "normal", "ENMAX": 520.0, "ENAUG": 628.945, "EDIFF": 1e-05, "IALGO": 38, "IWAVPR": 11, "NBANDS": 462, "NBANDSLOW": -1, "NBANDSHIGH": -1, "NELECT": 760.0, "TURBO": 0, "IRESTART": 0, "NREBOOT": 0, "NMIN": 0, "EREF": 0.0, "ISMEAR": 0, "SIGMA": 0.05, "KSPACING": 0.5, "KGAMMA": true, "KBLOWUP": true, "LREAL": true, "ROPT": [-0.0005, -0.0005, -0.0005], "LMAXPAW": -100, "LMAXMIX": 2, "NLSPLINE": false, "ISTART": 0, "ICHARG": 2, "INIWAV": 1, "ISPIN": 1, "LNONCOLLINEAR": false, "MAGMOM": [0.6, 0.6, 0.6, 0.6, 0.6, 0.6, 0.6, 0.6, 0.6, 0.6, 0.6, 0.6, 0.6, 0.6, 0.6, 0.6, 0.6, 0.6, 0.6, 0.6, 0.6, 0.6, 0.6, 0.6, 0.6, 0.6, 0.6, 0.6, 0.6, 0.6, 0.6, 0.6, 0.6, 0.6, 0.6, 0.6, 0.6, 0.6, 0.6, 0.6, 0.6, 0.6, 0.6, 0.6, 0.6, 0.6, 0.6, 0.6, 0.6, 0.6, 0.6, 0.6, 0.6, 0.6, 0.6, 0.6, 0.6, 0.6, 0.6, 0.6, 0.6, 0.6, 0.6, 0.6, 0.6, 0.6, 0.6, 0.6, 0.6, 0.6, 0.6, 0.6, 0.6, 0.6, 0.6, 0.6, 0.6, 0.6, 0.6, 0.6, 0.6, 0.6, 0.6, 0.6, 0.6, 0.6, 0.6, 0.6, 0.6, 0.6, 0.6, 0.6, 0.6, 0.6, 0.6, 0.6, 0.6, 0.6, 0.6, 0.6, 0.6, 0.6, 0.6, 0.6, 0.6, 0.6, 0.6, 0.6, 0.6, 0.6, 0.6, 0.6, 0.6, 0.6, 0.6, 0.6, 0.6, 0.6, 0.6, 0.6, 0.6, 0.6, 0.6, 0.6, 0.6, 0.6, 0.6, 0.6, 0.6, 0.6, 0.6, 0.6, 0.6, 0.6, 0.6, 0.6, 0.6, 0.6, 0.6, 0.6, 0.6, 0.6, 0.6, 0.6, 0.6, 0.6, 0.6, 0.6, 0.6, 0.6, 0.6, 0.6, 0.6, 0.6, 0.6, 0.6, 0.6, 0.6, 0.6, 0.6], "NUPDOWN": -1.0, "LSORBIT": false, "SAXIS": [0.0, 0.0, 1.0], "LSPIRAL": false, "QSPIRAL": [0.0, 0.0, 0.0], "LZEROZ": false, "LASPH": false, "LMETAGGA": false, "NELM": 100, "NELMDL": -5, "NELMIN": 6, "ENINI": 520.0, "LDIAG": true, "LSUBROT": false, "WEIMIN": 0.001, "EBREAK": 1e-08, "DEPER": 0.3, "NRMM": 4, "TIME": 0.4, "AMIX": 0.4, "BMIX": 1.0, "AMIN": 0.1, "AMIX_MAG": 1.6, "BMIX_MAG": 1.0, "IMIX": 4, "MIXFIRST": false, "MAXMIX": -45, "WC": 100.0, "INIMIX": 1, "MIXPRE": 1, "MREMOVE": 5, "LDIPOL": false, "LMONO": false, "IDIPOL": 0, "EPSILON": 1.0, "DIPOL": [-100.0, -100.0, -100.0], "EFIELD": 0.0, "NGX": 36, "NGY": 70, "NGZ": 252, "NGXF": 72, "NGYF": 140, "NGZF": 504, "ADDGRID": false, "NSW": 150, "IBRION": 2, "MDALGO": 0, "ISIF": 2, "PSTRESS": 0.0, "EDIFFG": -0.01, "NFREE": 1, "POTIM": 0.5, "SMASS": -3.0, "SCALEE": 1.0, "TEBEG": 0.0001, "TEEND": 0.0001, "NBLOCK": 1, "KBLOCK": 150, "NPACO": 256, "APACO": 10.0, "ISYM": 0, "SYMPREC": 1e-05, "LORBIT": 11, "RWIGS": [-1.0, -1.0, -1.0], "NEDOS": 301, "EMIN": 10.0, "EMAX": -10.0, "EFERMI": 0.0, "NWRITE": 2, "LWAVE": false, "LDOWNSAMPLE": false, "LCHARG": false, "LPARD": false, "LVTOT": false, "LVHAR": false, "LELF": false, "LOPTICS": false, "STM": [0.0, 0.0, 0.0, 0.0, 0.0, 0.0, 0.0], "NPAR": 2, "NSIM": 4, "NBLK": -1, "LPLANE": true, "LSCALAPACK": true, "LSCAAWARE": false, "LSCALU": false, "LASYNC": false, "LORBITALREAL": false, "IDIOT": 3, "PHON_NSTRUCT": -1, "LMUSIC": false, "POMASS": [7.01, 30.974, 16.0], "DARWINR": [0.0, 0.0, 0.0], "DARWINV": [1.0, 1.0, 1.0], "LCORR": true, "GGA_COMPAT": true, "LBERRY": false, "ICORELEVEL": 0, "LDAU": false, "I_CONSTRAINED_M": 0, "GGA": "--", "VOSKOWN": 0, "LHFCALC": false, "PRECFOCK": "", "LSYMGRAD": false, "LHFONE": false, "LRHFCALC": false, "LTHOMAS": false, "LMODELHF": false, "LFOCKACE": false, "ENCUT4O": -1.0, "EXXOEP": 0, "FOURORBIT": 0, "AEXX": 0.0, "HFALPHA": 0.0, "MCALPHA": 0.0, "ALDAX": 1.0, "AGGAX": 1.0, "ALDAC": 1.0, "AGGAC": 1.0, "NKREDX": 1, "NKREDY": 1, "NKREDZ": 1, "SHIFTRED": false, "ODDONLY": false, "EVENONLY": false, "LMAXFOCK": 0, "NMAXFOCKAE": 0, "LFOCKAEDFT": false, "HFSCREEN": 0.0, "HFSCREENC": 0.0, "NBANDSGWLOW": 0, "LUSE_VDW": false, "Zab_VDW": -0.8491, "PARAM1": 0.1234, "PARAM2": 1.0, "PARAM3": 0.0, "MODEL_GW": 0, "MODEL_EPS0": 12.11948466, "MODEL_ALPHA": 1.0, "LEPSILON": false, "LRPA": false, "LNABLA": false, "LVEL": false, "CSHIFT": 0.1, "OMEGAMAX": -1.0, "DEG_THRESHOLD": 0.002, "RTIME": -0.1, "WPLASMAI": 0.0, "DFIELD": [0.0, 0.0, 0.0], "WPLASMA": [0.0, 0.0, 0.0, 0.0, 0.0, 0.0, 0.0, 0.0, 0.0], "NUCIND": false, "MAGPOS": [0.0, 0.0, 0.0], "LNICSALL": true, "ORBITALMAG": false, "LMAGBLOCH": false, "LCHIMAG": false, "LGAUGE": true, "MAGATOM": 0, "MAGDIPOL": [0.0, 0.0, 0.0], "AVECCONST": [0.0, 0.0, 0.0], "LFINITE_TEMPERATURE": false, "LADDER": false, "LRPAFORCE": false, "LFXC": false, "LHARTREE": true, "IBSE": 0, "KPOINT": [-1, 0, 0, 0], "LTCTC": false, "LTCTE": false, "LTETE": false, "LTRIPLET": false, "LFXCEPS": false, "LFXHEG": false, "NATURALO": 2, "LHOLEGF": false, "L2ORDER": false, "LDMP1": false, "LMP2LT": false, "LSMP2LT": false, "LGWLF": false, "ENCUTGW": -2.0, "ENCUTGWSOFT": -2.0, "ENCUTLF": -1.0, "LESF_SPLINES": false, "LMAXMP2": -1, "SCISSOR": 0.0, "NOMEGA": 0, "NOMEGAR": 0, "NBANDSGW": -1, "NBANDSO": -1, "NBANDSV": -1, "NELMGW": 1, "NELMHF": 1, "DIM": 3, "IESPILON": 4, "ANTIRES": 0, "OMEGAMIN": -30.0, "OMEGATL": -200.0, "OMEGAGRID": 0, "LSELFENERGY": false, "LSPECTRAL": false, "LSPECTRALGW": false, "LSINGLES": false, "LFERMIGW": false, "ODDONLYGW": false, "EVENONLYGW": false, "NKREDLFX": 1, "NKREDLFY": 1, "NKREDLFZ": 1, "MAXMEM": 2800, "TELESCOPE": 0, "NTAUPAR": -1, "NOMEGAPAR": -1, "DAMP_NEWTON": 0.80000001, "LAMBDA": 1.0, "OFIELD_KAPPA": 0.0, "OFIELD_K": [0.0, 0.0, 0.0], "OFIELD_Q6_NEAR": 0.0, "OFIELD_Q6_FAR": 0.0, "OFIELD_A": 0.0, "KPOINTS_OPT_MODE": 1, "LKPOINTS_OPT": false, "@module": "pymatgen.io.vasp.inputs", "@class": "Incar"}, "relaxed_structures": {"@module": "pymatgen.core.structure", "@class": "Structure", "charge": 0, "lattice": {"matrix": [[6.151192, 0.0, 0.0], [0.0, 11.669783, 0.0], [0.0, 0.0, 45.022626]], "a": 6.151192, "b": 11.669783, "c": 45.022626, "alpha": 90.0, "beta": 90.0, "gamma": 90.0, "volume": 3231.86257628388}, "sites": [{"species": [{"element": "Li", "occu": 1}], "abc": [0.51028485, 0.20149132, 0.00932574], "xyz": [3.1388600870412002, 2.35135998078356, 0.41986930419324003], "label": "Li", "properties": {}}, {"species": [{"element": "Li", "occu": 1}], "abc": [0.46349741, 0.5401218, 0.06909902000000001], "xyz": [2.85106156041272, 6.3031041995694, 3.1110193344265205], "label": "Li", "properties": {}}, {"species": [{"element": "Li", "occu": 1}], "abc": [0.49412702, 0.18938469, 0.08218297999999999], "xyz": [3.0394701724078397, 2.21007823582227, 3.7000935721054797], "label": "Li", "properties": {}}, {"species": [{"element": "Li", "occu": 1}], "abc": [0.01226726, 0.1908378, 0.08143865], "xyz": [0.07545827157392, 2.2270357141974, 3.6665818808949004], "label": "Li", "properties": {}}, {"species": [{"element": "Li", "occu": 1}], "abc": [0.03320445, 0.53941868, 0.06985818999999999], "xyz": [0.2042469472044, 6.294898941746441, 3.1451991614069397], "label": "Li", "properties": {}}, {"species": [{"element": "Li", "occu": 1}], "abc": [0.99209447, 0.14398376, 0.02296945], "xyz": [6.102563567108239, 1.68025923472408, 1.0341449567757], "label": "Li", "properties": {}}, {"species": [{"element": "Li", "occu": 1}], "abc": [0.74659009, 0.77169279, 0.07691348], "xyz": [4.59241898888728, 9.00548740196457, 3.4628468443984803], "label": "Li", "properties": {}}, {"species": [{"element": "Li", "occu": 1}], "abc": [0.25526521, 0.95820699, 0.06382872], "xyz": [1.5701853176303202, 11.18206764238317, 2.8737365886187205], "label": "Li", "properties": {}}, {"species": [{"element": "Li", "occu": 1}], "abc": [0.75045599, 0.30739534, 0.05256606], "xyz": [4.61619888204008, 3.5872369130112203, 2.36666205967356], "label": "Li", "properties": {}}, {"species": [{"element": "Li", "occu": 1}], "abc": [0.50089829, 0.58953432, 0.13722039], "xyz": [3.0811215542616797, 6.87973758545256, 6.17802229854414], "label": "Li", "properties": {}}, {"species": [{"element": "Li", "occu": 1}], "abc": [0.50465388, 0.95816909, 0.11106546], "xyz": [3.10422290942496, 11.18162535760747, 5.00045866709796], "label": "Li", "properties": {}}, {"species": [{"element": "Li", "occu": 1}], "abc": [0.50170351, 0.35279875, 0.17350587], "xyz": [3.08607461708392, 4.1170848551712504, 7.811689893814621], "label": "Li", "properties": {}}, {"species": [{"element": "Li", "occu": 1}], "abc": [0.50030366, 0.00996705, 0.17904041], "xyz": [3.0774638709627204, 0.11631331065015, 8.060869418316662], "label": "Li", "properties": {}}, {"species": [{"element": "Li", "occu": 1}], "abc": [0.999986, 0.01007918, 0.17883380000000001], "xyz": [6.151105883312, 0.11762184341794, 8.0515672935588], "label": "Li", "properties": {}}, {"species": [{"element": "Li", "occu": 1}], "abc": [0.99760882, 0.3529923, 0.17358583], "xyz": [6.13648339271344, 4.1193435416709, 7.81528990298958], "label": "Li", "properties": {}}, {"species": [{"element": "Li", "occu": 1}], "abc": [0.99369875, 0.95718754, 0.11098271000000001], "xyz": [6.11243180141, 11.17017088210382, 4.996733044796461], "label": "Li", "properties": {}}, {"species": [{"element": "Li", "occu": 1}], "abc": [0.9989613, 0.58874205, 0.13780142], "xyz": [6.1448027568696, 6.870491966475151, 6.204181794928921], "label": "Li", "properties": {}}, {"species": [{"element": "Li", "occu": 1}], "abc": [0.74874232, 0.58450794, 0.18760632000000002], "xyz": [4.60565776884544, 6.82108082157702, 8.446529180596322], "label": "Li", "properties": {}}, {"species": [{"element": "Li", "occu": 1}], "abc": [0.24993517, 0.78063315, 0.16242055], "xyz": [1.5373992182226401, 9.10981946310645, 7.3125996773643], "label": "Li", "properties": {}}, {"species": [{"element": "Li", "occu": 1}], "abc": [0.25259051, 0.38420825, 0.10887318000000001], "xyz": [1.55373272438792, 4.48362690430975, 4.901756464570681], "label": "Li", "properties": {}}, {"species": [{"element": "Li", "occu": 1}], "abc": [0.74959694, 0.16113923, 0.14736099], "xyz": [4.61091470055248, 1.8804598468870901, 6.63457873975974], "label": "Li", "properties": {}}, {"species": [{"element": "Li", "occu": 1}], "abc": [0.49775163, 0.40046845, 0.23981411], "xyz": [3.06176584444296, 4.67337990984635, 10.79706098405286], "label": "Li", "properties": {}}, {"species": [{"element": "Li", "occu": 1}], "abc": [0.50248628, 0.7781631, 0.21110856], "xyz": [3.0908895856457597, 9.080994515607301, 9.50466174227856], "label": "Li", "properties": {}}, {"species": [{"element": "Li", "occu": 1}], "abc": [0.50189236, 0.16709446, 0.27265164999999997], "xyz": [3.08723626969312, 1.94995608870218, 12.2754932662329], "label": "Li", "properties": {}}, {"species": [{"element": "Li", "occu": 1}], "abc": [0.49826596, 0.82793287, 0.27908955999999996], "xyz": [3.06492958702432, 9.661796931467212, 12.56534488038456], "label": "Li", "properties": {}}, {"species": [{"element": "Li", "occu": 1}], "abc": [0.00221647, 0.82766313, 0.279116], "xyz": [0.01363393253224, 9.65864912420079, 12.566535278616], "label": "Li", "properties": {}}, {"species": [{"element": "Li", "occu": 1}], "abc": [0.9983104, 0.16723208, 0.2726398], "xyz": [6.1407989459968, 1.95156208423864, 12.2749597481148], "label": "Li", "properties": {}}, {"species": [{"element": "Li", "occu": 1}], "abc": [0.99744216, 0.77800816, 0.21112769], "xyz": [6.1354582350547195, 9.07918639942928, 9.505523025113941], "label": "Li", "properties": {}}, {"species": [{"element": "Li", "occu": 1}], "abc": [0.00255168, 0.40066014, 0.23984669], "xyz": [0.01569587360256, 4.6756168905496205, 10.79852782120794], "label": "Li", "properties": {}}, {"species": [{"element": "Li", "occu": 1}], "abc": [0.7501592, 0.39788018, 0.28918251], "xyz": [4.6143732697664, 4.6431753606009405, 13.01975599347126], "label": "Li", "properties": {}}, {"species": [{"element": "Li", "occu": 1}], "abc": [0.25032384, 0.5955611, 0.26251839], "xyz": [1.5397900020172801, 6.9500688002413, 11.81926729109214], "label": "Li", "properties": {}}, {"species": [{"element": "Li", "occu": 1}], "abc": [0.24998096, 0.20385133, 0.20429292000000002], "xyz": [1.53768088130432, 2.37890078536139, 9.197803731607921], "label": "Li", "properties": {}}, {"species": [{"element": "Li", "occu": 1}], "abc": [0.75105616, 0.972222, 0.2478316], "xyz": [4.61989064294272, 11.345619767826001, 11.158029437781602], "label": "Li", "properties": {}}, {"species": [{"element": "Li", "occu": 1}], "abc": [0.49790519, 0.21644335, 0.34081996], "xyz": [3.06271042148648, 2.5258469262930503, 15.34460959241496], "label": "Li", "properties": {}}, {"species": [{"element": "Li", "occu": 1}], "abc": [0.50533403, 0.59315889, 0.31178476], "xyz": [3.10840664266376, 6.92203553082087, 14.03736864197976], "label": "Li", "properties": {}}, {"species": [{"element": "Li", "occu": 1}], "abc": [0.50005874, 0.98350376, 0.37249929], "xyz": [3.0759573210180795, 11.47727545888408, 16.77089621893554], "label": "Li", "properties": {}}, {"species": [{"element": "Li", "occu": 1}], "abc": [0.49835286, 0.64221195, 0.37826076999999997], "xyz": [3.06546412560912, 7.49447409650685, 17.03029317818202], "label": "Li", "properties": {}}, {"species": [{"element": "Li", "occu": 1}], "abc": [0.00266119, 0.64183176, 0.37819938999999997], "xyz": [0.01636949063848, 7.49003736170808, 17.02752968939814], "label": "Li", "properties": {}}, {"species": [{"element": "Li", "occu": 1}], "abc": [0.00011732, 0.98338642, 0.37269321], "xyz": [0.0007216578454399999, 11.47590612654686, 16.77962700656946], "label": "Li", "properties": {}}, {"species": [{"element": "Li", "occu": 1}], "abc": [0.9990733, 0.5925228, 0.31172589], "xyz": [6.1454916903736, 6.9146124985524, 14.034718159987142], "label": "Li", "properties": {}}, {"species": [{"element": "Li", "occu": 1}], "abc": [0.00312401, 0.21650597, 0.34063146], "xyz": [0.01921638531992, 2.52657768810451, 15.336122827413961], "label": "Li", "properties": {}}, {"species": [{"element": "Li", "occu": 1}], "abc": [0.75149694, 0.21414137, 0.38976787999999996], "xyz": [4.62260196535248, 2.49898331922271, 17.548373488052878], "label": "Li", "properties": {}}, {"species": [{"element": "Li", "occu": 1}], "abc": [0.25139777, 0.41068206, 0.36448648], "xyz": [1.5463959516418402, 4.792570522192981, 16.41013847109648], "label": "Li", "properties": {}}, {"species": [{"element": "Li", "occu": 1}], "abc": [0.25006865, 0.02188116, 0.30369549999999995], "xyz": [1.5382202793308, 0.25534838898828, 13.673168914382998], "label": "Li", "properties": {}}, {"species": [{"element": "Li", "occu": 1}], "abc": [0.75081937, 0.78890432, 0.34701889999999996], "xyz": [4.61843410218904, 9.20634222216256, 15.623702149631399], "label": "Li", "properties": {}}, {"species": [{"element": "Li", "occu": 1}], "abc": [0.49368704, 0.03541729, 0.44090593], "xyz": [3.03676377095168, 0.41331208874807, 19.85074278757218], "label": "Li", "properties": {}}, {"species": [{"element": "Li", "occu": 1}], "abc": [0.49996988, 0.40535192, 0.41494672], "xyz": [3.0754107260969596, 4.73036894503336, 18.68199098448672], "label": "Li", "properties": {}}, {"species": [{"element": "Li", "occu": 1}], "abc": [0.50548347, 0.80310918, 0.46973486], "xyz": [3.10932587679624, 9.37210985590794, 21.14869692094236], "label": "Li", "properties": {}}, {"species": [{"element": "Li", "occu": 1}], "abc": [0.5378119, 0.45611922, 0.48306164999999995], "xyz": [3.3081842567848, 5.32281231952926, 21.7487040028929], "label": "Li", "properties": {}}, {"species": [{"element": "Li", "occu": 1}], "abc": [0.96735409, 0.45370775, 0.48256827999999996], "xyz": [5.95038073957528, 5.29467098791825, 21.726491189903278], "label": "Li", "properties": {}}, {"species": [{"element": "Li", "occu": 1}], "abc": [0.98769001, 0.80553485, 0.46982061999999997], "xyz": [6.07547088799192, 9.40041689843755, 21.15255806134812], "label": "Li", "properties": {}}, {"species": [{"element": "Li", "occu": 1}], "abc": [0.00326898, 0.40478613, 0.4145934], "xyz": [0.02010812362416, 4.723766298509791, 18.6660835902684], "label": "Li", "properties": {}}, {"species": [{"element": "Li", "occu": 1}], "abc": [0.00308158, 0.0374941, 0.44096137999999996], "xyz": [0.01895539024336, 0.43754801078030003, 19.85323929218388], "label": "Li", "properties": {}}, {"species": [{"element": "Li", "occu": 1}], "abc": [0.74106395, 0.03592625, 0.48819502], "xyz": [4.5584266407284, 0.41925154150375005, 21.97982180052252], "label": "Li", "properties": {}}, {"species": [{"element": "Li", "occu": 1}], "abc": [0.25711132, 0.22158177, 0.47480629999999996], "xyz": [1.5815410946934398, 2.58581117265591, 21.3770264673438], "label": "Li", "properties": {}}, {"species": [{"element": "Li", "occu": 1}], "abc": [0.25115248, 0.83257053, 0.40409053], "xyz": [1.54488712575616, 9.71591741729499, 18.193216802331783], "label": "Li", "properties": {}}, {"species": [{"element": "Li", "occu": 1}], "abc": [0.74853618, 0.61109091, 0.44306455], "xyz": [4.60438976212656, 7.131298312972531, 19.9479295285083], "label": "Li", "properties": {}}, {"species": [{"element": "Li", "occu": 1}], "abc": [0.4854145, 0.79350807, 0.5422766400000001], "xyz": [2.9858777890840003, 9.26006698564881, 24.414718351256646], "label": "Li", "properties": {}}, {"species": [{"element": "Li", "occu": 1}], "abc": [0.00108372, 0.84961471, 0.52865708], "xyz": [0.006666169794240001, 9.914819299307931, 23.801529995092082], "label": "Li", "properties": {}}, {"species": [{"element": "Li", "occu": 1}], "abc": [0.24412289, 0.68625669, 0.49875955], "xyz": [1.50164676798488, 8.008466654598271, 22.455464683578302], "label": "Li", "properties": {}}, {"species": [{"element": "P", "occu": 1}], "abc": [0.24619513, 0.73373579, 0.09646252999999999], "xyz": [1.51439351409496, 8.56253744863357, 4.34299641120378], "label": "P", "properties": {}}, {"species": [{"element": "P", "occu": 1}], "abc": [0.73488687, 0.00367437, 0.04951949], "xyz": [4.52043023564904, 0.04287910056171, 2.22949747798074], "label": "P", "properties": {}}, {"species": [{"element": "P", "occu": 1}], "abc": [0.25400498, 0.34164966, 0.03330444], "xyz": [1.56243340093616, 3.9869773942237803, 1.49945334625944], "label": "P", "properties": {}}, {"species": [{"element": "P", "occu": 1}], "abc": [0.24978587, 0.55331672, 0.19667966], "xyz": [1.53648084525704, 6.457086052671761, 8.85503477398716], "label": "P", "properties": {}}, {"species": [{"element": "P", "occu": 1}], "abc": [0.74985107, 0.80987394, 0.15275594], "xyz": [4.6124779029754395, 9.451053137155021, 6.87747355589844], "label": "P", "properties": {}}, {"species": [{"element": "P", "occu": 1}], "abc": [0.75214406, 0.37970204, 0.11460187], "xyz": [4.62658252471952, 4.43104041145732, 5.15967713191062], "label": "P", "properties": {}}, {"species": [{"element": "P", "occu": 1}], "abc": [0.24926711, 0.16321572, 0.13716059], "xyz": [1.53328985289512, 1.9046920345887601, 6.175329945509341], "label": "P", "properties": {}}, {"species": [{"element": "P", "occu": 1}], "abc": [0.25087221, 0.36845584, 0.29792668], "xyz": [1.54316313117432, 4.29979969788272, 13.41344148906168], "label": "P", "properties": {}}, {"species": [{"element": "P", "occu": 1}], "abc": [0.75028486, 0.62574838, 0.2538467], "xyz": [4.615146228553121, 7.30234780720154, 11.4288450354342], "label": "P", "properties": {}}, {"species": [{"element": "P", "occu": 1}], "abc": [0.7503265, 0.19724533, 0.2155138], "xyz": [4.615402364188, 2.30181019886339, 9.7029972152388], "label": "P", "properties": {}}, {"species": [{"element": "P", "occu": 1}], "abc": [0.2502737, 0.9807612, 0.23612545000000001], "xyz": [1.5394815812504, 11.4452703788196, 10.6309878244317], "label": "P", "properties": {}}, {"species": [{"element": "P", "occu": 1}], "abc": [0.25112313, 0.18397726, 0.39918046999999995], "xyz": [1.54470658827096, 2.1469747011345803, 17.97215300731422], "label": "P", "properties": {}}, {"species": [{"element": "P", "occu": 1}], "abc": [0.75107241, 0.44102164, 0.35522402999999997], "xyz": [4.61999059981272, 5.146626837104121, 15.99311864890278], "label": "P", "properties": {}}, {"species": [{"element": "P", "occu": 1}], "abc": [0.75030532, 0.01366356, 0.31549744999999996], "xyz": [4.61527208194144, 0.15945078020748002, 14.204523695303699], "label": "P", "properties": {}}, {"species": [{"element": "P", "occu": 1}], "abc": [0.25030898, 0.79658646, 0.33610434], "xyz": [1.53969859530416, 9.29599112893818, 15.13229999679684], "label": "P", "properties": {}}, {"species": [{"element": "P", "occu": 1}], "abc": [0.2630941, 0.98979428, 0.50215526], "xyz": [1.6183423231672, 11.550684462241241, 22.608348464912762], "label": "P", "properties": {}}, {"species": [{"element": "P", "occu": 1}], "abc": [0.7539382, 0.26075195, 0.45563248], "xyz": [4.6376186243344, 3.0429186733268505, 20.513770740492483], "label": "P", "properties": {}}, {"species": [{"element": "P", "occu": 1}], "abc": [0.75049847, 0.83107731, 0.41447028999999996], "xyz": [4.6164601846762405, 9.69849186392373, 18.66054085478154], "label": "P", "properties": {}}, {"species": [{"element": "P", "occu": 1}], "abc": [0.24775648, 0.61461424, 0.43723582], "xyz": [1.52399767772416, 7.17241480950992, 19.68550479766332], "label": "P", "properties": {}}, {"species": [{"element": "P", "occu": 1}], "abc": [0.74459629, 0.65345142, 0.51837546], "xyz": [4.5801547422776805, 7.62563627244186, 23.338624463157963], "label": "P", "properties": {}}, {"species": [{"element": "O", "occu": 1}], "abc": [0.45451677, 0.69231538, 0.08036847999999999], "xyz": [2.79581991948984, 8.079170252162541, 3.61840001722848], "label": "O", "properties": {}}, {"species": [{"element": "O", "occu": 1}], "abc": [0.54380119, 0.03467324, 0.07156836], "xyz": [3.3450255295184803, 0.40462918670692005, 3.22219550571336], "label": "O", "properties": {}}, {"species": [{"element": "O", "occu": 1}], "abc": [0.4586638, 0.28211604, 0.04762898], "xyz": [2.8213290972496, 3.2922329676193205, 2.1443817533014804], "label": "O", "properties": {}}, {"species": [{"element": "O", "occu": 1}], "abc": [0.0406781, 0.27978981, 0.04445621], "xyz": [0.2502188032952, 3.2650863683112306, 2.0015353162074603], "label": "O", "properties": {}}, {"species": [{"element": "O", "occu": 1}], "abc": [0.96407384, 0.04055351, 0.06389871999999999], "xyz": [5.930203292017279, 0.47325066158833, 2.87688817243872], "label": "O", "properties": {}}, {"species": [{"element": "O", "occu": 1}], "abc": [0.03733498, 0.69248784, 0.08045252], "xyz": [0.22965463029615998, 8.08118282293872, 3.6221837187175203], "label": "O", "properties": {}}, {"species": [{"element": "O", "occu": 1}], "abc": [0.73425493, 0.87628111, 0.04355726], "xyz": [4.516543051376559, 10.22601040069913, 1.9610622265647601], "label": "O", "properties": {}}, {"species": [{"element": "O", "occu": 1}], "abc": [0.24531695, 0.46637008, 0.04556981], "xyz": [1.5089916603044, 5.44243763129264, 2.05167251252106], "label": "O", "properties": {}}, {"species": [{"element": "O", "occu": 1}], "abc": [0.7553692, 0.27290398, 0.09415926], "xyz": [4.6464209800864, 3.18473022643634, 4.23929714741676], "label": "O", "properties": {}}, {"species": [{"element": "O", "occu": 1}], "abc": [0.71233547, 0.08429834, 0.02159961], "xyz": [4.38171224438024, 0.98374333506022, 0.9724711627758601], "label": "O", "properties": {}}, {"species": [{"element": "O", "occu": 1}], "abc": [0.27843463, 0.3172899, 0.00010000000000000005], "xyz": [1.71270486857896, 3.7027042810917004, 0.004502262600000002], "label": "O", "properties": {}}, {"species": [{"element": "O", "occu": 1}], "abc": [0.45573865, 0.51499214, 0.17905541], "xyz": [2.8033359379708003, 6.009846520505621, 8.06154475770666], "label": "O", "properties": {}}, {"species": [{"element": "O", "occu": 1}], "abc": [0.54337902, 0.84873194, 0.17040832], "xyz": [3.34242868079184, 9.90451756496902, 7.672230058648321], "label": "O", "properties": {}}, {"species": [{"element": "O", "occu": 1}], "abc": [0.54510657, 0.45399959, 0.10809298], "xyz": [3.3530551725314397, 5.298076697388971, 4.86662981176548], "label": "O", "properties": {}}, {"species": [{"element": "O", "occu": 1}], "abc": [0.45666908, 0.08779885, 0.13993308000000002], "xyz": [2.80905919154336, 1.02459352714955, 6.300154725868081], "label": "O", "properties": {}}, {"species": [{"element": "O", "occu": 1}], "abc": [0.04117937, 0.08744109, 0.13924349], "xyz": [0.25330221130904, 1.02041854558347, 6.2691075732047405], "label": "O", "properties": {}}, {"species": [{"element": "O", "occu": 1}], "abc": [0.95960928, 0.45432203, 0.10862778000000001], "xyz": [5.90274092626176, 5.30183950221949, 4.890707912150281], "label": "O", "properties": {}}, {"species": [{"element": "O", "occu": 1}], "abc": [0.95639071, 0.84865385, 0.17041323], "xyz": [5.88294288422632, 9.903606271614551, 7.6724511197419805], "label": "O", "properties": {}}, {"species": [{"element": "O", "occu": 1}], "abc": [0.04275697, 0.51514768, 0.17927835], "xyz": [0.26300633180824, 6.0116616385534405, 8.0715821019471], "label": "O", "properties": {}}, {"species": [{"element": "O", "occu": 1}], "abc": [0.7494504, 0.67702814, 0.15020753], "xyz": [4.6100133048768, 7.9007714786936205, 6.762737445573781], "label": "O", "properties": {}}, {"species": [{"element": "O", "occu": 1}], "abc": [0.2456509, 0.86760365, 0.09911996000000001], "xyz": [1.5110458508728, 10.12474632550795, 4.462640888214961], "label": "O", "properties": {}}, {"species": [{"element": "O", "occu": 1}], "abc": [0.24795037, 0.25812657, 0.16147261000000002], "xyz": [1.52519033234104, 3.01228105843431, 7.269920929273861], "label": "O", "properties": {}}, {"species": [{"element": "O", "occu": 1}], "abc": [0.75075758, 0.10471837, 0.19068201], "xyz": [4.61805402003536, 1.22204065401371, 8.585004821158261], "label": "O", "properties": {}}, {"species": [{"element": "O", "occu": 1}], "abc": [0.24800544, 0.68080494, 0.12863975], "xyz": [1.52552907848448, 7.94484591512802, 5.791699352983501], "label": "O", "properties": {}}, {"species": [{"element": "O", "occu": 1}], "abc": [0.7497943, 0.86644266, 0.12149921], "xyz": [4.6121286998056, 10.111197824142781, 5.4702134911254605], "label": "O", "properties": {}}, {"species": [{"element": "O", "occu": 1}], "abc": [0.7496447, 0.33597787, 0.14726568], "xyz": [4.6112084814824, 3.9207888357022105, 6.630287633275681], "label": "O", "properties": {}}, {"species": [{"element": "O", "occu": 1}], "abc": [0.25075606, 0.22305292, 0.10627940999999999], "xyz": [1.54244867022352, 2.60297917391636, 4.78497812793066], "label": "O", "properties": {}}, {"species": [{"element": "O", "occu": 1}], "abc": [0.457512, 0.3296024, 0.28050454999999996], "xyz": [2.8142441543039998, 3.8463884842792004, 12.6290514459483], "label": "O", "properties": {}}, {"species": [{"element": "O", "occu": 1}], "abc": [0.54358567, 0.66454957, 0.27123664], "xyz": [3.34369982461864, 7.755149274643311, 12.211785800216639], "label": "O", "properties": {}}, {"species": [{"element": "O", "occu": 1}], "abc": [0.54322796, 0.27358391, 0.21241918], "xyz": [3.3414994817283197, 3.19266486199153, 9.563669296366681], "label": "O", "properties": {}}, {"species": [{"element": "O", "occu": 1}], "abc": [0.45756686, 0.9046978, 0.23927709], "xyz": [2.8145816086971203, 10.5576270065774, 10.772882933438341], "label": "O", "properties": {}}, {"species": [{"element": "O", "occu": 1}], "abc": [0.04348158, 0.90435668, 0.23933548000000002], "xyz": [0.26746354704336, 10.55364621020044, 10.775511804570481], "label": "O", "properties": {}}, {"species": [{"element": "O", "occu": 1}], "abc": [0.95717666, 0.27376472, 0.21253802], "xyz": [5.88777741357872, 3.1947748754557606, 9.56901978524052], "label": "O", "properties": {}}, {"species": [{"element": "O", "occu": 1}], "abc": [0.95760173, 0.66422683, 0.271149], "xyz": [5.89039210076216, 7.751382968877891, 12.207840017274], "label": "O", "properties": {}}, {"species": [{"element": "O", "occu": 1}], "abc": [0.0436046, 0.33002969, 0.28057245], "xyz": [0.2682202666832, 3.85137486585727, 12.632108482253699], "label": "O", "properties": {}}, {"species": [{"element": "O", "occu": 1}], "abc": [0.74999299, 0.49300348, 0.25073079], "xyz": [4.61335088014408, 5.753243629844841, 11.28855858485454], "label": "O", "properties": {}}, {"species": [{"element": "O", "occu": 1}], "abc": [0.25009206, 0.68558263, 0.20060262], "xyz": [1.53836427873552, 8.00060052066929, 9.031656734880121], "label": "O", "properties": {}}, {"species": [{"element": "O", "occu": 1}], "abc": [0.25011592, 0.07504033, 0.26056884999999996], "xyz": [1.53851104617664, 0.8757043673483901, 11.731493880800098], "label": "O", "properties": {}}, {"species": [{"element": "O", "occu": 1}], "abc": [0.7502397, 0.91971141, 0.29096902999999996], "xyz": [4.614868440722399, 10.73283257732403, 13.10018981527278], "label": "O", "properties": {}}, {"species": [{"element": "O", "occu": 1}], "abc": [0.25034998, 0.49435186, 0.2278966], "xyz": [1.53995079417616, 5.76897893184638, 10.260503388471601], "label": "O", "properties": {}}, {"species": [{"element": "O", "occu": 1}], "abc": [0.74996556, 0.68290848, 0.22251152000000002], "xyz": [4.6131821529475205, 7.969393770459841, 10.01805294565152], "label": "O", "properties": {}}, {"species": [{"element": "O", "occu": 1}], "abc": [0.7500444, 0.13900687, 0.24669229], "xyz": [4.613667112924801, 1.6221800084092102, 11.10673470975354], "label": "O", "properties": {}}, {"species": [{"element": "O", "occu": 1}], "abc": [0.24983292, 0.03767552, 0.20474653], "xyz": [1.53677025884064, 0.43966514281216, 9.218226444987781], "label": "O", "properties": {}}, {"species": [{"element": "O", "occu": 1}], "abc": [0.45782878, 0.14494534, 0.38160773], "xyz": [2.81619272890576, 1.6914806646612202, 17.18098210649898], "label": "O", "properties": {}}, {"species": [{"element": "O", "occu": 1}], "abc": [0.54490955, 0.4797623, 0.37274131], "xyz": [3.3518432646835996, 5.5987219325809, 16.78179259488006], "label": "O", "properties": {}}, {"species": [{"element": "O", "occu": 1}], "abc": [0.54301839, 0.08982814, 0.31245734999999997], "xyz": [3.3402103764208797, 1.04827490109362, 14.0676504100011], "label": "O", "properties": {}}, {"species": [{"element": "O", "occu": 1}], "abc": [0.45745352, 0.7203069, 0.33918181], "xyz": [2.81388443259584, 8.4058252164027, 15.27085577763306], "label": "O", "properties": {}}, {"species": [{"element": "O", "occu": 1}], "abc": [0.04376641, 0.7198355, 0.33906201999999996], "xyz": [0.26921559106072, 8.4003240806965, 15.265462517264519], "label": "O", "properties": {}}, {"species": [{"element": "O", "occu": 1}], "abc": [0.95732488, 0.08998818, 0.31236764], "xyz": [5.88868914325696, 1.05014253316494, 14.063611430222641], "label": "O", "properties": {}}, {"species": [{"element": "O", "occu": 1}], "abc": [0.95787087, 0.47922131, 0.37266906], "xyz": [5.89204763257704, 5.59240869667573, 16.77853971015156], "label": "O", "properties": {}}, {"species": [{"element": "O", "occu": 1}], "abc": [0.04481067, 0.14528778, 0.38145288], "xyz": [0.27563903481864, 1.6954768651517402, 17.17401035286288], "label": "O", "properties": {}}, {"species": [{"element": "O", "occu": 1}], "abc": [0.7504863, 0.30865346, 0.35144669], "xyz": [4.616385324669601, 3.60191890039918, 15.823052882807941], "label": "O", "properties": {}}, {"species": [{"element": "O", "occu": 1}], "abc": [0.25165916, 0.50116415, 0.30098708999999996], "xyz": [1.54800381171872, 5.848476877879451, 13.55122918389834], "label": "O", "properties": {}}, {"species": [{"element": "O", "occu": 1}], "abc": [0.24946858, 0.88892233, 0.36097609999999997], "xyz": [1.5345291335473599, 10.37353069495439, 16.2520919452386], "label": "O", "properties": {}}, {"species": [{"element": "O", "occu": 1}], "abc": [0.75245294, 0.7361443, 0.39016985], "xyz": [4.62848250490448, 8.5906442376869, 17.5664712330261], "label": "O", "properties": {}}, {"species": [{"element": "O", "occu": 1}], "abc": [0.25086568, 0.31139613, 0.32926636], "xyz": [1.54312296389056, 3.63392526413979, 14.82443618066136], "label": "O", "properties": {}}, {"species": [{"element": "O", "occu": 1}], "abc": [0.75116495, 0.49927555, 0.32390102], "xyz": [4.6205598311204, 5.82643732570565, 14.58287448447852], "label": "O", "properties": {}}, {"species": [{"element": "O", "occu": 1}], "abc": [0.75075706, 0.95573794, 0.34676348999999995], "xyz": [4.61805082141552, 11.15325436466702, 15.612202920724739], "label": "O", "properties": {}}, {"species": [{"element": "O", "occu": 1}], "abc": [0.25041292, 0.85512671, 0.3049676], "xyz": [1.5403379502006398, 9.97914314320393, 13.7304421969176], "label": "O", "properties": {}}, {"species": [{"element": "O", "occu": 1}], "abc": [0.4545384, 0.95768815, 0.48024883999999995], "xyz": [2.7959529697728, 11.17601289217145, 21.62206391025384], "label": "O", "properties": {}}, {"species": [{"element": "O", "occu": 1}], "abc": [0.54669923, 0.30332196, 0.47179937], "xyz": [3.3628519299821598, 3.5397014523346804, 21.24164658254562], "label": "O", "properties": {}}, {"species": [{"element": "O", "occu": 1}], "abc": [0.54322202, 0.90646725, 0.41163395999999997], "xyz": [3.34146294364784, 10.57827610410675, 18.53284182997896], "label": "O", "properties": {}}, {"species": [{"element": "O", "occu": 1}], "abc": [0.45516839, 0.54081955, 0.4438972], "xyz": [2.79982815922088, 6.311246790657651, 19.9854176180472], "label": "O", "properties": {}}, {"species": [{"element": "O", "occu": 1}], "abc": [0.04074527, 0.5399255, 0.44343748], "xyz": [0.25063197886184, 6.3008134211665, 19.96471981642248], "label": "O", "properties": {}}, {"species": [{"element": "O", "occu": 1}], "abc": [0.95890064, 0.90666657, 0.41251413], "xyz": [5.89838194556288, 10.58060212525431, 18.57246939470538], "label": "O", "properties": {}}, {"species": [{"element": "O", "occu": 1}], "abc": [0.96386759, 0.30108599, 0.47153896], "xyz": [5.92893460866728, 3.5136081676401707, 21.229922240508962], "label": "O", "properties": {}}, {"species": [{"element": "O", "occu": 1}], "abc": [0.03358841, 0.95502956, 0.48759318999999995], "xyz": [0.20660875888472, 11.144987723785482, 21.95272583351694], "label": "O", "properties": {}}, {"species": [{"element": "O", "occu": 1}], "abc": [0.75165121, 0.12690815, 0.45296548], "xyz": [4.62355090974232, 1.48099057143145, 20.39369539695048], "label": "O", "properties": {}}, {"species": [{"element": "O", "occu": 1}], "abc": [0.25200601, 0.31687341, 0.40178238], "xyz": [1.55013735266392, 3.6978439331700304, 18.08929782812988], "label": "O", "properties": {}}, {"species": [{"element": "O", "occu": 1}], "abc": [0.24390545, 0.72216179, 0.4573848], "xyz": [1.5003092527964, 8.427471380191571, 20.5926647884848], "label": "O", "properties": {}}, {"species": [{"element": "O", "occu": 1}], "abc": [0.75682628, 0.52739716, 0.50715051], "xyz": [4.65538375892576, 6.154610412016281, 22.83324773743926], "label": "O", "properties": {}}, {"species": [{"element": "O", "occu": 1}], "abc": [0.24968152, 0.12756123, 0.43049541999999996], "xyz": [1.5358389683718399, 1.48861187331309, 19.382034289372918], "label": "O", "properties": {}}, {"species": [{"element": "O", "occu": 1}], "abc": [0.75257351, 0.3136259, 0.42345833], "xyz": [4.62922415412392, 3.6599461961797, 19.06520601817458], "label": "O", "properties": {}}, {"species": [{"element": "O", "occu": 1}], "abc": [0.7482767, 0.77146191, 0.44537962999999997], "xyz": [4.6027936508264, 9.00279308246553, 20.05216050950838], "label": "O", "properties": {}}, {"species": [{"element": "O", "occu": 1}], "abc": [0.25042661, 0.65741871, 0.40448017999999997], "xyz": [1.54042216001912, 7.67193368583993, 18.210759868552678], "label": "O", "properties": {}}, {"species": [{"element": "O", "occu": 1}], "abc": [0.53554861, 0.70859462, 0.50412153], "xyz": [3.29426232544312, 8.26914545036746, 22.69687510373778], "label": "O", "properties": {}}, {"species": [{"element": "O", "occu": 1}], "abc": [0.95426778, 0.71578459, 0.50627661], "xyz": [5.86988433419376, 8.353050840043972, 22.79390246457786], "label": "O", "properties": {}}, {"species": [{"element": "O", "occu": 1}], "abc": [0.26821136, 0.11708969, 0.50821947], "xyz": [1.6498195719411202, 1.36641127383727, 22.881375123728223], "label": "O", "properties": {}}, {"species": [{"element": "O", "occu": 1}], "abc": [0.28222688, 0.90876529, 0.53002602], "xyz": [1.7360317264409602, 10.60509373223207, 23.86316326872852], "label": "O", "properties": {}}, {"species": [{"element": "O", "occu": 1}], "abc": [0.72467748, 0.68254093, 0.55142542], "xyz": [4.45763031755616, 7.965104541718191, 24.826620451552923], "label": "O", "properties": {}}]}, "formula": "(Li3PO4)20.0", "bandgap": 4.2416, "slab_thickness": 24.822118188952924}