{"miller": "110_0.40", "final_energy": -1000.2324615, "gamma": 0.03864374246288039, "work_function": 5.361363664873828, "ionization_potentail": -5.680363664873827, "electron_affinity": -1.0765636648738273, "is_stochiometric": true, "incar_parameters": {"SYSTEM": "unknown system", "LCOMPAT": false, "PREC": "normal", "ENMAX": 520.0, "ENAUG": 628.945, "EDIFF": 1e-05, "IALGO": 38, "IWAVPR": 11, "NBANDS": 462, "NBANDSLOW": -1, "NBANDSHIGH": -1, "NELECT": 760.0, "TURBO": 0, "IRESTART": 0, "NREBOOT": 0, "NMIN": 0, "EREF": 0.0, "ISMEAR": 0, "SIGMA": 0.05, "KSPACING": 0.5, "KGAMMA": true, "KBLOWUP": true, "LREAL": true, "ROPT": [-0.0005, -0.0005, -0.0005], "LMAXPAW": -100, "LMAXMIX": 2, "NLSPLINE": false, "ISTART": 0, "ICHARG": 2, "INIWAV": 1, "ISPIN": 1, "LNONCOLLINEAR": false, "MAGMOM": [0.6, 0.6, 0.6, 0.6, 0.6, 0.6, 0.6, 0.6, 0.6, 0.6, 0.6, 0.6, 0.6, 0.6, 0.6, 0.6, 0.6, 0.6, 0.6, 0.6, 0.6, 0.6, 0.6, 0.6, 0.6, 0.6, 0.6, 0.6, 0.6, 0.6, 0.6, 0.6, 0.6, 0.6, 0.6, 0.6, 0.6, 0.6, 0.6, 0.6, 0.6, 0.6, 0.6, 0.6, 0.6, 0.6, 0.6, 0.6, 0.6, 0.6, 0.6, 0.6, 0.6, 0.6, 0.6, 0.6, 0.6, 0.6, 0.6, 0.6, 0.6, 0.6, 0.6, 0.6, 0.6, 0.6, 0.6, 0.6, 0.6, 0.6, 0.6, 0.6, 0.6, 0.6, 0.6, 0.6, 0.6, 0.6, 0.6, 0.6, 0.6, 0.6, 0.6, 0.6, 0.6, 0.6, 0.6, 0.6, 0.6, 0.6, 0.6, 0.6, 0.6, 0.6, 0.6, 0.6, 0.6, 0.6, 0.6, 0.6, 0.6, 0.6, 0.6, 0.6, 0.6, 0.6, 0.6, 0.6, 0.6, 0.6, 0.6, 0.6, 0.6, 0.6, 0.6, 0.6, 0.6, 0.6, 0.6, 0.6, 0.6, 0.6, 0.6, 0.6, 0.6, 0.6, 0.6, 0.6, 0.6, 0.6, 0.6, 0.6, 0.6, 0.6, 0.6, 0.6, 0.6, 0.6, 0.6, 0.6, 0.6, 0.6, 0.6, 0.6, 0.6, 0.6, 0.6, 0.6, 0.6, 0.6, 0.6, 0.6, 0.6, 0.6, 0.6, 0.6, 0.6, 0.6, 0.6, 0.6], "NUPDOWN": -1.0, "LSORBIT": false, "SAXIS": [0.0, 0.0, 1.0], "LSPIRAL": false, "QSPIRAL": [0.0, 0.0, 0.0], "LZEROZ": false, "LASPH": false, "LMETAGGA": false, "NELM": 100, "NELMDL": -5, "NELMIN": 6, "ENINI": 520.0, "LDIAG": true, "LSUBROT": false, "WEIMIN": 0.001, "EBREAK": 1e-08, "DEPER": 0.3, "NRMM": 4, "TIME": 0.4, "AMIX": 0.4, "BMIX": 1.0, "AMIN": 0.1, "AMIX_MAG": 1.6, "BMIX_MAG": 1.0, "IMIX": 4, "MIXFIRST": false, "MAXMIX": -45, "WC": 100.0, "INIMIX": 1, "MIXPRE": 1, "MREMOVE": 5, "LDIPOL": false, "LMONO": false, "IDIPOL": 0, "EPSILON": 1.0, "DIPOL": [-100.0, -100.0, -100.0], "EFIELD": 0.0, "NGX": 60, "NGY": 48, "NGZ": 240, "NGXF": 120, "NGYF": 96, "NGZF": 480, "ADDGRID": false, "NSW": 150, "IBRION": 2, "MDALGO": 0, "ISIF": 2, "PSTRESS": 0.0, "EDIFFG": -0.01, "NFREE": 1, "POTIM": 0.5, "SMASS": -3.0, "SCALEE": 1.0, "TEBEG": 0.0001, "TEEND": 0.0001, "NBLOCK": 1, "KBLOCK": 150, "NPACO": 256, "APACO": 10.0, "ISYM": 0, "SYMPREC": 1e-05, "LORBIT": 11, "RWIGS": [-1.0, -1.0, -1.0], "NEDOS": 301, "EMIN": 10.0, "EMAX": -10.0, "EFERMI": 0.0, "NWRITE": 2, "LWAVE": false, "LDOWNSAMPLE": false, "LCHARG": false, "LPARD": false, "LVTOT": false, "LVHAR": false, "LELF": false, "LOPTICS": false, "STM": [0.0, 0.0, 0.0, 0.0, 0.0, 0.0, 0.0], "NPAR": 2, "NSIM": 4, "NBLK": -1, "LPLANE": true, "LSCALAPACK": true, "LSCAAWARE": false, "LSCALU": false, "LASYNC": false, "LORBITALREAL": false, "IDIOT": 3, "PHON_NSTRUCT": -1, "LMUSIC": false, "POMASS": [7.01, 30.974, 16.0], "DARWINR": [0.0, 0.0, 0.0], "DARWINV": [1.0, 1.0, 1.0], "LCORR": true, "GGA_COMPAT": true, "LBERRY": false, "ICORELEVEL": 0, "LDAU": false, "I_CONSTRAINED_M": 0, "GGA": "--", "VOSKOWN": 0, "LHFCALC": false, "PRECFOCK": "", "LSYMGRAD": false, "LHFONE": false, "LRHFCALC": false, "LTHOMAS": false, "LMODELHF": false, "LFOCKACE": false, "ENCUT4O": -1.0, "EXXOEP": 0, "FOURORBIT": 0, "AEXX": 0.0, "HFALPHA": 0.0, "MCALPHA": 0.0, "ALDAX": 1.0, "AGGAX": 1.0, "ALDAC": 1.0, "AGGAC": 1.0, "NKREDX": 1, "NKREDY": 1, "NKREDZ": 1, "SHIFTRED": false, "ODDONLY": false, "EVENONLY": false, "LMAXFOCK": 0, "NMAXFOCKAE": 0, "LFOCKAEDFT": false, "HFSCREEN": 0.0, "HFSCREENC": 0.0, "NBANDSGWLOW": 0, "LUSE_VDW": false, "Zab_VDW": -0.8491, "PARAM1": 0.1234, "PARAM2": 1.0, "PARAM3": 0.0, "MODEL_GW": 0, "MODEL_EPS0": 13.33143161, "MODEL_ALPHA": 1.0, "LEPSILON": false, "LRPA": false, "LNABLA": false, "LVEL": false, "CSHIFT": 0.1, "OMEGAMAX": -1.0, "DEG_THRESHOLD": 0.002, "RTIME": -0.1, "WPLASMAI": 0.0, "DFIELD": [0.0, 0.0, 0.0], "WPLASMA": [0.0, 0.0, 0.0, 0.0, 0.0, 0.0, 0.0, 0.0, 0.0], "NUCIND": false, "MAGPOS": [0.0, 0.0, 0.0], "LNICSALL": true, "ORBITALMAG": false, "LMAGBLOCH": false, "LCHIMAG": false, "LGAUGE": true, "MAGATOM": 0, "MAGDIPOL": [0.0, 0.0, 0.0], "AVECCONST": [0.0, 0.0, 0.0], "LFINITE_TEMPERATURE": false, "LADDER": false, "LRPAFORCE": false, "LFXC": false, "LHARTREE": true, "IBSE": 0, "KPOINT": [-1, 0, 0, 0], "LTCTC": false, "LTCTE": false, "LTETE": false, "LTRIPLET": false, "LFXCEPS": false, "LFXHEG": false, "NATURALO": 2, "LHOLEGF": false, "L2ORDER": false, "LDMP1": false, "LMP2LT": false, "LSMP2LT": false, "LGWLF": false, "ENCUTGW": -2.0, "ENCUTGWSOFT": -2.0, "ENCUTLF": -1.0, "LESF_SPLINES": false, "LMAXMP2": -1, "SCISSOR": 0.0, "NOMEGA": 0, "NOMEGAR": 0, "NBANDSGW": -1, "NBANDSO": -1, "NBANDSV": -1, "NELMGW": 1, "NELMHF": 1, "DIM": 3, "IESPILON": 4, "ANTIRES": 0, "OMEGAMIN": -30.0, "OMEGATL": -200.0, "OMEGAGRID": 0, "LSELFENERGY": false, "LSPECTRAL": false, "LSPECTRALGW": false, "LSINGLES": false, "LFERMIGW": false, "ODDONLYGW": false, "EVENONLYGW": false, "NKREDLFX": 1, "NKREDLFY": 1, "NKREDLFZ": 1, "MAXMEM": 2800, "TELESCOPE": 0, "NTAUPAR": -1, "NOMEGAPAR": -1, "DAMP_NEWTON": 0.80000001, "LAMBDA": 1.0, "OFIELD_KAPPA": 0.0, "OFIELD_K": [0.0, 0.0, 0.0], "OFIELD_Q6_NEAR": 0.0, "OFIELD_Q6_FAR": 0.0, "OFIELD_A": 0.0, "KPOINTS_OPT_MODE": 1, "LKPOINTS_OPT": false, "@module": "pymatgen.io.vasp.inputs", "@class": "Incar"}, "relaxed_structures": {"@module": "pymatgen.core.structure", "@class": "Structure", "charge": 0, "lattice": {"matrix": [[10.554851, 0.0, 0.0], [0.0, 7.913034, 0.0], [0.0, 0.0, 42.564779]], "a": 10.554851, "b": 7.913034, "c": 42.564779, "alpha": 90.0, "beta": 90.0, "gamma": 90.0, "volume": 3555.0484302332534}, "sites": [{"species": [{"element": "Li", "occu": 1}], "abc": [0.83512342, 0.13975706, 0.02082131000000001], "xyz": [8.814603264710419, 1.10590236752004, 0.8862544586404905], "label": "Li", "properties": {}}, {"species": [{"element": "Li", "occu": 1}], "abc": [0.33256512, 0.17111854, 0.010843760000000008], "xyz": [3.51017528939712, 1.35406682505036, 0.4615622479290403], "label": "Li", "properties": {}}, {"species": [{"element": "Li", "occu": 1}], "abc": [0.66485292, 0.63978955, 0.02081828000000001], "xyz": [7.017423507514919, 5.0626764619947, 0.8861254873601204], "label": "Li", "properties": {}}, {"species": [{"element": "Li", "occu": 1}], "abc": [0.16739803, 0.67111272, 0.010842260000000006], "xyz": [1.76686126434353, 5.31053777119248, 0.4614984007605403], "label": "Li", "properties": {}}, {"species": [{"element": "Li", "occu": 1}], "abc": [0.91977245, 0.50332581, 0.0007366900000000121], "xyz": [9.70806116365495, 3.98283424760754, 0.031357047041510516], "label": "Li", "properties": {}}, {"species": [{"element": "Li", "occu": 1}], "abc": [0.57998304, 0.00292716, 0.0007214700000000018], "xyz": [6.12163456972704, 0.02316271660344, 0.03070921110513008], "label": "Li", "properties": {}}, {"species": [{"element": "Li", "occu": 1}], "abc": [0.15986134, 0.98556181, 0.05061557000000001], "xyz": [1.6873126243603398, 7.79878411163154, 2.1544405510090305], "label": "Li", "properties": {}}, {"species": [{"element": "Li", "occu": 1}], "abc": [0.83510201, 0.74453727, 0.10879031], "xyz": [8.814377285350508, 5.89154873177718, 4.63063550249149], "label": "Li", "properties": {}}, {"species": [{"element": "Li", "occu": 1}], "abc": [0.33605602, 0.7886311, 0.09721748], "xyz": [3.5470212187530197, 6.2404647077574, 4.13804055113692], "label": "Li", "properties": {}}, {"species": [{"element": "Li", "occu": 1}], "abc": [0.66624718, 0.94326119, 0.06411851000000002], "xyz": [7.03213971407018, 7.464057867350459, 2.7291902079592907], "label": "Li", "properties": {}}, {"species": [{"element": "Li", "occu": 1}], "abc": [0.66495491, 0.2445803, 0.10878127000000001], "xyz": [7.018499996768409, 1.9353722296301998, 4.63025071688933], "label": "Li", "properties": {}}, {"species": [{"element": "Li", "occu": 1}], "abc": [0.34011175, 0.48552728, 0.0506192], "xyz": [3.5898288445992494, 3.8419938745675197, 2.1545950611568], "label": "Li", "properties": {}}, {"species": [{"element": "Li", "occu": 1}], "abc": [0.83377295, 0.44326653, 0.06412280000000001], "xyz": [8.80034925508045, 3.5075831229520196, 2.7293728108612005], "label": "Li", "properties": {}}, {"species": [{"element": "Li", "occu": 1}], "abc": [0.16392692, 0.2887423, 0.09721579], "xyz": [1.73022421548892, 2.2848276371382, 4.13796861666041], "label": "Li", "properties": {}}, {"species": [{"element": "Li", "occu": 1}], "abc": [0.07352685, 0.60197987, 0.08458286000000001], "xyz": [0.77606494624935, 4.76348717862558, 3.6002507430879405], "label": "Li", "properties": {}}, {"species": [{"element": "Li", "occu": 1}], "abc": [0.92617792, 0.13100523, 0.07723331], "xyz": [9.77566994508992, 1.03664883916782, 3.28741877158849], "label": "Li", "properties": {}}, {"species": [{"element": "Li", "occu": 1}], "abc": [0.42672226, 0.10207862, 0.08449408], "xyz": [4.50398987268326, 0.8077515907330799, 3.59647184200832], "label": "Li", "properties": {}}, {"species": [{"element": "Li", "occu": 1}], "abc": [0.57380636, 0.63094245, 0.07723216], "xyz": [6.056440632652359, 4.9926690588933, 3.2873698220926397], "label": "Li", "properties": {}}, {"species": [{"element": "Li", "occu": 1}], "abc": [0.16376641, 0.59128729, 0.14426834], "xyz": [1.72853005635491, 4.67887642953786, 6.14075000879686], "label": "Li", "properties": {}}, {"species": [{"element": "Li", "occu": 1}], "abc": [0.83721102, 0.34840882, 0.19920155], "xyz": [8.83663757165802, 2.75697083855988, 8.47896995220745], "label": "Li", "properties": {}}, {"species": [{"element": "Li", "occu": 1}], "abc": [0.33599426, 0.39010101, 0.18953628], "xyz": [3.54636935115526, 3.08688255556434, 8.06756987068212], "label": "Li", "properties": {}}, {"species": [{"element": "Li", "occu": 1}], "abc": [0.66263234, 0.54887127, 0.15424374000000002], "xyz": [6.99398561648134, 4.34323702113318, 6.565350705233461], "label": "Li", "properties": {}}, {"species": [{"element": "Li", "occu": 1}], "abc": [0.66279864, 0.84839566, 0.19919409], "xyz": [6.995740888202639, 6.71338370303244, 8.47865241895611], "label": "Li", "properties": {}}, {"species": [{"element": "Li", "occu": 1}], "abc": [0.33602513, 0.09077378, 0.14414692], "xyz": [3.5466951794056296, 0.71829600744852, 6.13558179333068], "label": "Li", "properties": {}}, {"species": [{"element": "Li", "occu": 1}], "abc": [0.83736327, 0.04888118, 0.15423481], "xyz": [8.83824454772277, 0.38679843930012003, 6.564970601756991], "label": "Li", "properties": {}}, {"species": [{"element": "Li", "occu": 1}], "abc": [0.16400877, 0.89016419, 0.18954344], "xyz": [1.73108813004327, 7.04389950105246, 8.067874634499761], "label": "Li", "properties": {}}, {"species": [{"element": "Li", "occu": 1}], "abc": [0.07521759, 0.19998013, 0.17605208], "xyz": [0.79391045502909, 1.58244956801442, 7.49361787769032], "label": "Li", "properties": {}}, {"species": [{"element": "Li", "occu": 1}], "abc": [0.92552858, 0.73800141, 0.16755288000000002], "xyz": [9.76881625814158, 5.83983024937794, 7.131851308013521], "label": "Li", "properties": {}}, {"species": [{"element": "Li", "occu": 1}], "abc": [0.42480515, 0.69995213, 0.17605010000000001], "xyz": [4.48375506228265, 5.53874500306242, 7.493533599427901], "label": "Li", "properties": {}}, {"species": [{"element": "Li", "occu": 1}], "abc": [0.57437868, 0.23792645, 0.16751725], "xyz": [6.06248138497668, 1.8827200883493, 7.13033472493775], "label": "Li", "properties": {}}, {"species": [{"element": "Li", "occu": 1}], "abc": [0.1629824, 0.19392783, 0.23571839], "xyz": [1.7202549476223998, 1.5345575123362198, 10.03330117658581], "label": "Li", "properties": {}}, {"species": [{"element": "Li", "occu": 1}], "abc": [0.83569216, 0.95117642, 0.2910047], "xyz": [8.82060623066816, 7.52669135145828, 12.386550743461301], "label": "Li", "properties": {}}, {"species": [{"element": "Li", "occu": 1}], "abc": [0.33725619, 0.99344549, 0.28092572], "xyz": [3.55968883427769, 7.86116793951666, 11.95754118721588], "label": "Li", "properties": {}}, {"species": [{"element": "Li", "occu": 1}], "abc": [0.66352904, 0.15236703, 0.24543036000000001], "xyz": [7.003450151373039, 1.2056854888690198, 10.446689033290442], "label": "Li", "properties": {}}, {"species": [{"element": "Li", "occu": 1}], "abc": [0.6643043, 0.45117589, 0.29100409], "xyz": [7.011632905159299, 3.57017015755026, 12.38652477894611], "label": "Li", "properties": {}}, {"species": [{"element": "Li", "occu": 1}], "abc": [0.33703086, 0.69391331, 0.23571817], "xyz": [3.5573105097018596, 5.49095961508254, 10.033291812334431], "label": "Li", "properties": {}}, {"species": [{"element": "Li", "occu": 1}], "abc": [0.83650527, 0.65242605, 0.24545684], "xyz": [8.829188485564769, 5.1626695161357, 10.447816148638362], "label": "Li", "properties": {}}, {"species": [{"element": "Li", "occu": 1}], "abc": [0.16273845, 0.49345316, 0.28093101], "xyz": [1.71768009172095, 3.90471163248744, 11.957766354896789], "label": "Li", "properties": {}}, {"species": [{"element": "Li", "occu": 1}], "abc": [0.07439206, 0.80378656, 0.26758158], "xyz": [0.7851971088830599, 6.36039037802304, 11.38955081717082], "label": "Li", "properties": {}}, {"species": [{"element": "Li", "occu": 1}], "abc": [0.92436995, 0.34199891, 0.25881532], "xyz": [9.75658709112745, 2.70624900279294, 11.016416897614281], "label": "Li", "properties": {}}, {"species": [{"element": "Li", "occu": 1}], "abc": [0.42561807, 0.30378097, 0.26757551], "xyz": [4.49233531175757, 2.4038291441629798, 11.38929244896229], "label": "Li", "properties": {}}, {"species": [{"element": "Li", "occu": 1}], "abc": [0.57559884, 0.8420061, 0.25879995], "xyz": [6.075359991972839, 6.662822897507399, 11.015762676961051], "label": "Li", "properties": {}}, {"species": [{"element": "Li", "occu": 1}], "abc": [0.16559904, 0.79789047, 0.32631761], "xyz": [1.74787319294304, 6.31373441738598, 13.88963695345819], "label": "Li", "properties": {}}, {"species": [{"element": "Li", "occu": 1}], "abc": [0.84046699, 0.55996997, 0.38455511000000003], "xyz": [8.87100384986849, 4.43106141158898, 16.368503270470693], "label": "Li", "properties": {}}, {"species": [{"element": "Li", "occu": 1}], "abc": [0.33344308, 0.60062729, 0.37076768], "xyz": [3.5194420263810797, 4.75278416709786, 15.781644359542721], "label": "Li", "properties": {}}, {"species": [{"element": "Li", "occu": 1}], "abc": [0.66494491, 0.75429131, 0.33772927], "xyz": [7.01839444825841, 5.96873278193454, 14.37537173938133], "label": "Li", "properties": {}}, {"species": [{"element": "Li", "occu": 1}], "abc": [0.65947062, 0.05988599, 0.38454333], "xyz": [6.96061413297762, 0.47387987499365997, 16.36800185737407], "label": "Li", "properties": {}}, {"species": [{"element": "Li", "occu": 1}], "abc": [0.33440764, 0.29789487, 0.32629627], "xyz": [3.5296228134616396, 2.3572522347355798, 13.88872862107433], "label": "Li", "properties": {}}, {"species": [{"element": "Li", "occu": 1}], "abc": [0.83505613, 0.25429524, 0.33773257], "xyz": [8.81389302878663, 2.01224688015816, 14.37551220315203], "label": "Li", "properties": {}}, {"species": [{"element": "Li", "occu": 1}], "abc": [0.16669746, 0.10061592, 0.37076809], "xyz": [1.7594668523784598, 0.79617719590128, 15.78166181110211], "label": "Li", "properties": {}}, {"species": [{"element": "Li", "occu": 1}], "abc": [0.07339064, 0.41076708, 0.35776582], "xyz": [0.7746272699946398, 3.25041387012072, 15.22822306205378], "label": "Li", "properties": {}}, {"species": [{"element": "Li", "occu": 1}], "abc": [0.92684955, 0.9407727, 0.35096856], "xyz": [9.78275889966705, 7.4443663613718, 14.93889919234824], "label": "Li", "properties": {}}, {"species": [{"element": "Li", "occu": 1}], "abc": [0.42660041, 0.91074401, 0.35776243], "xyz": [4.50270376408891, 7.20674831642634, 15.22807876745297], "label": "Li", "properties": {}}, {"species": [{"element": "Li", "occu": 1}], "abc": [0.57319136, 0.44074006, 0.35096269], "xyz": [6.04994939928736, 3.4875910799420398, 14.938649337095512], "label": "Li", "properties": {}}, {"species": [{"element": "Li", "occu": 1}], "abc": [0.16285732, 0.40538731, 0.41481572], "xyz": [1.71893474685932, 3.2078435671985397, 17.65653944752588], "label": "Li", "properties": {}}, {"species": [{"element": "Li", "occu": 1}], "abc": [0.66718801, 0.37482838, 0.424554], "xyz": [7.04207003453651, 2.96602971510492, 18.071047183566], "label": "Li", "properties": {}}, {"species": [{"element": "Li", "occu": 1}], "abc": [0.33718523, 0.90541994, 0.41482153], "xyz": [3.55893986205073, 7.16461876949796, 17.65678674889187], "label": "Li", "properties": {}}, {"species": [{"element": "Li", "occu": 1}], "abc": [0.83286352, 0.87484502, 0.42455112], "xyz": [8.790750356935519, 6.92267838799068, 18.07092459700248], "label": "Li", "properties": {}}, {"species": [{"element": "Li", "occu": 1}], "abc": [0.08190658, 0.04183358, 0.43376750000000003], "xyz": [0.8645117478195801, 0.33103054088172, 18.4632177748825], "label": "Li", "properties": {}}, {"species": [{"element": "Li", "occu": 1}], "abc": [0.41808266, 0.5418215, 0.43376288], "xyz": [4.41280018198366, 4.287451951431, 18.46302112560352], "label": "Li", "properties": {}}, {"species": [{"element": "P", "occu": 1}], "abc": [0.09156574, 0.34163433, 0.028684900000000013], "xyz": [0.9664627424047401, 2.7033640688572196, 1.2209664291371005], "label": "P", "properties": {}}, {"species": [{"element": "P", "occu": 1}], "abc": [0.91052525, 0.78587309, 0.040638060000000004], "xyz": [9.610458345487748, 6.21864048085506, 1.7297500428887402], "label": "P", "properties": {}}, {"species": [{"element": "P", "occu": 1}], "abc": [0.40831711, 0.84154285, 0.02869564000000001], "xyz": [4.30972625680061, 6.659157184506899, 1.2214235748635605], "label": "P", "properties": {}}, {"species": [{"element": "P", "occu": 1}], "abc": [0.58949249, 0.28580859, 0.040612670000000003], "xyz": [6.22200539756899, 2.2616130901620597, 1.7286693231499302], "label": "P", "properties": {}}, {"species": [{"element": "P", "occu": 1}], "abc": [0.08908548, 0.94078894, 0.12076181], "xyz": [0.9402839676634799, 7.44449486904396, 5.14019975428999], "label": "P", "properties": {}}, {"species": [{"element": "P", "occu": 1}], "abc": [0.91234254, 0.39509472, 0.13148228], "xyz": [9.62963957066154, 3.12639795258048, 5.59651419061612], "label": "P", "properties": {}}, {"species": [{"element": "P", "occu": 1}], "abc": [0.41083716, 0.44075656, 0.12076922000000001], "xyz": [4.3363250090631595, 3.48772164500304, 5.140515159302381], "label": "P", "properties": {}}, {"species": [{"element": "P", "occu": 1}], "abc": [0.58770994, 0.89500309, 0.13144302000000002], "xyz": [6.20319084791894, 7.08218988127506, 5.594843097392581], "label": "P", "properties": {}}, {"species": [{"element": "P", "occu": 1}], "abc": [0.08872397, 0.54361857, 0.21238298], "xyz": [0.9364682834784699, 4.30167222744138, 9.04003460706142], "label": "P", "properties": {}}, {"species": [{"element": "P", "occu": 1}], "abc": [0.91121247, 0.99846189, 0.22273679000000002], "xyz": [9.61771185019197, 7.900862883274259, 9.480742241519412], "label": "P", "properties": {}}, {"species": [{"element": "P", "occu": 1}], "abc": [0.41129845, 0.04354905, 0.21234735999999999], "xyz": [4.34119385628095, 0.3446051133177, 9.03851844963344], "label": "P", "properties": {}}, {"species": [{"element": "P", "occu": 1}], "abc": [0.58881087, 0.49841943, 0.22273242], "xyz": [6.21481100003037, 3.94400989585062, 9.48055623343518], "label": "P", "properties": {}}, {"species": [{"element": "P", "occu": 1}], "abc": [0.08729404, 0.1474339, 0.30359185], "xyz": [0.92137558538804, 1.1666494634526, 12.92232000145115], "label": "P", "properties": {}}, {"species": [{"element": "P", "occu": 1}], "abc": [0.91110667, 0.60176373, 0.31437816], "xyz": [9.61659514695617, 4.76177685545682, 13.381436902826641], "label": "P", "properties": {}}, {"species": [{"element": "P", "occu": 1}], "abc": [0.41270975, 0.64739202, 0.30358701], "xyz": [4.35608991749725, 5.12283506558868, 12.92211398792079], "label": "P", "properties": {}}, {"species": [{"element": "P", "occu": 1}], "abc": [0.58889475, 0.10172776, 0.31436793], "xyz": [6.21569634093225, 0.80497522362384, 13.381001465137471], "label": "P", "properties": {}}, {"species": [{"element": "P", "occu": 1}], "abc": [0.09016122, 0.75869456, 0.39445441000000003], "xyz": [0.95163824307822, 6.00357584889504, 16.78986478722539], "label": "P", "properties": {}}, {"species": [{"element": "P", "occu": 1}], "abc": [0.90853483, 0.20344859, 0.40650852], "xyz": [9.58944975896033, 1.60989560992206, 17.30294531541708], "label": "P", "properties": {}}, {"species": [{"element": "P", "occu": 1}], "abc": [0.40994652, 0.25871278, 0.39442997], "xyz": [4.326924436568519, 2.04720302437452, 16.788824504026632], "label": "P", "properties": {}}, {"species": [{"element": "P", "occu": 1}], "abc": [0.59146155, 0.70341943, 0.40650675000000003], "xyz": [6.242788532479049, 5.566181865850619, 17.302869975758252], "label": "P", "properties": {}}, {"species": [{"element": "O", "occu": 1}], "abc": [0.16002629, 0.17495018, 0.021985510000000014], "xyz": [1.6890536470327897, 1.38438672264612, 0.9358083743522906], "label": "O", "properties": {}}, {"species": [{"element": "O", "occu": 1}], "abc": [0.66426389, 0.19992378, 0.01312487000000001], "xyz": [7.011206383630389, 1.58200366854852, 0.5586571909537305], "label": "O", "properties": {}}, {"species": [{"element": "O", "occu": 1}], "abc": [0.33991293, 0.67482492, 0.02199629], "xyz": [3.58773032912343, 5.33991253600728, 0.9362672226699101], "label": "O", "properties": {}}, {"species": [{"element": "O", "occu": 1}], "abc": [0.83561205, 0.70015357, 0.013152300000000006], "xyz": [8.81976068155455, 5.54033900463138, 0.5598247428417003], "label": "O", "properties": {}}, {"species": [{"element": "O", "occu": 1}], "abc": [0.09232147, 0.4632764, 0.00010000000000000286], "xyz": [0.97443935995097, 3.6659219045975995, 0.004256477900000122], "label": "O", "properties": {}}, {"species": [{"element": "O", "occu": 1}], "abc": [0.40741589, 0.96319126, 0.00011116000000001292], "xyz": [4.30021401398239, 7.62176518888284, 0.00473150083364055], "label": "O", "properties": {}}, {"species": [{"element": "O", "occu": 1}], "abc": [0.15915061, 0.77484287, 0.11145687000000001], "xyz": [1.67981097510911, 6.131357974967579, 4.744137039581731], "label": "O", "properties": {}}, {"species": [{"element": "O", "occu": 1}], "abc": [0.84376102, 0.95662135, 0.04937098000000001], "xyz": [8.905771845708019, 7.5697772676759, 2.1014648527134203], "label": "O", "properties": {}}, {"species": [{"element": "O", "occu": 1}], "abc": [0.34622587, 0.92935237, 0.05780785000000001], "xyz": [3.6543624701953696, 7.35399690179058, 2.4605783597151505], "label": "O", "properties": {}}, {"species": [{"element": "O", "occu": 1}], "abc": [0.6572079, 0.80956741, 0.10311326000000001], "xyz": [6.936731460522899, 6.40613444062194, 4.3889931238695405], "label": "O", "properties": {}}, {"species": [{"element": "O", "occu": 1}], "abc": [0.65630017, 0.45657181, 0.04932501], "xyz": [6.927150505624669, 3.61286825597154, 2.0995081498227903], "label": "O", "properties": {}}, {"species": [{"element": "O", "occu": 1}], "abc": [0.34084543, 0.2747837, 0.11144264000000001], "xyz": [3.5975727276809297, 2.1743727607458, 4.743531342776561], "label": "O", "properties": {}}, {"species": [{"element": "O", "occu": 1}], "abc": [0.84286305, 0.30970261, 0.10313816], "xyz": [8.896293906155549, 2.45068728281874, 4.390052986866641], "label": "O", "properties": {}}, {"species": [{"element": "O", "occu": 1}], "abc": [0.15372999, 0.42942005, 0.057796660000000014], "xyz": [1.62259713868149, 3.3980154559317, 2.4601020598381407], "label": "O", "properties": {}}, {"species": [{"element": "O", "occu": 1}], "abc": [0.04997542, 0.81518174, 0.031830020000000014], "xyz": [0.5274831117624199, 6.45056082479916, 1.3548377668655807], "label": "O", "properties": {}}, {"species": [{"element": "O", "occu": 1}], "abc": [0.94529507, 0.30893169, 0.03571802], "xyz": [9.977448614884569, 2.4445869666474596, 1.5203296276175802], "label": "O", "properties": {}}, {"species": [{"element": "O", "occu": 1}], "abc": [0.45001111, 0.315139, 0.03183674], "xyz": [4.749800214394609, 2.493705621726, 1.3551238021804601], "label": "O", "properties": {}}, {"species": [{"element": "O", "occu": 1}], "abc": [0.55463761, 0.8089346, 0.03570377000000001], "xyz": [5.854117332546109, 6.4011269935763995, 1.5197230795168304], "label": "O", "properties": {}}, {"species": [{"element": "O", "occu": 1}], "abc": [0.08977241, 0.06412405, 0.09212610000000002], "xyz": [0.9475344114609099, 0.5074157878677, 3.921327086631901], "label": "O", "properties": {}}, {"species": [{"element": "O", "occu": 1}], "abc": [0.90297233, 0.66598603, 0.0698741], "xyz": [9.53073840027283, 5.26997009891502, 2.9741756243239], "label": "O", "properties": {}}, {"species": [{"element": "O", "occu": 1}], "abc": [0.41019471, 0.56405187, 0.09212616000000001], "xyz": [4.32954404503821, 4.4633616250735795, 3.921329640518641], "label": "O", "properties": {}}, {"species": [{"element": "O", "occu": 1}], "abc": [0.59715261, 0.16605208, 0.06986375], "xyz": [6.302856822811109, 1.3139757548107198, 2.97373507886125], "label": "O", "properties": {}}, {"species": [{"element": "O", "occu": 1}], "abc": [0.15876329, 0.37758995, 0.20294410000000002], "xyz": [1.67572287021979, 2.9878821124083, 8.638270765853902], "label": "O", "properties": {}}, {"species": [{"element": "O", "occu": 1}], "abc": [0.84072289, 0.55991903, 0.14094832000000002], "xyz": [8.873704836239389, 4.4306583216370194, 5.999434091221281], "label": "O", "properties": {}}, {"species": [{"element": "O", "occu": 1}], "abc": [0.3412457, 0.52474214, 0.14910053], "xyz": [3.6017975178906996, 4.15230239505276, 6.346431108232871], "label": "O", "properties": {}}, {"species": [{"element": "O", "occu": 1}], "abc": [0.65883826, 0.4140474, 0.19448521000000002], "xyz": [6.9539396673992595, 3.2763711538116, 8.278219982418591], "label": "O", "properties": {}}, {"species": [{"element": "O", "occu": 1}], "abc": [0.65928985, 0.05988316, 0.14090783], "xyz": [6.958706132562349, 0.47385748110743997, 5.997710643319571], "label": "O", "properties": {}}, {"species": [{"element": "O", "occu": 1}], "abc": [0.34127263, 0.87744723, 0.20293852], "xyz": [3.60208176002813, 6.94326976419582, 8.63803325438708], "label": "O", "properties": {}}, {"species": [{"element": "O", "occu": 1}], "abc": [0.84117665, 0.9141146, 0.19448914], "xyz": [8.87849420542915, 7.2334199096964, 8.278387262000061], "label": "O", "properties": {}}, {"species": [{"element": "O", "occu": 1}], "abc": [0.1586362, 0.02472222, 0.14910376], "xyz": [1.6743814542061999, 0.19562776741548, 6.3465685924690405], "label": "O", "properties": {}}, {"species": [{"element": "O", "occu": 1}], "abc": [0.05071523, 0.43704357, 0.12198018000000002], "xyz": [0.53529169608073, 3.4583406288913796, 5.192059404080221], "label": "O", "properties": {}}, {"species": [{"element": "O", "occu": 1}], "abc": [0.94988707, 0.89973091, 0.13032812000000002], "xyz": [10.025916490676568, 7.11960128168094, 5.547387625285481], "label": "O", "properties": {}}, {"species": [{"element": "O", "occu": 1}], "abc": [0.44935844, 0.93688637, 0.12191617000000002], "xyz": [4.74291137979244, 7.41361369994658, 5.189334832576431], "label": "O", "properties": {}}, {"species": [{"element": "O", "occu": 1}], "abc": [0.55004267, 0.39976485, 0.13034241000000002], "xyz": [5.805618425492169, 3.1633528500549, 5.547995875977391], "label": "O", "properties": {}}, {"species": [{"element": "O", "occu": 1}], "abc": [0.08968127, 0.66745091, 0.18381829], "xyz": [0.9465724423407699, 5.28156174416094, 7.82418489000791], "label": "O", "properties": {}}, {"species": [{"element": "O", "occu": 1}], "abc": [0.91114405, 0.27080362, 0.15993294], "xyz": [9.61698968728655, 2.1428782523830803, 6.80751024592026], "label": "O", "properties": {}}, {"species": [{"element": "O", "occu": 1}], "abc": [0.41026277, 0.16721947, 0.18376182000000002], "xyz": [4.33026240819727, 1.32321335157198, 7.821781256937781], "label": "O", "properties": {}}, {"species": [{"element": "O", "occu": 1}], "abc": [0.58888132, 0.7708254, 0.1599119], "xyz": [6.21555458928332, 6.0995675982636, 6.8066146829701], "label": "O", "properties": {}}, {"species": [{"element": "O", "occu": 1}], "abc": [0.15898901, 0.98255893, 0.29417858], "xyz": [1.6781053111875097, 7.7750222200936205, 12.521646244233821], "label": "O", "properties": {}}, {"species": [{"element": "O", "occu": 1}], "abc": [0.84106773, 0.16454824, 0.23209753], "xyz": [8.877344571058229, 1.3020758177601601, 9.87918007089587], "label": "O", "properties": {}}, {"species": [{"element": "O", "occu": 1}], "abc": [0.34131074, 0.12768548, 0.24061897], "xyz": [3.60248400539974, 1.01037954454632, 10.24189328125763], "label": "O", "properties": {}}, {"species": [{"element": "O", "occu": 1}], "abc": [0.6583709, 0.01801024, 0.28598567], "xyz": [6.949006752235899, 0.14251564146816, 12.172916840716931], "label": "O", "properties": {}}, {"species": [{"element": "O", "occu": 1}], "abc": [0.65894149, 0.66453353, 0.23208795], "xyz": [6.9550292446679896, 5.25847641703002, 9.87877230031305], "label": "O", "properties": {}}, {"species": [{"element": "O", "occu": 1}], "abc": [0.34099232, 0.48254224, 0.29417738], "xyz": [3.59912312974432, 3.81837315155616, 12.52159516649902], "label": "O", "properties": {}}, {"species": [{"element": "O", "occu": 1}], "abc": [0.84160922, 0.51807111, 0.28599639], "xyz": [8.88305991732622, 4.099514307847739, 12.17337313514781], "label": "O", "properties": {}}, {"species": [{"element": "O", "occu": 1}], "abc": [0.15872743, 0.62769137, 0.24065242000000003], "xyz": [1.6753443732629298, 4.9669431523165795, 10.243317073115183], "label": "O", "properties": {}}, {"species": [{"element": "O", "occu": 1}], "abc": [0.05010947, 0.0394569, 0.21317349000000002], "xyz": [0.52889798953897, 0.31222379123460003, 9.07368249050871], "label": "O", "properties": {}}, {"species": [{"element": "O", "occu": 1}], "abc": [0.94977222, 0.50265175, 0.22188990000000003], "xyz": [10.024704266039219, 3.9775003879094997, 9.444694555832102], "label": "O", "properties": {}}, {"species": [{"element": "O", "occu": 1}], "abc": [0.44990607, 0.53939406, 0.21316921], "xyz": [4.748691532845569, 4.26824353617804, 9.07350031325459], "label": "O", "properties": {}}, {"species": [{"element": "O", "occu": 1}], "abc": [0.55026404, 0.0026412, 0.22185391], "xyz": [5.807954952858039, 0.020899905400799997, 9.44316264943589], "label": "O", "properties": {}}, {"species": [{"element": "O", "occu": 1}], "abc": [0.08855502, 0.2712523, 0.27505034], "xyz": [0.9346850414020199, 2.1464286724782, 11.70745693597486], "label": "O", "properties": {}}, {"species": [{"element": "O", "occu": 1}], "abc": [0.91038703, 0.87494327, 0.25133534], "xyz": [9.608999453982529, 6.92345584358118, 10.698033201989862], "label": "O", "properties": {}}, {"species": [{"element": "O", "occu": 1}], "abc": [0.41145786, 0.77122221, 0.2750475], "xyz": [4.34287640507886, 6.10270756928514, 11.7073360520025], "label": "O", "properties": {}}, {"species": [{"element": "O", "occu": 1}], "abc": [0.58966174, 0.37490805, 0.25133234], "xyz": [6.22379180610074, 2.9666601465237, 10.69790550765286], "label": "O", "properties": {}}, {"species": [{"element": "O", "occu": 1}], "abc": [0.15568685, 0.58709474, 0.38581833], "xyz": [1.6432515044093499, 4.645700638841159, 16.42227195059907], "label": "O", "properties": {}}, {"species": [{"element": "O", "occu": 1}], "abc": [0.84142794, 0.76805766, 0.32367193], "xyz": [8.881146533936938, 6.07766637754044, 13.77702416895347], "label": "O", "properties": {}}, {"species": [{"element": "O", "occu": 1}], "abc": [0.34310486, 0.73336478, 0.33185427], "xyz": [3.6214206746758597, 5.8031404385425205, 14.12530366275633], "label": "O", "properties": {}}, {"species": [{"element": "O", "occu": 1}], "abc": [0.65408293, 0.61537825, 0.37748667], "xyz": [6.903747867793429, 4.8695090151105, 16.067636683995932], "label": "O", "properties": {}}, {"species": [{"element": "O", "occu": 1}], "abc": [0.65859279, 0.26799045, 0.32366478], "xyz": [6.95134876812429, 2.1206175425253, 13.77671983078362], "label": "O", "properties": {}}, {"species": [{"element": "O", "occu": 1}], "abc": [0.34438264, 0.0871279, 0.38580135], "xyz": [3.63490745218664, 0.6894460350485999, 16.42154920065165], "label": "O", "properties": {}}, {"species": [{"element": "O", "occu": 1}], "abc": [0.84590445, 0.11537919, 0.37748872], "xyz": [8.92839542998695, 0.91299945336246, 16.06772394179288], "label": "O", "properties": {}}, {"species": [{"element": "O", "occu": 1}], "abc": [0.15693369, 0.23338091, 0.3318568], "xyz": [1.6564117148301898, 1.84675107578094, 14.1254113516472], "label": "O", "properties": {}}, {"species": [{"element": "O", "occu": 1}], "abc": [0.05050333, 0.64229168, 0.30491050000000003], "xyz": [0.53305512315383, 5.08247590175712, 12.978448047279501], "label": "O", "properties": {}}, {"species": [{"element": "O", "occu": 1}], "abc": [0.94902691, 0.10584406, 0.31322497], "xyz": [10.016837630040408, 0.83754764547804, 13.332351625331631], "label": "O", "properties": {}}, {"species": [{"element": "O", "occu": 1}], "abc": [0.44950745, 0.14227905, 0.3049005], "xyz": [4.744484158139949, 1.1258589601376998, 12.978022399489502], "label": "O", "properties": {}}, {"species": [{"element": "O", "occu": 1}], "abc": [0.55097912, 0.60577361, 0.31321548], "xyz": [5.81550251571112, 4.793507172232739, 13.33194768557892], "label": "O", "properties": {}}, {"species": [{"element": "O", "occu": 1}], "abc": [0.09818711, 0.87808896, 0.3651609], "xyz": [1.0363503161706098, 6.94834779550464, 15.542993007941101], "label": "O", "properties": {}}, {"species": [{"element": "O", "occu": 1}], "abc": [0.90969134, 0.47861507, 0.34302706], "xyz": [9.60165654969034, 3.7872973218223795, 14.60087099991974], "label": "O", "properties": {}}, {"species": [{"element": "O", "occu": 1}], "abc": [0.40188404, 0.37812439, 0.36514212], "xyz": [4.2418261614780395, 2.9921111542992596, 15.542193641391481], "label": "O", "properties": {}}, {"species": [{"element": "O", "occu": 1}], "abc": [0.59028422, 0.97857967, 0.3430163], "xyz": [6.23036198975122, 7.74353420041878, 14.6004130028977], "label": "O", "properties": {}}, {"species": [{"element": "O", "occu": 1}], "abc": [0.84031228, 0.37026673, 0.41330495], "xyz": [8.86937090887028, 2.9299332235588196, 17.59223385635605], "label": "O", "properties": {}}, {"species": [{"element": "O", "occu": 1}], "abc": [0.33455547, 0.3439069, 0.42190269], "xyz": [3.53118313708497, 2.7213469925346, 17.95819475935551], "label": "O", "properties": {}}, {"species": [{"element": "O", "occu": 1}], "abc": [0.65968452, 0.87023222, 0.41330864], "xyz": [6.96287181560652, 6.88617714475548, 17.59239092039056], "label": "O", "properties": {}}, {"species": [{"element": "O", "occu": 1}], "abc": [0.16554864, 0.8439, 0.42192316], "xyz": [1.74734122845264, 6.6778093925999995, 17.95906606038164], "label": "O", "properties": {}}, {"species": [{"element": "O", "occu": 1}], "abc": [0.05478659, 0.23557831, 0.39924429], "xyz": [0.57826429424809, 1.86413917669254, 16.99374497086191], "label": "O", "properties": {}}, {"species": [{"element": "O", "occu": 1}], "abc": [0.95027351, 0.73145197, 0.40316644], "xyz": [10.02999530729701, 5.788004307976979, 17.16069041881676], "label": "O", "properties": {}}, {"species": [{"element": "O", "occu": 1}], "abc": [0.44521384, 0.73558719, 0.39924286000000003], "xyz": [4.69916574433784, 5.8207264444344595, 16.99368410322794], "label": "O", "properties": {}}, {"species": [{"element": "O", "occu": 1}], "abc": [0.54983372, 0.23146721, 0.40313076000000003], "xyz": [5.803412989375719, 1.83160790261514, 17.159171707502043], "label": "O", "properties": {}}, {"species": [{"element": "O", "occu": 1}], "abc": [0.90875135, 0.08200659, 0.43512751], "xyz": [9.59173509529885, 0.64892093489406, 18.521106299970292], "label": "O", "properties": {}}, {"species": [{"element": "O", "occu": 1}], "abc": [0.59123115, 0.58196711, 0.43512308], "xyz": [6.24035669480865, 4.60512552831174, 18.52091773799932], "label": "O", "properties": {}}]}, "formula": "(Li3PO4)20.0", "bandgap": 4.6037, "slab_thickness": 18.51684982207029}