{"miller": "001_0.28", "final_energy": -258.38013474, "gamma": 0.014073997413591447, "work_function": "Not calculated", "ionization_potentail": "Not calculated", "electron_affinity": "Not calculated", "is_stochiometric": false, "incar_parameters": {"SYSTEM": "unknown system", "LCOMPAT": false, "PREC": "normal", "ENMAX": 520.0, "ENAUG": 628.945, "EDIFF": 1e-05, "IALGO": 38, "IWAVPR": 11, "NBANDS": 222, "NBANDSLOW": -1, "NBANDSHIGH": -1, "NELECT": 370.0, "TURBO": 0, "IRESTART": 0, "NREBOOT": 0, "NMIN": 0, "EREF": 0.0, "ISMEAR": 0, "SIGMA": 0.05, "KSPACING": 0.5, "KGAMMA": true, "KBLOWUP": true, "LREAL": true, "ROPT": [-0.0005, -0.0005, -0.0005], "LMAXPAW": -100, "LMAXMIX": 4, "NLSPLINE": false, "ISTART": 0, "ICHARG": 2, "INIWAV": 1, "ISPIN": 1, "LNONCOLLINEAR": false, "MAGMOM": [0.6, 0.6, 0.6, 0.6, 0.6, 0.6, 0.6, 0.6, 0.6, 0.6, 0.6, 0.6, 0.6, 0.6, 0.6, 0.6, 0.6, 0.6, 0.6, 0.6, 0.6, 0.6, 0.6, 0.6, 0.6, 0.6, 0.6, 0.6, 0.6, 0.6, 0.6, 0.6, 0.6, 0.6, 0.6, 0.6, 0.6, 0.6, 0.6, 0.6, 0.6, 0.6, 0.6, 0.6, 0.6, 0.6, 0.6, 0.6, 0.6, 0.6, 0.6, 0.6, 0.6, 0.6, 0.6, 0.6, 0.6, 0.6, 0.6, 0.6, 0.6, 0.6], "NUPDOWN": -1.0, "LSORBIT": false, "SAXIS": [0.0, 0.0, 1.0], "LSPIRAL": false, "QSPIRAL": [0.0, 0.0, 0.0], "LZEROZ": false, "LASPH": false, "LMETAGGA": false, "NELM": 100, "NELMDL": -5, "NELMIN": 6, "ENINI": 520.0, "LDIAG": true, "LSUBROT": false, "WEIMIN": 0.001, "EBREAK": 1e-08, "DEPER": 0.3, "NRMM": 4, "TIME": 0.4, "AMIX": 0.4, "BMIX": 1.0, "AMIN": 0.1, "AMIX_MAG": 1.6, "BMIX_MAG": 1.0, "IMIX": 4, "MIXFIRST": false, "MAXMIX": -45, "WC": 100.0, "INIMIX": 1, "MIXPRE": 1, "MREMOVE": 5, "LDIPOL": false, "LMONO": false, "IDIPOL": 0, "EPSILON": 1.0, "DIPOL": [-100.0, -100.0, -100.0], "EFIELD": 0.0, "NGX": 36, "NGY": 64, "NGZ": 270, "NGXF": 72, "NGYF": 128, "NGZF": 540, "ADDGRID": false, "NSW": 150, "IBRION": 2, "MDALGO": 0, "ISIF": 2, "PSTRESS": 0.0, "EDIFFG": -0.01, "NFREE": 1, "POTIM": 0.5, "SMASS": -3.0, "SCALEE": 1.0, "TEBEG": 0.0001, "TEEND": 0.0001, "NBLOCK": 1, "KBLOCK": 150, "NPACO": 256, "APACO": 10.0, "ISYM": 0, "SYMPREC": 1e-05, "LORBIT": 11, "RWIGS": [-1.0, -1.0, -1.0], "NEDOS": 301, "EMIN": 10.0, "EMAX": -10.0, "EFERMI": 0.0, "NWRITE": 2, "LWAVE": false, "LDOWNSAMPLE": false, "LCHARG": false, "LPARD": false, "LVTOT": false, "LVHAR": false, "LELF": false, "LOPTICS": false, "STM": [0.0, 0.0, 0.0, 0.0, 0.0, 0.0, 0.0], "NPAR": 1, "NSIM": 4, "NBLK": -1, "LPLANE": true, "LSCALAPACK": true, "LSCAAWARE": false, "LSCALU": false, "LASYNC": false, "LORBITALREAL": false, "IDIOT": 3, "PHON_NSTRUCT": -1, "LMUSIC": false, "POMASS": [7.01, 88.906, 35.453], "DARWINR": [0.0, 0.0, 0.0], "DARWINV": [1.0, 1.0, 1.0], "LCORR": true, "GGA_COMPAT": true, "LBERRY": false, "ICORELEVEL": 0, "LDAU": false, "I_CONSTRAINED_M": 0, "GGA": "--", "VOSKOWN": 0, "LHFCALC": false, "PRECFOCK": "", "LSYMGRAD": false, "LHFONE": false, "LRHFCALC": false, "LTHOMAS": false, "LMODELHF": false, "LFOCKACE": false, "ENCUT4O": -1.0, "EXXOEP": 0, "FOURORBIT": 0, "AEXX": 0.0, "HFALPHA": 0.0, "MCALPHA": 0.0, "ALDAX": 1.0, "AGGAX": 1.0, "ALDAC": 1.0, "AGGAC": 1.0, "NKREDX": 1, "NKREDY": 1, "NKREDZ": 1, "SHIFTRED": false, "ODDONLY": false, "EVENONLY": false, "LMAXFOCK": 0, "NMAXFOCKAE": 0, "LFOCKAEDFT": false, "HFSCREEN": 0.0, "HFSCREENC": 0.0, "NBANDSGWLOW": 0, "LUSE_VDW": false, "Zab_VDW": -0.8491, "PARAM1": 0.1234, "PARAM2": 1.0, "PARAM3": 0.0, "MODEL_GW": 0, "MODEL_EPS0": 31.92197859, "MODEL_ALPHA": 1.0, "LEPSILON": false, "LRPA": false, "LNABLA": false, "LVEL": false, "CSHIFT": 0.1, "OMEGAMAX": -1.0, "DEG_THRESHOLD": 0.002, "RTIME": -0.1, "WPLASMAI": 0.0, "DFIELD": [0.0, 0.0, 0.0], "WPLASMA": [0.0, 0.0, 0.0, 0.0, 0.0, 0.0, 0.0, 0.0, 0.0], "NUCIND": false, "MAGPOS": [0.0, 0.0, 0.0], "LNICSALL": true, "ORBITALMAG": false, "LMAGBLOCH": false, "LCHIMAG": false, "LGAUGE": true, "MAGATOM": 0, "MAGDIPOL": [0.0, 0.0, 0.0], "AVECCONST": [0.0, 0.0, 0.0], "LFINITE_TEMPERATURE": false, "LADDER": false, "LRPAFORCE": false, "LFXC": false, "LHARTREE": true, "IBSE": 0, "KPOINT": [-1, 0, 0, 0], "LTCTC": false, "LTCTE": false, "LTETE": false, "LTRIPLET": false, "LFXCEPS": false, "LFXHEG": false, "NATURALO": 2, "LHOLEGF": false, "L2ORDER": false, "LDMP1": false, "LMP2LT": false, "LSMP2LT": false, "LGWLF": false, "ENCUTGW": -2.0, "ENCUTGWSOFT": -2.0, "ENCUTLF": -1.0, "LESF_SPLINES": false, "LMAXMP2": -1, "SCISSOR": 0.0, "NOMEGA": 0, "NOMEGAR": 0, "NBANDSGW": -1, "NBANDSO": -1, "NBANDSV": -1, "NELMGW": 1, "NELMHF": 1, "DIM": 3, "IESPILON": 4, "ANTIRES": 0, "OMEGAMIN": -30.0, "OMEGATL": -200.0, "OMEGAGRID": 0, "LSELFENERGY": false, "LSPECTRAL": false, "LSPECTRALGW": false, "LSINGLES": false, "LFERMIGW": false, "ODDONLYGW": false, "EVENONLYGW": false, "NKREDLFX": 1, "NKREDLFY": 1, "NKREDLFZ": 1, "MAXMEM": 2800, "TELESCOPE": 0, "NTAUPAR": -1, "NOMEGAPAR": -1, "DAMP_NEWTON": 0.80000001, "LAMBDA": 1.0, "OFIELD_KAPPA": 0.0, "OFIELD_K": [0.0, 0.0, 0.0], "OFIELD_Q6_NEAR": 0.0, "OFIELD_Q6_FAR": 0.0, "OFIELD_A": 0.0, "KPOINTS_OPT_MODE": 1, "LKPOINTS_OPT": false, "@module": "pymatgen.io.vasp.inputs", "@class": "Incar"}, "relaxed_structures": {"@module": "pymatgen.core.structure", "@class": "Structure", "charge": 0, "lattice": {"matrix": [[6.097585, 0.0, 0.0], [0.000256, 11.177296, 0.0], [0.0, 0.0, 48.398915]], "a": 6.097585, "b": 11.177296002931657, "c": 48.398915, "alpha": 90.0, "beta": 90.0, "gamma": 89.99868772200783, "volume": 3298.6044539737572}, "sites": [{"species": [{"element": "Li", "occu": 1}], "abc": [0.04955987, 0.05142262, 9.99999999999994e-05], "xyz": [0.30220868410467, 0.5747658448355201, 0.004839891499999971], "label": "Li", "properties": {}}, {"species": [{"element": "Li", "occu": 1}], "abc": [0.99919783, 0.21613668, 0.05065752], "xyz": [6.09274903123063, 2.41582364881728, 2.4517690045908], "label": "Li", "properties": {}}, {"species": [{"element": "Li", "occu": 1}], "abc": [0.0010044, 0.5000142, 0.03791282], "xyz": [0.006252418009199999, 5.5888067176032, 1.8349393525903002], "label": "Li", "properties": {}}, {"species": [{"element": "Li", "occu": 1}], "abc": [0.49191217, 0.04067638, 0.12123678], "xyz": [2.99948668226273, 0.45465193946848, 5.8677286100937005], "label": "Li", "properties": {}}, {"species": [{"element": "Li", "occu": 1}], "abc": [0.49351588, 0.69062625, 0.12610905], "xyz": [3.0094318274697995, 7.71933402162, 6.10354119168075], "label": "Li", "properties": {}}, {"species": [{"element": "Li", "occu": 1}], "abc": [0.45582657, 0.71301249, 0.0098151], "xyz": [2.7796237870308897, 7.9695516524270404, 0.47504019061650005], "label": "Li", "properties": {}}, {"species": [{"element": "Li", "occu": 1}], "abc": [0.49268465, 0.19262902, 0.0462762], "xyz": [3.00423584459937, 2.1530715747299203, 2.239717870323], "label": "Li", "properties": {}}, {"species": [{"element": "Li", "occu": 1}], "abc": [0.50160402, 0.50521884, 0.05243163000000001], "xyz": [3.05870248431474, 5.64698051945664, 2.5376340036814504], "label": "Li", "properties": {}}, {"species": [{"element": "Li", "occu": 1}], "abc": [0.9945884, 0.69656893, 0.12310531000000001], "xyz": [6.064765630660079, 7.78575711501328, 5.958163434738651], "label": "Li", "properties": {}}, {"species": [{"element": "Li", "occu": 1}], "abc": [0.99982312, 0.53324402, 0.18939011], "xyz": [6.096642969634319, 5.960226251769921, 9.16627583573065], "label": "Li", "properties": {}}, {"species": [{"element": "Li", "occu": 1}], "abc": [0.00505879, 0.69786406, 0.25591644999999996], "xyz": [0.031025055221509997, 7.80023316638176, 12.386078510651748], "label": "Li", "properties": {}}, {"species": [{"element": "Li", "occu": 1}], "abc": [9.81e-06, 0.20075801, 0.18932944999999998], "xyz": [0.00011121135940999999, 2.24393170214096, 9.16333995754675], "label": "Li", "properties": {}}, {"species": [{"element": "Li", "occu": 1}], "abc": [0.49877175, 0.50508823, 0.32697718], "xyz": [3.0414324438106295, 5.645520652826081, 15.8253407417597], "label": "Li", "properties": {}}, {"species": [{"element": "Li", "occu": 1}], "abc": [0.5065242, 0.1932487, 0.33230561], "xyz": [3.0886238357241997, 2.1599979215152, 16.08323097241315], "label": "Li", "properties": {}}, {"species": [{"element": "Li", "occu": 1}], "abc": [0.4999366, 0.20952903, 0.18945066], "xyz": [3.04845955254268, 2.34196798890288, 9.1692063900339], "label": "Li", "properties": {}}, {"species": [{"element": "Li", "occu": 1}], "abc": [0.50643241, 0.69003299, 0.2533687], "xyz": [3.0881913151752904, 7.71270297899504, 12.262770174960501], "label": "Li", "properties": {}}, {"species": [{"element": "Li", "occu": 1}], "abc": [0.51107991, 0.03955764, 0.25788893], "xyz": [3.11636331977319, 0.44214745134143996, 12.481544402510952], "label": "Li", "properties": {}}, {"species": [{"element": "Li", "occu": 1}], "abc": [0.00061969, 0.21599832, 0.32875849], "xyz": [0.0038339080185699997, 2.41427715814272, 15.911554213038352], "label": "Li", "properties": {}}, {"species": [{"element": "Li", "occu": 1}], "abc": [0.94954478, 0.05173793, 0.37917593], "xyz": [5.789943252266379, 0.57829015803728, 18.35170360611595], "label": "Li", "properties": {}}, {"species": [{"element": "Li", "occu": 1}], "abc": [0.99852106, 0.50011242, 0.33978896], "xyz": [6.0886950664196196, 5.58990455161632, 16.445416992978398], "label": "Li", "properties": {}}, {"species": [{"element": "Li", "occu": 1}], "abc": [0.54439455, 0.71168097, 0.3697315], "xyz": [3.31967423249007, 7.9546688592571195, 17.894603441322502], "label": "Li", "properties": {}}, {"species": [{"element": "Y", "occu": 1}], "abc": [0.00136691, 0.86727969, 0.05839557000000001], "xyz": [0.008556873512989999, 9.69384180991824, 2.8262822288065506], "label": "Y", "properties": {}}, {"species": [{"element": "Y", "occu": 1}], "abc": [0.98413567, 0.35888884, 0.12151983000000001], "xyz": [6.00094277489999, 4.01140679577664, 5.881427922984451], "label": "Y", "properties": {}}, {"species": [{"element": "Y", "occu": 1}], "abc": [0.00010616, 0.87443524, 0.18957660999999998], "xyz": [0.0008711750450399999, 9.77382151031104, 9.175302233378149], "label": "Y", "properties": {}}, {"species": [{"element": "Y", "occu": 1}], "abc": [0.0160358, 0.35850165, 0.25746073999999997], "xyz": [0.09787142996539999, 4.0070790585384, 12.4608204710971], "label": "Y", "properties": {}}, {"species": [{"element": "Y", "occu": 1}], "abc": [0.99826996, 0.86699707, 0.32091899], "xyz": [6.08725788529652, 9.69068288252272, 15.532130918895852], "label": "Y", "properties": {}}, {"species": [{"element": "Cl", "occu": 1}], "abc": [0.22278503, 0.53496645, 0.14409334999999998], "xyz": [1.3585876085637498, 5.9794783617192, 6.97396179871525], "label": "Cl", "properties": {}}, {"species": [{"element": "Cl", "occu": 1}], "abc": [0.23566331, 0.21055313, 0.011312970000000002], "xyz": [1.4370309657076297, 2.3534146577364803, 0.5475354734275502], "label": "Cl", "properties": {}}, {"species": [{"element": "Cl", "occu": 1}], "abc": [0.21651836, 0.87062748, 0.009324699999999998], "xyz": [1.32046198479548, 9.73126104969408, 0.4513053627004999], "label": "Cl", "properties": {}}, {"species": [{"element": "Cl", "occu": 1}], "abc": [0.24604047, 0.70011702, 0.08025563000000001], "xyz": [1.50043190922207, 7.82541516717792, 3.8842854146414507], "label": "Cl", "properties": {}}, {"species": [{"element": "Cl", "occu": 1}], "abc": [0.22292508, 0.37126388, 0.0756218], "xyz": [1.35939966748508, 4.14972628086848, 3.6600130703470004], "label": "Cl", "properties": {}}, {"species": [{"element": "Cl", "occu": 1}], "abc": [0.29576096, 0.53705989, 0.011244979999999998], "xyz": [1.80356508061344, 6.00287736025744, 0.5442448311967], "label": "Cl", "properties": {}}, {"species": [{"element": "Cl", "occu": 1}], "abc": [0.25130941, 0.8596818, 0.1443554], "xyz": [1.53260056731565, 9.6089179444128, 6.9866447343910005], "label": "Cl", "properties": {}}, {"species": [{"element": "Cl", "occu": 1}], "abc": [0.25219114, 0.2015735, 0.14561280999999998], "xyz": [1.5378085152128997, 2.253046675256, 7.047502014101149], "label": "Cl", "properties": {}}, {"species": [{"element": "Cl", "occu": 1}], "abc": [0.25191941, 0.04287582, 0.07602566000000001], "xyz": [1.53611099183477, 0.47923573138272, 3.6795594561589007], "label": "Cl", "properties": {}}, {"species": [{"element": "Cl", "occu": 1}], "abc": [0.73737666, 0.53661641, 0.10203628000000001], "xyz": [4.496354235167059, 5.99792045302736, 4.938445242636201], "label": "Cl", "properties": {}}, {"species": [{"element": "Cl", "occu": 1}], "abc": [0.73428238, 0.35519774, 0.03424418], "xyz": [4.477440156673739, 3.97015027851104, 1.6573811570647001], "label": "Cl", "properties": {}}, {"species": [{"element": "Cl", "occu": 1}], "abc": [0.77300941, 0.6866381, 0.03546412], "xyz": [4.71366636262845, 7.6747572885776005, 1.7164249294298002], "label": "Cl", "properties": {}}, {"species": [{"element": "Cl", "occu": 1}], "abc": [0.74749222, 0.8602044, 0.10212366], "xyz": [4.558117560615099, 9.6147591993024, 4.9426743398289], "label": "Cl", "properties": {}}, {"species": [{"element": "Cl", "occu": 1}], "abc": [0.75055629, 0.04470868, 0.16833805], "xyz": [4.5765922209817305, 0.49972215012928, 8.14737897321575], "label": "Cl", "properties": {}}, {"species": [{"element": "Cl", "occu": 1}], "abc": [0.74530811, 0.19388021, 0.09780767], "xyz": [4.54462918524811, 2.16705649571216, 4.7337851066780505], "label": "Cl", "properties": {}}, {"species": [{"element": "Cl", "occu": 1}], "abc": [0.7667561, 0.7000062, 0.16648467], "xyz": [4.675539695605701, 7.8241764992352, 8.05767739213305], "label": "Cl", "properties": {}}, {"species": [{"element": "Cl", "occu": 1}], "abc": [0.76407143, 0.36225187, 0.16852562], "xyz": [4.6590832269752696, 4.04899637754352, 8.1564571577023], "label": "Cl", "properties": {}}, {"species": [{"element": "Cl", "occu": 1}], "abc": [0.75920266, 0.02894288, 0.031311099999999994], "xyz": [4.62931016095338, 0.32350313685248, 1.5154232674564998], "label": "Cl", "properties": {}}, {"species": [{"element": "Cl", "occu": 1}], "abc": [0.23931889, 0.02958579, 0.3477938], "xyz": [1.45927484784289, 0.33068913222384, 16.832842563727], "label": "Cl", "properties": {}}, {"species": [{"element": "Cl", "occu": 1}], "abc": [0.23282039, 0.70021687, 0.21270856999999999], "xyz": [1.4198213732768696, 7.8265312201835195, 10.29486399920155], "label": "Cl", "properties": {}}, {"species": [{"element": "Cl", "occu": 1}], "abc": [0.23608402, 0.36251195, 0.21047449999999998], "xyz": [1.4396351821509, 4.0519033686872, 10.1867374351675], "label": "Cl", "properties": {}}, {"species": [{"element": "Cl", "occu": 1}], "abc": [0.25514075, 0.19365187, 0.28119147], "xyz": [1.55579198496747, 2.16450427194352, 13.609362055255051], "label": "Cl", "properties": {}}, {"species": [{"element": "Cl", "occu": 1}], "abc": [0.2522245, 0.85982037, 0.27714], "xyz": [1.53818044184722, 9.61046678231952, 13.4132753031], "label": "Cl", "properties": {}}, {"species": [{"element": "Cl", "occu": 1}], "abc": [0.24920084, 0.04508121, 0.21062124999999998], "xyz": [1.51953484476116, 0.50388602820816, 10.19383997594375], "label": "Cl", "properties": {}}, {"species": [{"element": "Cl", "occu": 1}], "abc": [0.26518553, 0.3554903, 0.34488393], "xyz": [1.6170823154618499, 3.9734203082287998, 16.69200801293595], "label": "Cl", "properties": {}}, {"species": [{"element": "Cl", "occu": 1}], "abc": [0.22762904, 0.68697331, 0.34386044], "xyz": [1.38816328503576, 7.678504029969759, 16.6424722074226], "label": "Cl", "properties": {}}, {"species": [{"element": "Cl", "occu": 1}], "abc": [0.26137903, 0.53628898, 0.2772628], "xyz": [1.59391814262143, 5.994260670998081, 13.419218689862], "label": "Cl", "properties": {}}, {"species": [{"element": "Cl", "occu": 1}], "abc": [0.74768647, 0.0421706, 0.30299175], "xyz": [4.55909259984855, 0.4713532786976, 14.664471953951251], "label": "Cl", "properties": {}}, {"species": [{"element": "Cl", "occu": 1}], "abc": [0.7480516, 0.86010896, 0.23477462], "xyz": [4.56152840327976, 9.61369243817216, 11.3628368775373], "label": "Cl", "properties": {}}, {"species": [{"element": "Cl", "occu": 1}], "abc": [0.74825856, 0.20138255, 0.23326282999999998], "xyz": [4.5626217255104, 2.2509123705847998, 11.28966788182945], "label": "Cl", "properties": {}}, {"species": [{"element": "Cl", "occu": 1}], "abc": [0.77650029, 0.37053579, 0.30337185], "xyz": [4.734871377961889, 4.14158820342384, 14.68286838154275], "label": "Cl", "properties": {}}, {"species": [{"element": "Cl", "occu": 1}], "abc": [0.70836386, 0.53666642, 0.36758592], "xyz": [4.31944623388162, 5.998479429600319, 17.7907596972768], "label": "Cl", "properties": {}}, {"species": [{"element": "Cl", "occu": 1}], "abc": [0.75405029, 0.69978125, 0.29893249], "xyz": [4.598064881549649, 7.8216621665, 14.46800817424835], "label": "Cl", "properties": {}}, {"species": [{"element": "Cl", "occu": 1}], "abc": [0.7617773, 0.21009449, 0.36767857], "xyz": [4.64505562200994, 2.3482883026990398, 17.79524385675155], "label": "Cl", "properties": {}}, {"species": [{"element": "Cl", "occu": 1}], "abc": [0.78174973, 0.87078784, 0.36989129], "xyz": [4.767008349089091, 9.73305344088064, 17.90233710395035], "label": "Cl", "properties": {}}, {"species": [{"element": "Cl", "occu": 1}], "abc": [0.77740153, 0.53503377, 0.23507094], "xyz": [4.74040887695017, 5.9802308172859195, 11.3771784440301], "label": "Cl", "properties": {}}]}, "formula": "(Li3YCl6)5.0(LiCl)6.0", "bandgap": 4.4046, "slab_thickness": 18.34686371461595}