{"miller": "001_0.00", "final_energy": -316.07481716, "gamma": 0.0081559752760748, "work_function": "Not calculated", "ionization_potentail": "Not calculated", "electron_affinity": "Not calculated", "is_stochiometric": false, "incar_parameters": {"SYSTEM": "unknown system", "LCOMPAT": false, "PREC": "normal", "ENMAX": 520.0, "ENAUG": 628.945, "EDIFF": 1e-05, "IALGO": 38, "IWAVPR": 11, "NBANDS": 272, "NBANDSLOW": -1, "NBANDSHIGH": -1, "NELECT": 454.0, "TURBO": 0, "IRESTART": 0, "NREBOOT": 0, "NMIN": 0, "EREF": 0.0, "ISMEAR": 0, "SIGMA": 0.05, "KSPACING": 0.5, "KGAMMA": true, "KBLOWUP": true, "LREAL": true, "ROPT": [-0.0005, -0.0005, -0.0005], "LMAXPAW": -100, "LMAXMIX": 4, "NLSPLINE": false, "ISTART": 0, "ICHARG": 2, "INIWAV": 1, "ISPIN": 1, "LNONCOLLINEAR": false, "MAGMOM": [0.6, 0.6, 0.6, 0.6, 0.6, 0.6, 0.6, 0.6, 0.6, 0.6, 0.6, 0.6, 0.6, 0.6, 0.6, 0.6, 0.6, 0.6, 0.6, 0.6, 0.6, 0.6, 0.6, 0.6, 0.6, 0.6, 0.6, 0.6, 0.6, 0.6, 0.6, 0.6, 0.6, 0.6, 0.6, 0.6, 0.6, 0.6, 0.6, 0.6, 0.6, 0.6, 0.6, 0.6, 0.6, 0.6, 0.6, 0.6, 0.6, 0.6, 0.6, 0.6, 0.6, 0.6, 0.6, 0.6, 0.6, 0.6, 0.6, 0.6, 0.6, 0.6, 0.6, 0.6, 0.6, 0.6, 0.6, 0.6, 0.6, 0.6, 0.6, 0.6, 0.6, 0.6], "NUPDOWN": -1.0, "LSORBIT": false, "SAXIS": [0.0, 0.0, 1.0], "LSPIRAL": false, "QSPIRAL": [0.0, 0.0, 0.0], "LZEROZ": false, "LASPH": false, "LMETAGGA": false, "NELM": 100, "NELMDL": -5, "NELMIN": 6, "ENINI": 520.0, "LDIAG": true, "LSUBROT": false, "WEIMIN": 0.001, "EBREAK": 1e-08, "DEPER": 0.3, "NRMM": 4, "TIME": 0.4, "AMIX": 0.4, "BMIX": 1.0, "AMIN": 0.1, "AMIX_MAG": 1.6, "BMIX_MAG": 1.0, "IMIX": 4, "MIXFIRST": false, "MAXMIX": -45, "WC": 100.0, "INIMIX": 1, "MIXPRE": 1, "MREMOVE": 5, "LDIPOL": false, "LMONO": false, "IDIPOL": 0, "EPSILON": 1.0, "DIPOL": [-100.0, -100.0, -100.0], "EFIELD": 0.0, "NGX": 36, "NGY": 64, "NGZ": 270, "NGXF": 72, "NGYF": 128, "NGZF": 540, "ADDGRID": false, "NSW": 150, "IBRION": 2, "MDALGO": 0, "ISIF": 2, "PSTRESS": 0.0, "EDIFFG": -0.01, "NFREE": 1, "POTIM": 0.5, "SMASS": -3.0, "SCALEE": 1.0, "TEBEG": 0.0001, "TEEND": 0.0001, "NBLOCK": 1, "KBLOCK": 150, "NPACO": 256, "APACO": 10.0, "ISYM": 0, "SYMPREC": 1e-05, "LORBIT": 11, "RWIGS": [-1.0, -1.0, -1.0], "NEDOS": 301, "EMIN": 10.0, "EMAX": -10.0, "EFERMI": 0.0, "NWRITE": 2, "LWAVE": false, "LDOWNSAMPLE": false, "LCHARG": false, "LPARD": false, "LVTOT": false, "LVHAR": false, "LELF": false, "LOPTICS": false, "STM": [0.0, 0.0, 0.0, 0.0, 0.0, 0.0, 0.0], "NPAR": 1, "NSIM": 4, "NBLK": -1, "LPLANE": true, "LSCALAPACK": true, "LSCAAWARE": false, "LSCALU": false, "LASYNC": false, "LORBITALREAL": false, "IDIOT": 3, "PHON_NSTRUCT": -1, "LMUSIC": false, "POMASS": [7.01, 88.906, 35.453], "DARWINR": [0.0, 0.0, 0.0], "DARWINV": [1.0, 1.0, 1.0], "LCORR": true, "GGA_COMPAT": true, "LBERRY": false, "ICORELEVEL": 0, "LDAU": false, "I_CONSTRAINED_M": 0, "GGA": "--", "VOSKOWN": 0, "LHFCALC": false, "PRECFOCK": "", "LSYMGRAD": false, "LHFONE": false, "LRHFCALC": false, "LTHOMAS": false, "LMODELHF": false, "LFOCKACE": false, "ENCUT4O": -1.0, "EXXOEP": 0, "FOURORBIT": 0, "AEXX": 0.0, "HFALPHA": 0.0, "MCALPHA": 0.0, "ALDAX": 1.0, "AGGAX": 1.0, "ALDAC": 1.0, "AGGAC": 1.0, "NKREDX": 1, "NKREDY": 1, "NKREDZ": 1, "SHIFTRED": false, "ODDONLY": false, "EVENONLY": false, "LMAXFOCK": 0, "NMAXFOCKAE": 0, "LFOCKAEDFT": false, "HFSCREEN": 0.0, "HFSCREENC": 0.0, "NBANDSGWLOW": 0, "LUSE_VDW": false, "Zab_VDW": -0.8491, "PARAM1": 0.1234, "PARAM2": 1.0, "PARAM3": 0.0, "MODEL_GW": 0, "MODEL_EPS0": 26.74544152, "MODEL_ALPHA": 1.0, "LEPSILON": false, "LRPA": false, "LNABLA": false, "LVEL": false, "CSHIFT": 0.1, "OMEGAMAX": -1.0, "DEG_THRESHOLD": 0.002, "RTIME": -0.1, "WPLASMAI": 0.0, "DFIELD": [0.0, 0.0, 0.0], "WPLASMA": [0.0, 0.0, 0.0, 0.0, 0.0, 0.0, 0.0, 0.0, 0.0], "NUCIND": false, "MAGPOS": [0.0, 0.0, 0.0], "LNICSALL": true, "ORBITALMAG": false, "LMAGBLOCH": false, "LCHIMAG": false, "LGAUGE": true, "MAGATOM": 0, "MAGDIPOL": [0.0, 0.0, 0.0], "AVECCONST": [0.0, 0.0, 0.0], "LFINITE_TEMPERATURE": false, "LADDER": false, "LRPAFORCE": false, "LFXC": false, "LHARTREE": true, "IBSE": 0, "KPOINT": [-1, 0, 0, 0], "LTCTC": false, "LTCTE": false, "LTETE": false, "LTRIPLET": false, "LFXCEPS": false, "LFXHEG": false, "NATURALO": 2, "LHOLEGF": false, "L2ORDER": false, "LDMP1": false, "LMP2LT": false, "LSMP2LT": false, "LGWLF": false, "ENCUTGW": -2.0, "ENCUTGWSOFT": -2.0, "ENCUTLF": -1.0, "LESF_SPLINES": false, "LMAXMP2": -1, "SCISSOR": 0.0, "NOMEGA": 0, "NOMEGAR": 0, "NBANDSGW": -1, "NBANDSO": -1, "NBANDSV": -1, "NELMGW": 1, "NELMHF": 1, "DIM": 3, "IESPILON": 4, "ANTIRES": 0, "OMEGAMIN": -30.0, "OMEGATL": -200.0, "OMEGAGRID": 0, "LSELFENERGY": false, "LSPECTRAL": false, "LSPECTRALGW": false, "LSINGLES": false, "LFERMIGW": false, "ODDONLYGW": false, "EVENONLYGW": false, "NKREDLFX": 1, "NKREDLFY": 1, "NKREDLFZ": 1, "MAXMEM": 2800, "TELESCOPE": 0, "NTAUPAR": -1, "NOMEGAPAR": -1, "DAMP_NEWTON": 0.80000001, "LAMBDA": 1.0, "OFIELD_KAPPA": 0.0, "OFIELD_K": [0.0, 0.0, 0.0], "OFIELD_Q6_NEAR": 0.0, "OFIELD_Q6_FAR": 0.0, "OFIELD_A": 0.0, "KPOINTS_OPT_MODE": 1, "LKPOINTS_OPT": false, "@module": "pymatgen.io.vasp.inputs", "@class": "Incar"}, "relaxed_structures": {"@module": "pymatgen.core.structure", "@class": "Structure", "charge": 0, "lattice": {"matrix": [[6.097585, 0.0, 0.0], [0.000256, 11.177296, 0.0], [0.0, 0.0, 48.398915]], "a": 6.097585, "b": 11.177296002931657, "c": 48.398915, "alpha": 90.0, "beta": 90.0, "gamma": 89.99868772200783, "volume": 3298.6044539737572}, "sites": [{"species": [{"element": "Li", "occu": 1}], "abc": [0.87950676, 0.12939528, 0.04366449], "xyz": [5.36290035236628, 1.44628934556288, 2.11331394002835], "label": "Li", "properties": {}}, {"species": [{"element": "Li", "occu": 1}], "abc": [0.00304403, 0.33308425, 0.10982051999999999], "xyz": [0.01864650123555, 3.7229812551880004, 5.3151940127358], "label": "Li", "properties": {}}, {"species": [{"element": "Li", "occu": 1}], "abc": [0.94309024, 0.83667701, 0.04400501], "xyz": [5.75078709038496, 9.35178659716496, 2.12979473856415], "label": "Li", "properties": {}}, {"species": [{"element": "Li", "occu": 1}], "abc": [0.49360956, 0.16668936, 0.17730869], "xyz": [3.00986892138876, 1.8631363167705601, 8.58154821607135], "label": "Li", "properties": {}}, {"species": [{"element": "Li", "occu": 1}], "abc": [0.44060904, 0.33507678, 0.02246142], "xyz": [2.6867368528240796, 3.7452523527868804, 1.0871083573593001], "label": "Li", "properties": {}}, {"species": [{"element": "Li", "occu": 1}], "abc": [0.48597973, 0.85276698, 0.04913942], "xyz": [2.9635210202989297, 9.531628954486079, 2.3782946117293005], "label": "Li", "properties": {}}, {"species": [{"element": "Li", "occu": 1}], "abc": [0.50708547, 0.33347291, 0.10841161], "xyz": [3.09208212465491, 3.72732542305136, 5.2470042974031506], "label": "Li", "properties": {}}, {"species": [{"element": "Li", "occu": 1}], "abc": [0.51438031, 0.65812934, 0.1087617], "xyz": [3.1366461436623894, 7.35610643946464, 5.2639482735555], "label": "Li", "properties": {}}, {"species": [{"element": "Li", "occu": 1}], "abc": [0.00098853, 0.83373903, 0.17756349999999999], "xyz": [0.00624108289173, 9.318947925062881, 8.593880743602499], "label": "Li", "properties": {}}, {"species": [{"element": "Li", "occu": 1}], "abc": [6.051e-05, 0.66575457, 0.24402426], "xyz": [0.00053939803827, 7.44133589224272, 11.8105094176779], "label": "Li", "properties": {}}, {"species": [{"element": "Li", "occu": 1}], "abc": [0.9994271, 0.83445014, 0.31052658], "xyz": [6.09430531278934, 9.32689621202144, 15.029149550660701], "label": "Li", "properties": {}}, {"species": [{"element": "Li", "occu": 1}], "abc": [0.99949375, 0.33524312, 0.24404979], "xyz": [6.09458391983247, 3.74711158420352, 11.81174504197785], "label": "Li", "properties": {}}, {"species": [{"element": "Li", "occu": 1}], "abc": [0.48450776, 0.65853686, 0.37891852], "xyz": [2.9544958351957598, 7.36066141113056, 18.3392452414058], "label": "Li", "properties": {}}, {"species": [{"element": "Li", "occu": 1}], "abc": [0.50139867, 0.82782547, 0.17969592999999998], "xyz": [3.05753293253227, 9.25285031452912, 8.697088041915949], "label": "Li", "properties": {}}, {"species": [{"element": "Li", "occu": 1}], "abc": [0.50004152, 0.34827244, 0.24388167], "xyz": [3.04913482947384, 3.8927441505222404, 11.803608216388051], "label": "Li", "properties": {}}, {"species": [{"element": "Li", "occu": 1}], "abc": [0.49812658, 0.82732728, 0.30864867], "xyz": [3.03758095809298, 9.24728189743488, 14.938260744193052], "label": "Li", "properties": {}}, {"species": [{"element": "Li", "occu": 1}], "abc": [0.50577502, 0.16602467, 0.31067746], "xyz": [3.0840486776422193, 1.8557068798923202, 15.0364519789559], "label": "Li", "properties": {}}, {"species": [{"element": "Li", "occu": 1}], "abc": [0.99778797, 0.33467326, 0.37833848999999997], "xyz": [6.08418263540701, 3.7407420903049595, 18.311172418738348], "label": "Li", "properties": {}}, {"species": [{"element": "Li", "occu": 1}], "abc": [0.11809211, 0.1311693, 0.44445867], "xyz": [0.7201102578951499, 1.4661180922127999, 21.511317390343052], "label": "Li", "properties": {}}, {"species": [{"element": "Li", "occu": 1}], "abc": [0.05506513, 0.83688072, 0.44408391999999997], "xyz": [0.3359785521753699, 9.354063524133121, 21.4931798969468], "label": "Li", "properties": {}}, {"species": [{"element": "Li", "occu": 1}], "abc": [0.493393, 0.33389063, 0.3796625], "xyz": [3.00859123190628, 3.7319944031364805, 18.3752530661875], "label": "Li", "properties": {}}, {"species": [{"element": "Li", "occu": 1}], "abc": [0.51233356, 0.85263811, 0.4391902], "xyz": [3.1242157058087594, 9.53018853635056, 21.256329158633], "label": "Li", "properties": {}}, {"species": [{"element": "Li", "occu": 1}], "abc": [0.55935504, 0.33593457, 0.46624178], "xyz": [3.41080090082832, 3.75484012552272, 22.5655962796687], "label": "Li", "properties": {}}, {"species": [{"element": "Y", "occu": 1}], "abc": [0.00841178, 0.5087353, 0.04111281], "xyz": [0.0514217797881, 5.6862850337488, 1.98981539660115], "label": "Y", "properties": {}}, {"species": [{"element": "Y", "occu": 1}], "abc": [0.99987475, 0.99516419, 0.11232958], "xyz": [6.097076039511389, 11.12324472023024, 5.4366297944057], "label": "Y", "properties": {}}, {"species": [{"element": "Y", "occu": 1}], "abc": [0.00320217, 0.49704033, 0.1754923], "xyz": [0.01965274608393, 5.55556689234768, 8.4936369108545], "label": "Y", "properties": {}}, {"species": [{"element": "Y", "occu": 1}], "abc": [0.00031554, 0.00835234, 0.24405013999999997], "xyz": [0.0019261701699399998, 0.09335657647264, 11.8117619815981], "label": "Y", "properties": {}}, {"species": [{"element": "Y", "occu": 1}], "abc": [0.99731132, 0.49692164, 0.31243333], "xyz": [6.081317757102039, 5.55424025908544, 15.121434181836952], "label": "Y", "properties": {}}, {"species": [{"element": "Y", "occu": 1}], "abc": [0.99937532, 0.9955816, 0.37591157], "xyz": [6.0940308294918, 11.1279102353536, 18.19371212394655], "label": "Y", "properties": {}}, {"species": [{"element": "Y", "occu": 1}], "abc": [0.99171784, 0.50953324, 0.44706236], "xyz": [6.047214265925839, 5.69520384531904, 21.637333161339402], "label": "Y", "properties": {}}, {"species": [{"element": "Cl", "occu": 1}], "abc": [0.25812361, 0.33500119, 0.0662078], "xyz": [1.57401641278649, 3.74440746098224, 3.2043856845370002], "label": "Cl", "properties": {}}, {"species": [{"element": "Cl", "occu": 1}], "abc": [0.19018172, 0.9980005, 0.06252351], "xyz": [1.1599046912742, 11.154946996648, 3.0260700459916503], "label": "Cl", "properties": {}}, {"species": [{"element": "Cl", "occu": 1}], "abc": [0.24680839, 0.83113504, 0.13535348], "xyz": [1.5051479073083898, 9.28984235805184, 6.550961573474201], "label": "Cl", "properties": {}}, {"species": [{"element": "Cl", "occu": 1}], "abc": [0.25264988, 0.49214549, 0.13038387999999998], "xyz": [1.54068010778524, 5.50085581679504, 6.3104383254902], "label": "Cl", "properties": {}}, {"species": [{"element": "Cl", "occu": 1}], "abc": [0.25013269, 0.68440346, 0.06353706], "xyz": [1.5253805458394099, 7.649780055844159, 3.0751247662899006], "label": "Cl", "properties": {}}, {"species": [{"element": "Cl", "occu": 1}], "abc": [0.27059857, 0.48598357, 9.99999999999994e-05], "xyz": [1.65012219324737, 5.4319822130267195, 0.004839891499999971], "label": "Cl", "properties": {}}, {"species": [{"element": "Cl", "occu": 1}], "abc": [0.25343006, 0.17096248, 0.13120637], "xyz": [1.54535509879998, 1.91089824385408, 6.35024594908855], "label": "Cl", "properties": {}}, {"species": [{"element": "Cl", "occu": 1}], "abc": [0.74621378, 0.67027491, 0.15614718], "xyz": [4.550273542098259, 7.49186107044336, 7.5573540923097005], "label": "Cl", "properties": {}}, {"species": [{"element": "Cl", "occu": 1}], "abc": [0.75712866, 0.49079018, 0.08795488], "xyz": [4.6167820025721795, 5.48570711575328, 4.2569207609552], "label": "Cl", "properties": {}}, {"species": [{"element": "Cl", "occu": 1}], "abc": [0.73468199, 0.83180037, 0.08941586], "xyz": [4.479998822888869, 9.29727894839952, 4.3276306077919005], "label": "Cl", "properties": {}}, {"species": [{"element": "Cl", "occu": 1}], "abc": [0.75108907, 0.99271788, 0.15716365], "xyz": [4.58008358267323, 11.095901589252481, 7.60655013743975], "label": "Cl", "properties": {}}, {"species": [{"element": "Cl", "occu": 1}], "abc": [0.76736937, 0.6728386, 0.02118504], "xyz": [4.679272206653049, 7.5205161924256, 1.0253329502316], "label": "Cl", "properties": {}}, {"species": [{"element": "Cl", "occu": 1}], "abc": [0.75425601, 0.33113009, 0.15252026], "xyz": [4.599224902038889, 3.70113903043664, 7.3818150995179], "label": "Cl", "properties": {}}, {"species": [{"element": "Cl", "occu": 1}], "abc": [0.80920308, 0.31285426, 0.02023612], "xyz": [4.934264653252359, 3.49686466888096, 0.9794062518098], "label": "Cl", "properties": {}}, {"species": [{"element": "Cl", "occu": 1}], "abc": [0.70180488, 0.97672893, 0.022580769999999997], "xyz": [4.27956495182088, 10.917188362373281, 1.09288476786455], "label": "Cl", "properties": {}}, {"species": [{"element": "Cl", "occu": 1}], "abc": [0.76066569, 0.17044881, 0.09035256], "xyz": [4.638267336254009, 1.90515680221776, 4.3729658714724], "label": "Cl", "properties": {}}, {"species": [{"element": "Cl", "occu": 1}], "abc": [0.2324146, 0.67124103, 0.1989027], "xyz": [1.4173396164446799, 7.50265967965488, 9.6266748705705], "label": "Cl", "properties": {}}, {"species": [{"element": "Cl", "occu": 1}], "abc": [0.22988601, 0.83381261, 0.2673301], "xyz": [1.4019629423140099, 9.31977035050256, 12.938486786841501], "label": "Cl", "properties": {}}, {"species": [{"element": "Cl", "occu": 1}], "abc": [0.22908756, 0.49685867, 0.26590103], "xyz": [1.3970080653621197, 5.55353642475632, 12.86932134938245], "label": "Cl", "properties": {}}, {"species": [{"element": "Cl", "occu": 1}], "abc": [0.2461442, 0.3314438, 0.33551038], "xyz": [1.5009700313698, 3.7046454599648, 16.238338363237702], "label": "Cl", "properties": {}}, {"species": [{"element": "Cl", "occu": 1}], "abc": [0.2488031, 0.9928302, 0.33108181], "xyz": [1.5173522150446999, 11.0971570231392, 16.02400038023615], "label": "Cl", "properties": {}}, {"species": [{"element": "Cl", "occu": 1}], "abc": [0.24909355, 0.17898789, 0.26529554], "xyz": [1.51891491497659, 2.00060062694544, 12.8400162903391], "label": "Cl", "properties": {}}, {"species": [{"element": "Cl", "occu": 1}], "abc": [0.25684917, 0.99508664, 0.19928126999999998], "xyz": [1.56641438843429, 11.122377920925441, 9.64499724782205], "label": "Cl", "properties": {}}, {"species": [{"element": "Cl", "occu": 1}], "abc": [0.25789753, 0.33564874, 0.20059903999999998], "xyz": [1.5726380365424897, 3.7516453190070402, 9.7087758860416], "label": "Cl", "properties": {}}, {"species": [{"element": "Cl", "occu": 1}], "abc": [0.25355478, 0.67051813, 0.33191381], "xyz": [1.5462434758475798, 7.494579612376481, 16.06426827751615], "label": "Cl", "properties": {}}, {"species": [{"element": "Cl", "occu": 1}], "abc": [0.74618646, 0.17141249, 0.35696284], "xyz": [4.54997924729654, 1.91592813882704, 17.2766141513186], "label": "Cl", "properties": {}}, {"species": [{"element": "Cl", "occu": 1}], "abc": [0.74359418, 0.9949422, 0.28881935999999997], "xyz": [4.534383423258499, 11.1207634722912, 13.978543654994398], "label": "Cl", "properties": {}}, {"species": [{"element": "Cl", "occu": 1}], "abc": [0.74296124, 0.33542587, 0.28738449], "xyz": [4.53035518162812, 3.74915423504752, 13.90909750382835], "label": "Cl", "properties": {}}, {"species": [{"element": "Cl", "occu": 1}], "abc": [0.7483319, 0.49245277, 0.35760863], "xyz": [4.56314343637062, 5.50429037630992, 17.30786968663645], "label": "Cl", "properties": {}}, {"species": [{"element": "Cl", "occu": 1}], "abc": [0.75239875, 0.17888431, 0.22262495999999998], "xyz": [4.587861126402109, 1.99944288262576, 10.7748065159184], "label": "Cl", "properties": {}}, {"species": [{"element": "Cl", "occu": 1}], "abc": [0.7525469, 0.83150559, 0.35276659], "xyz": [4.58893155466754, 9.29398410508464, 17.07352020424985], "label": "Cl", "properties": {}}, {"species": [{"element": "Cl", "occu": 1}], "abc": [0.77116466, 0.8334602, 0.22079301999999998], "xyz": [4.702455429157299, 9.3158313596192, 10.6861426075733], "label": "Cl", "properties": {}}, {"species": [{"element": "Cl", "occu": 1}], "abc": [0.7717325, 0.49661614, 0.22205866], "xyz": [4.70583164974434, 5.5508255951574395, 10.7473982103539], "label": "Cl", "properties": {}}, {"species": [{"element": "Cl", "occu": 1}], "abc": [0.7683827, 0.67154991, 0.28914692999999997], "xyz": [4.685450742556459, 7.506112122843359, 13.99439768758095], "label": "Cl", "properties": {}}, {"species": [{"element": "Cl", "occu": 1}], "abc": [0.23861699, 0.1711743, 0.39780067999999996], "xyz": [1.4550311995899499, 1.9132658186928, 19.2531212982622], "label": "Cl", "properties": {}}, {"species": [{"element": "Cl", "occu": 1}], "abc": [0.19086071, 0.31380894, 0.46809058], "xyz": [1.16386973747399, 3.50753540982624, 22.6550761937207], "label": "Cl", "properties": {}}, {"species": [{"element": "Cl", "occu": 1}], "abc": [0.29583512, 0.97782595, 0.46545538999999997], "xyz": [1.8041301136284, 10.9294500796312, 22.52753585690185], "label": "Cl", "properties": {}}, {"species": [{"element": "Cl", "occu": 1}], "abc": [0.23358429, 0.67371724, 0.46686046999999997], "xyz": [1.4244725345530898, 7.53033701178304, 22.59554020439005], "label": "Cl", "properties": {}}, {"species": [{"element": "Cl", "occu": 1}], "abc": [0.24282842, 0.49121251, 0.40015595], "xyz": [1.48079268176826, 5.49042762317296, 19.36711381079425], "label": "Cl", "properties": {}}, {"species": [{"element": "Cl", "occu": 1}], "abc": [0.26407624, 0.83166616, 0.39864427999999996], "xyz": [1.61044022641736, 9.29577884350336, 19.2939506229562], "label": "Cl", "properties": {}}, {"species": [{"element": "Cl", "occu": 1}], "abc": [0.73069149, 0.48767573, 0.48823169999999994], "xyz": [4.455578314038529, 5.4508959862260795, 23.6298845486055], "label": "Cl", "properties": {}}, {"species": [{"element": "Cl", "occu": 1}], "abc": [0.74973162, 0.68482245, 0.42466711], "xyz": [4.5717275946849005, 7.6544632310952, 20.55342736018565], "label": "Cl", "properties": {}}, {"species": [{"element": "Cl", "occu": 1}], "abc": [0.74150555, 0.33571858, 0.42216723], "xyz": [4.5214790630532296, 3.75242594135968, 20.432435880555452], "label": "Cl", "properties": {}}, {"species": [{"element": "Cl", "occu": 1}], "abc": [0.80824425, 0.99828943, 0.42561611], "xyz": [4.9285935772303295, 11.15817645278128, 20.59935793052065], "label": "Cl", "properties": {}}]}, "formula": "(Li3YCl6)7.0(LiCl)2.0", "bandgap": 4.5332, "slab_thickness": 23.625044657105498}