{"miller": "001_0.17", "final_energy": -258.38250016, "gamma": 0.014056644050507723, "work_function": "Not calculated", "ionization_potentail": "Not calculated", "electron_affinity": "Not calculated", "is_stochiometric": false, "incar_parameters": {"SYSTEM": "unknown system", "LCOMPAT": false, "PREC": "normal", "ENMAX": 520.0, "ENAUG": 628.945, "EDIFF": 1e-05, "IALGO": 38, "IWAVPR": 11, "NBANDS": 222, "NBANDSLOW": -1, "NBANDSHIGH": -1, "NELECT": 370.0, "TURBO": 0, "IRESTART": 0, "NREBOOT": 0, "NMIN": 0, "EREF": 0.0, "ISMEAR": 0, "SIGMA": 0.05, "KSPACING": 0.5, "KGAMMA": true, "KBLOWUP": true, "LREAL": true, "ROPT": [-0.0005, -0.0005, -0.0005], "LMAXPAW": -100, "LMAXMIX": 4, "NLSPLINE": false, "ISTART": 0, "ICHARG": 2, "INIWAV": 1, "ISPIN": 1, "LNONCOLLINEAR": false, "MAGMOM": [0.6, 0.6, 0.6, 0.6, 0.6, 0.6, 0.6, 0.6, 0.6, 0.6, 0.6, 0.6, 0.6, 0.6, 0.6, 0.6, 0.6, 0.6, 0.6, 0.6, 0.6, 0.6, 0.6, 0.6, 0.6, 0.6, 0.6, 0.6, 0.6, 0.6, 0.6, 0.6, 0.6, 0.6, 0.6, 0.6, 0.6, 0.6, 0.6, 0.6, 0.6, 0.6, 0.6, 0.6, 0.6, 0.6, 0.6, 0.6, 0.6, 0.6, 0.6, 0.6, 0.6, 0.6, 0.6, 0.6, 0.6, 0.6, 0.6, 0.6, 0.6, 0.6], "NUPDOWN": -1.0, "LSORBIT": false, "SAXIS": [0.0, 0.0, 1.0], "LSPIRAL": false, "QSPIRAL": [0.0, 0.0, 0.0], "LZEROZ": false, "LASPH": false, "LMETAGGA": false, "NELM": 100, "NELMDL": -5, "NELMIN": 6, "ENINI": 520.0, "LDIAG": true, "LSUBROT": false, "WEIMIN": 0.001, "EBREAK": 1e-08, "DEPER": 0.3, "NRMM": 4, "TIME": 0.4, "AMIX": 0.4, "BMIX": 1.0, "AMIN": 0.1, "AMIX_MAG": 1.6, "BMIX_MAG": 1.0, "IMIX": 4, "MIXFIRST": false, "MAXMIX": -45, "WC": 100.0, "INIMIX": 1, "MIXPRE": 1, "MREMOVE": 5, "LDIPOL": false, "LMONO": false, "IDIPOL": 0, "EPSILON": 1.0, "DIPOL": [-100.0, -100.0, -100.0], "EFIELD": 0.0, "NGX": 36, "NGY": 64, "NGZ": 270, "NGXF": 72, "NGYF": 128, "NGZF": 540, "ADDGRID": false, "NSW": 150, "IBRION": 2, "MDALGO": 0, "ISIF": 2, "PSTRESS": 0.0, "EDIFFG": -0.01, "NFREE": 1, "POTIM": 0.5, "SMASS": -3.0, "SCALEE": 1.0, "TEBEG": 0.0001, "TEEND": 0.0001, "NBLOCK": 1, "KBLOCK": 150, "NPACO": 256, "APACO": 10.0, "ISYM": 0, "SYMPREC": 1e-05, "LORBIT": 11, "RWIGS": [-1.0, -1.0, -1.0], "NEDOS": 301, "EMIN": 10.0, "EMAX": -10.0, "EFERMI": 0.0, "NWRITE": 2, "LWAVE": false, "LDOWNSAMPLE": false, "LCHARG": false, "LPARD": false, "LVTOT": false, "LVHAR": false, "LELF": false, "LOPTICS": false, "STM": [0.0, 0.0, 0.0, 0.0, 0.0, 0.0, 0.0], "NPAR": 1, "NSIM": 4, "NBLK": -1, "LPLANE": true, "LSCALAPACK": true, "LSCAAWARE": false, "LSCALU": false, "LASYNC": false, "LORBITALREAL": false, "IDIOT": 3, "PHON_NSTRUCT": -1, "LMUSIC": false, "POMASS": [7.01, 88.906, 35.453], "DARWINR": [0.0, 0.0, 0.0], "DARWINV": [1.0, 1.0, 1.0], "LCORR": true, "GGA_COMPAT": true, "LBERRY": false, "ICORELEVEL": 0, "LDAU": false, "I_CONSTRAINED_M": 0, "GGA": "--", "VOSKOWN": 0, "LHFCALC": false, "PRECFOCK": "", "LSYMGRAD": false, "LHFONE": false, "LRHFCALC": false, "LTHOMAS": false, "LMODELHF": false, "LFOCKACE": false, "ENCUT4O": -1.0, "EXXOEP": 0, "FOURORBIT": 0, "AEXX": 0.0, "HFALPHA": 0.0, "MCALPHA": 0.0, "ALDAX": 1.0, "AGGAX": 1.0, "ALDAC": 1.0, "AGGAC": 1.0, "NKREDX": 1, "NKREDY": 1, "NKREDZ": 1, "SHIFTRED": false, "ODDONLY": false, "EVENONLY": false, "LMAXFOCK": 0, "NMAXFOCKAE": 0, "LFOCKAEDFT": false, "HFSCREEN": 0.0, "HFSCREENC": 0.0, "NBANDSGWLOW": 0, "LUSE_VDW": false, "Zab_VDW": -0.8491, "PARAM1": 0.1234, "PARAM2": 1.0, "PARAM3": 0.0, "MODEL_GW": 0, "MODEL_EPS0": 31.92197859, "MODEL_ALPHA": 1.0, "LEPSILON": false, "LRPA": false, "LNABLA": false, "LVEL": false, "CSHIFT": 0.1, "OMEGAMAX": -1.0, "DEG_THRESHOLD": 0.002, "RTIME": -0.1, "WPLASMAI": 0.0, "DFIELD": [0.0, 0.0, 0.0], "WPLASMA": [0.0, 0.0, 0.0, 0.0, 0.0, 0.0, 0.0, 0.0, 0.0], "NUCIND": false, "MAGPOS": [0.0, 0.0, 0.0], "LNICSALL": true, "ORBITALMAG": false, "LMAGBLOCH": false, "LCHIMAG": false, "LGAUGE": true, "MAGATOM": 0, "MAGDIPOL": [0.0, 0.0, 0.0], "AVECCONST": [0.0, 0.0, 0.0], "LFINITE_TEMPERATURE": false, "LADDER": false, "LRPAFORCE": false, "LFXC": false, "LHARTREE": true, "IBSE": 0, "KPOINT": [-1, 0, 0, 0], "LTCTC": false, "LTCTE": false, "LTETE": false, "LTRIPLET": false, "LFXCEPS": false, "LFXHEG": false, "NATURALO": 2, "LHOLEGF": false, "L2ORDER": false, "LDMP1": false, "LMP2LT": false, "LSMP2LT": false, "LGWLF": false, "ENCUTGW": -2.0, "ENCUTGWSOFT": -2.0, "ENCUTLF": -1.0, "LESF_SPLINES": false, "LMAXMP2": -1, "SCISSOR": 0.0, "NOMEGA": 0, "NOMEGAR": 0, "NBANDSGW": -1, "NBANDSO": -1, "NBANDSV": -1, "NELMGW": 1, "NELMHF": 1, "DIM": 3, "IESPILON": 4, "ANTIRES": 0, "OMEGAMIN": -30.0, "OMEGATL": -200.0, "OMEGAGRID": 0, "LSELFENERGY": false, "LSPECTRAL": false, "LSPECTRALGW": false, "LSINGLES": false, "LFERMIGW": false, "ODDONLYGW": false, "EVENONLYGW": false, "NKREDLFX": 1, "NKREDLFY": 1, "NKREDLFZ": 1, "MAXMEM": 2800, "TELESCOPE": 0, "NTAUPAR": -1, "NOMEGAPAR": -1, "DAMP_NEWTON": 0.80000001, "LAMBDA": 1.0, "OFIELD_KAPPA": 0.0, "OFIELD_K": [0.0, 0.0, 0.0], "OFIELD_Q6_NEAR": 0.0, "OFIELD_Q6_FAR": 0.0, "OFIELD_A": 0.0, "KPOINTS_OPT_MODE": 1, "LKPOINTS_OPT": false, "@module": "pymatgen.io.vasp.inputs", "@class": "Incar"}, "relaxed_structures": {"@module": "pymatgen.core.structure", "@class": "Structure", "charge": 0, "lattice": {"matrix": [[6.097585, 0.0, 0.0], [0.000256, 11.177296, 0.0], [0.0, 0.0, 48.398915]], "a": 6.097585, "b": 11.177296002931657, "c": 48.398915, "alpha": 90.0, "beta": 90.0, "gamma": 89.99868772200783, "volume": 3298.6044539737572}, "sites": [{"species": [{"element": "Li", "occu": 1}], "abc": [0.91140841, 0.00054141, 0.02418661], "xyz": [5.557390388290809, 0.00605149982736, 1.17060568152815], "label": "Li", "properties": {}}, {"species": [{"element": "Li", "occu": 1}], "abc": [0.94084301, 0.2645952, 0.09030088], "xyz": [5.73693796150205, 2.9574588705791998, 4.3704646155452], "label": "Li", "properties": {}}, {"species": [{"element": "Li", "occu": 1}], "abc": [0.01906484, 0.7332455, 0.028831279999999997], "xyz": [0.11643719325939998, 8.195701994168, 1.3954026700612], "label": "Li", "properties": {}}, {"species": [{"element": "Li", "occu": 1}], "abc": [0.4905212, 0.08277644, 0.15972522], "xyz": [2.9910159020706395, 0.9252167717062401, 7.7305273461363], "label": "Li", "properties": {}}, {"species": [{"element": "Li", "occu": 1}], "abc": [0.5006283, 0.74301674, 0.15926147000000002], "xyz": [3.0528138249409396, 8.304918035935039, 7.708082349305051], "label": "Li", "properties": {}}, {"species": [{"element": "Li", "occu": 1}], "abc": [0.52219683, 0.78105422, 0.03180133], "xyz": [3.1843395075358694, 8.73007420898912, 1.5391498675569502], "label": "Li", "properties": {}}, {"species": [{"element": "Li", "occu": 1}], "abc": [0.47597693, 0.27451709, 0.09959412000000001], "xyz": [2.90238006508909, 3.06835877198864, 4.820247348379801], "label": "Li", "properties": {}}, {"species": [{"element": "Li", "occu": 1}], "abc": [0.49711272, 0.55942702, 0.07510804], "xyz": [3.03133027809832, 6.25288139293792, 3.6351476437766004], "label": "Li", "properties": {}}, {"species": [{"element": "Li", "occu": 1}], "abc": [0.99887974, 0.74966095, 0.15713211], "xyz": [6.0909460326311, 8.3791823377912, 7.6050236356606495], "label": "Li", "properties": {}}, {"species": [{"element": "Li", "occu": 1}], "abc": [0.99983076, 0.58924219, 0.22475043], "xyz": [6.09670389071524, 6.58613437331824, 10.87767695778345], "label": "Li", "properties": {}}, {"species": [{"element": "Li", "occu": 1}], "abc": [0.99995392, 0.74977986, 0.29197321], "xyz": [6.09749596692736, 8.38051143005856, 14.13118657306715], "label": "Li", "properties": {}}, {"species": [{"element": "Li", "occu": 1}], "abc": [0.99977598, 0.25646513, 0.22482581000000001], "xyz": [6.09628467408158, 2.86658667168848, 10.881325267996152], "label": "Li", "properties": {}}, {"species": [{"element": "Li", "occu": 1}], "abc": [0.50540841, 0.56011269, 0.37434172], "xyz": [3.08191412853849, 6.26054532948624, 18.117733087233802], "label": "Li", "properties": {}}, {"species": [{"element": "Li", "occu": 1}], "abc": [0.52437623, 0.27559074, 0.35020502], "xyz": [3.1974991856339896, 3.08035927583904, 16.9495429955533], "label": "Li", "properties": {}}, {"species": [{"element": "Li", "occu": 1}], "abc": [0.4998817, 0.26792197, 0.22466287000000001], "xyz": [3.04813974371882, 2.9946431635931203, 10.873439148786051], "label": "Li", "properties": {}}, {"species": [{"element": "Li", "occu": 1}], "abc": [0.49833175, 0.74464181, 0.28978666999999997], "xyz": [3.0388108321271097, 8.32308192434576, 14.02536040946305], "label": "Li", "properties": {}}, {"species": [{"element": "Li", "occu": 1}], "abc": [0.50809092, 0.08338408, 0.28944641], "xyz": [3.09814891875268, 0.93200854384768, 14.00889219464515], "label": "Li", "properties": {}}, {"species": [{"element": "Li", "occu": 1}], "abc": [0.06072533, 0.26506696, 0.35902136999999995], "xyz": [0.37034571846980996, 2.9627318717401603, 17.37624476981355], "label": "Li", "properties": {}}, {"species": [{"element": "Li", "occu": 1}], "abc": [0.08939758, 0.99995582, 0.42480374], "xyz": [0.5453653315342201, 11.176802187062721, 20.5600401039421], "label": "Li", "properties": {}}, {"species": [{"element": "Li", "occu": 1}], "abc": [0.98345381, 0.73224024, 0.42048021999999996], "xyz": [5.996880653550289, 8.18446590559104, 20.3507864269613], "label": "Li", "properties": {}}, {"species": [{"element": "Li", "occu": 1}], "abc": [0.47839617, 0.78114846, 0.41737508999999995], "xyz": [2.91726128425521, 8.731127557364161, 20.200501504027347], "label": "Li", "properties": {}}, {"species": [{"element": "Y", "occu": 1}], "abc": [0.0143826, 0.91632418, 0.09308621], "xyz": [0.08793370501108, 10.24202659181728, 4.5052715654621505], "label": "Y", "properties": {}}, {"species": [{"element": "Y", "occu": 1}], "abc": [0.9924129, 0.41830642, 0.15666975], "xyz": [6.0514290992900195, 4.67553467504032, 7.58264591332125], "label": "Y", "properties": {}}, {"species": [{"element": "Y", "occu": 1}], "abc": [0.99923286, 0.92764144, 0.22457771], "xyz": [6.09314477485174, 10.36852295674624, 10.869317497184651], "label": "Y", "properties": {}}, {"species": [{"element": "Y", "occu": 1}], "abc": [0.00675017, 0.41854787, 0.29270875999999996], "xyz": [0.04126688359417, 4.67823343315952, 14.166786394995398], "label": "Y", "properties": {}}, {"species": [{"element": "Y", "occu": 1}], "abc": [0.98520709, 0.91644395, 0.35606378], "xyz": [6.007618583528849, 10.243365296559201, 17.233100622798702], "label": "Y", "properties": {}}, {"species": [{"element": "Cl", "occu": 1}], "abc": [0.23100893, 0.58943912, 0.17958413], "xyz": [1.40874748284877, 6.58833551821952, 8.69167704321895], "label": "Cl", "properties": {}}, {"species": [{"element": "Cl", "occu": 1}], "abc": [0.23769847, 0.92343455, 0.04420681], "xyz": [1.4496230244397499, 10.3215013019768, 2.13956163961115], "label": "Cl", "properties": {}}, {"species": [{"element": "Cl", "occu": 1}], "abc": [0.25664141, 0.75235753, 0.11591992000000001], "xyz": [1.56508541552253, 8.40932281063888, 5.610398354886801], "label": "Cl", "properties": {}}, {"species": [{"element": "Cl", "occu": 1}], "abc": [0.19544915, 0.4160467, 0.10811455], "xyz": [1.19187431325795, 4.6502771157232, 5.232626915713251], "label": "Cl", "properties": {}}, {"species": [{"element": "Cl", "occu": 1}], "abc": [0.31323127, 0.61072032, 0.0342846], "xyz": [1.9101106378848698, 6.82620178985472, 1.659337441209], "label": "Cl", "properties": {}}, {"species": [{"element": "Cl", "occu": 1}], "abc": [0.25651125, 0.91485529, 0.17969859], "xyz": [1.56433335328549, 10.22560837349584, 8.69721678302985], "label": "Cl", "properties": {}}, {"species": [{"element": "Cl", "occu": 1}], "abc": [0.25295817, 0.25595545, 0.18084003], "xyz": [1.5424994676146497, 2.8608898274631995, 8.75246124056745], "label": "Cl", "properties": {}}, {"species": [{"element": "Cl", "occu": 1}], "abc": [0.25314411, 0.09931809, 0.11041151], "xyz": [1.5435931534053897, 1.11010769008464, 5.34379728751165], "label": "Cl", "properties": {}}, {"species": [{"element": "Cl", "occu": 1}], "abc": [0.74452719, 0.59104327, 0.1378381], "xyz": [4.53996913291327, 6.60626557759792, 6.6712144856615], "label": "Cl", "properties": {}}, {"species": [{"element": "Cl", "occu": 1}], "abc": [0.67873248, 0.38110813, 0.0683313], "xyz": [4.138726552742079, 4.25975837701648, 3.3071607805395002], "label": "Cl", "properties": {}}, {"species": [{"element": "Cl", "occu": 1}], "abc": [0.78178805, 0.74009934, 0.06919164], "xyz": [4.767208552290289, 8.27230939258464, 3.3488003030706], "label": "Cl", "properties": {}}, {"species": [{"element": "Cl", "occu": 1}], "abc": [0.75608525, 0.91372112, 0.13663746000000002], "xyz": [4.610527991727969, 10.21293141969152, 6.6131048123559015], "label": "Cl", "properties": {}}, {"species": [{"element": "Cl", "occu": 1}], "abc": [0.74155013, 0.24432957, 0.13555783], "xyz": [4.52172749780597, 2.73094392544272, 6.56085189175445], "label": "Cl", "properties": {}}, {"species": [{"element": "Cl", "occu": 1}], "abc": [0.78099972, 0.84393656, 9.99999999999994e-05], "xyz": [4.762428225435559, 9.43292873634176, 0.004839891499999971], "label": "Cl", "properties": {}}, {"species": [{"element": "Cl", "occu": 1}], "abc": [0.7816984, 0.07888126, 0.06598011000000001], "xyz": [4.7664926319665595, 0.88167919187296, 3.1933657355806506], "label": "Cl", "properties": {}}, {"species": [{"element": "Cl", "occu": 1}], "abc": [0.2189051, 0.07895921, 0.38315802], "xyz": [1.33481266774126, 0.8825504620961601, 18.5444324415483], "label": "Cl", "properties": {}}, {"species": [{"element": "Cl", "occu": 1}], "abc": [0.22873985, 0.75480083, 0.24797943000000003], "xyz": [1.39495390727473, 8.43663229795568, 12.001935354318451], "label": "Cl", "properties": {}}, {"species": [{"element": "Cl", "occu": 1}], "abc": [0.23313915, 0.41691361, 0.24591876], "xyz": [1.4216925138369099, 4.65996682539856, 11.9022011621454], "label": "Cl", "properties": {}}, {"species": [{"element": "Cl", "occu": 1}], "abc": [0.25862083, 0.24510519, 0.31391695999999997], "xyz": [1.57702524062419, 2.73961325976624, 15.1932402640984], "label": "Cl", "properties": {}}, {"species": [{"element": "Cl", "occu": 1}], "abc": [0.24289453, 0.91415863, 0.31246292999999997], "xyz": [1.4813040673193298, 10.21782159846448, 15.12286678972095], "label": "Cl", "properties": {}}, {"species": [{"element": "Cl", "occu": 1}], "abc": [0.24935268, 0.09864955, 0.24566274000000002], "xyz": [1.5204744155626, 1.1026352206168, 11.889810071927101], "label": "Cl", "properties": {}}, {"species": [{"element": "Cl", "occu": 1}], "abc": [0.32066269, 0.38226121, 0.38127909], "xyz": [1.9553658674734098, 4.27264669348816, 18.45349426818735], "label": "Cl", "properties": {}}, {"species": [{"element": "Cl", "occu": 1}], "abc": [0.21878826, 0.74024572, 0.38000768999999995], "xyz": [1.33426951525642, 8.27394552517312, 18.39195988765635], "label": "Cl", "properties": {}}, {"species": [{"element": "Cl", "occu": 1}], "abc": [0.25445134, 0.59148426, 0.31130816], "xyz": [1.55169009398446, 6.61119465336096, 15.0669771746464], "label": "Cl", "properties": {}}, {"species": [{"element": "Cl", "occu": 1}], "abc": [0.74650236, 0.09940309, 0.3388368], "xyz": [4.55188703999164, 1.11105776024464, 16.399333482072002], "label": "Cl", "properties": {}}, {"species": [{"element": "Cl", "occu": 1}], "abc": [0.74228917, 0.91488167, 0.26954775999999997], "xyz": [4.52640551836197, 10.22590323056432, 13.0458191246804], "label": "Cl", "properties": {}}, {"species": [{"element": "Cl", "occu": 1}], "abc": [0.74714816, 0.255636, 0.26846855], "xyz": [4.5558648560096, 2.857319240256, 12.993586531623249], "label": "Cl", "properties": {}}, {"species": [{"element": "Cl", "occu": 1}], "abc": [0.80435708, 0.41649659, 0.34135464], "xyz": [4.90474228877884, 4.65530566942064, 16.5211942062156], "label": "Cl", "properties": {}}, {"species": [{"element": "Cl", "occu": 1}], "abc": [0.74956968, 0.09861702, 0.20361597], "xyz": [4.57059008317992, 1.10227162317792, 9.85479202467255], "label": "Cl", "properties": {}}, {"species": [{"element": "Cl", "occu": 1}], "abc": [0.74211175, 0.75253042, 0.3333212], "xyz": [4.525282122911269, 8.41125525334432, 16.132384426498], "label": "Cl", "properties": {}}, {"species": [{"element": "Cl", "occu": 1}], "abc": [0.77019717, 0.75445156, 0.20122136000000002], "xyz": [4.6965358504338095, 8.432728403781761, 9.738895498824402], "label": "Cl", "properties": {}}, {"species": [{"element": "Cl", "occu": 1}], "abc": [0.7667504, 0.41636106, 0.20348897], "xyz": [4.67543232621536, 4.65379081049376, 9.84864536246755], "label": "Cl", "properties": {}}, {"species": [{"element": "Cl", "occu": 1}], "abc": [0.76764054, 0.58907781, 0.26966995], "xyz": [4.68090424601526, 6.58429704940176, 13.05173298810425], "label": "Cl", "properties": {}}, {"species": [{"element": "Cl", "occu": 1}], "abc": [0.21971903, 0.84388612, 0.44910207999999996], "xyz": [1.33997149638927, 9.43236495353152, 21.7360533962432], "label": "Cl", "properties": {}}, {"species": [{"element": "Cl", "occu": 1}], "abc": [0.68725098, 0.61083876, 0.41518763999999997], "xyz": [4.19072764160586, 6.82752562879296, 20.0946312974106], "label": "Cl", "properties": {}}, {"species": [{"element": "Cl", "occu": 1}], "abc": [0.76294612, 0.92339901, 0.40493668], "xyz": [4.652365207266759, 10.32110406087696, 19.5984959557022], "label": "Cl", "properties": {}}]}, "formula": "(Li3YCl6)5.0(LiCl)6.0", "bandgap": 4.684, "slab_thickness": 21.7312135047432}