{"miller": "001_0.72", "final_energy": -257.82589977, "gamma": 0.010248872746551754, "work_function": "Not calculated", "ionization_potentail": "Not calculated", "electron_affinity": "Not calculated", "is_stochiometric": true, "incar_parameters": {"SYSTEM": "unknown system", "LCOMPAT": false, "PREC": "normal", "ENMAX": 520.0, "ENAUG": 628.945, "EDIFF": 1e-05, "IALGO": 38, "IWAVPR": 11, "NBANDS": 223, "NBANDSLOW": -1, "NBANDSHIGH": -1, "NELECT": 372.0, "TURBO": 0, "IRESTART": 0, "NREBOOT": 0, "NMIN": 0, "EREF": 0.0, "ISMEAR": 0, "SIGMA": 0.05, "KSPACING": 0.5, "KGAMMA": true, "KBLOWUP": true, "LREAL": true, "ROPT": [-0.0005, -0.0005, -0.0005], "LMAXPAW": -100, "LMAXMIX": 4, "NLSPLINE": false, "ISTART": 0, "ICHARG": 2, "INIWAV": 1, "ISPIN": 1, "LNONCOLLINEAR": false, "MAGMOM": [0.6, 0.6, 0.6, 0.6, 0.6, 0.6, 0.6, 0.6, 0.6, 0.6, 0.6, 0.6, 0.6, 0.6, 0.6, 0.6, 0.6, 0.6, 0.6, 0.6, 0.6, 0.6, 0.6, 0.6, 0.6, 0.6, 0.6, 0.6, 0.6, 0.6, 0.6, 0.6, 0.6, 0.6, 0.6, 0.6, 0.6, 0.6, 0.6, 0.6, 0.6, 0.6, 0.6, 0.6, 0.6, 0.6, 0.6, 0.6, 0.6, 0.6, 0.6, 0.6, 0.6, 0.6, 0.6, 0.6, 0.6, 0.6, 0.6, 0.6], "NUPDOWN": -1.0, "LSORBIT": false, "SAXIS": [0.0, 0.0, 1.0], "LSPIRAL": false, "QSPIRAL": [0.0, 0.0, 0.0], "LZEROZ": false, "LASPH": false, "LMETAGGA": false, "NELM": 100, "NELMDL": -5, "NELMIN": 6, "ENINI": 520.0, "LDIAG": true, "LSUBROT": false, "WEIMIN": 0.001, "EBREAK": 1e-08, "DEPER": 0.3, "NRMM": 4, "TIME": 0.4, "AMIX": 0.4, "BMIX": 1.0, "AMIN": 0.1, "AMIX_MAG": 1.6, "BMIX_MAG": 1.0, "IMIX": 4, "MIXFIRST": false, "MAXMIX": -45, "WC": 100.0, "INIMIX": 1, "MIXPRE": 1, "MREMOVE": 5, "LDIPOL": false, "LMONO": false, "IDIPOL": 0, "EPSILON": 1.0, "DIPOL": [-100.0, -100.0, -100.0], "EFIELD": 0.0, "NGX": 36, "NGY": 64, "NGZ": 270, "NGXF": 72, "NGYF": 128, "NGZF": 540, "ADDGRID": false, "NSW": 150, "IBRION": 2, "MDALGO": 0, "ISIF": 2, "PSTRESS": 0.0, "EDIFFG": -0.01, "NFREE": 1, "POTIM": 0.5, "SMASS": -3.0, "SCALEE": 1.0, "TEBEG": 0.0001, "TEEND": 0.0001, "NBLOCK": 1, "KBLOCK": 150, "NPACO": 256, "APACO": 10.0, "ISYM": 0, "SYMPREC": 1e-05, "LORBIT": 11, "RWIGS": [-1.0, -1.0, -1.0], "NEDOS": 301, "EMIN": 10.0, "EMAX": -10.0, "EFERMI": 0.0, "NWRITE": 2, "LWAVE": false, "LDOWNSAMPLE": false, "LCHARG": false, "LPARD": false, "LVTOT": false, "LVHAR": false, "LELF": false, "LOPTICS": false, "STM": [0.0, 0.0, 0.0, 0.0, 0.0, 0.0, 0.0], "NPAR": 1, "NSIM": 4, "NBLK": -1, "LPLANE": true, "LSCALAPACK": true, "LSCAAWARE": false, "LSCALU": false, "LASYNC": false, "LORBITALREAL": false, "IDIOT": 3, "PHON_NSTRUCT": -1, "LMUSIC": false, "POMASS": [7.01, 88.906, 35.453], "DARWINR": [0.0, 0.0, 0.0], "DARWINV": [1.0, 1.0, 1.0], "LCORR": true, "GGA_COMPAT": true, "LBERRY": false, "ICORELEVEL": 0, "LDAU": false, "I_CONSTRAINED_M": 0, "GGA": "--", "VOSKOWN": 0, "LHFCALC": false, "PRECFOCK": "", "LSYMGRAD": false, "LHFONE": false, "LRHFCALC": false, "LTHOMAS": false, "LMODELHF": false, "LFOCKACE": false, "ENCUT4O": -1.0, "EXXOEP": 0, "FOURORBIT": 0, "AEXX": 0.0, "HFALPHA": 0.0, "MCALPHA": 0.0, "ALDAX": 1.0, "AGGAX": 1.0, "ALDAC": 1.0, "AGGAC": 1.0, "NKREDX": 1, "NKREDY": 1, "NKREDZ": 1, "SHIFTRED": false, "ODDONLY": false, "EVENONLY": false, "LMAXFOCK": 0, "NMAXFOCKAE": 0, "LFOCKAEDFT": false, "HFSCREEN": 0.0, "HFSCREENC": 0.0, "NBANDSGWLOW": 0, "LUSE_VDW": false, "Zab_VDW": -0.8491, "PARAM1": 0.1234, "PARAM2": 1.0, "PARAM3": 0.0, "MODEL_GW": 0, "MODEL_EPS0": 32.98604454, "MODEL_ALPHA": 1.0, "LEPSILON": false, "LRPA": false, "LNABLA": false, "LVEL": false, "CSHIFT": 0.1, "OMEGAMAX": -1.0, "DEG_THRESHOLD": 0.002, "RTIME": -0.1, "WPLASMAI": 0.0, "DFIELD": [0.0, 0.0, 0.0], "WPLASMA": [0.0, 0.0, 0.0, 0.0, 0.0, 0.0, 0.0, 0.0, 0.0], "NUCIND": false, "MAGPOS": [0.0, 0.0, 0.0], "LNICSALL": true, "ORBITALMAG": false, "LMAGBLOCH": false, "LCHIMAG": false, "LGAUGE": true, "MAGATOM": 0, "MAGDIPOL": [0.0, 0.0, 0.0], "AVECCONST": [0.0, 0.0, 0.0], "LFINITE_TEMPERATURE": false, "LADDER": false, "LRPAFORCE": false, "LFXC": false, "LHARTREE": true, "IBSE": 0, "KPOINT": [-1, 0, 0, 0], "LTCTC": false, "LTCTE": false, "LTETE": false, "LTRIPLET": false, "LFXCEPS": false, "LFXHEG": false, "NATURALO": 2, "LHOLEGF": false, "L2ORDER": false, "LDMP1": false, "LMP2LT": false, "LSMP2LT": false, "LGWLF": false, "ENCUTGW": -2.0, "ENCUTGWSOFT": -2.0, "ENCUTLF": -1.0, "LESF_SPLINES": false, "LMAXMP2": -1, "SCISSOR": 0.0, "NOMEGA": 0, "NOMEGAR": 0, "NBANDSGW": -1, "NBANDSO": -1, "NBANDSV": -1, "NELMGW": 1, "NELMHF": 1, "DIM": 3, "IESPILON": 4, "ANTIRES": 0, "OMEGAMIN": -30.0, "OMEGATL": -200.0, "OMEGAGRID": 0, "LSELFENERGY": false, "LSPECTRAL": false, "LSPECTRALGW": false, "LSINGLES": false, "LFERMIGW": false, "ODDONLYGW": false, "EVENONLYGW": false, "NKREDLFX": 1, "NKREDLFY": 1, "NKREDLFZ": 1, "MAXMEM": 2800, "TELESCOPE": 0, "NTAUPAR": -1, "NOMEGAPAR": -1, "DAMP_NEWTON": 0.80000001, "LAMBDA": 1.0, "OFIELD_KAPPA": 0.0, "OFIELD_K": [0.0, 0.0, 0.0], "OFIELD_Q6_NEAR": 0.0, "OFIELD_Q6_FAR": 0.0, "OFIELD_A": 0.0, "KPOINTS_OPT_MODE": 1, "LKPOINTS_OPT": false, "@module": "pymatgen.io.vasp.inputs", "@class": "Incar"}, "relaxed_structures": {"@module": "pymatgen.core.structure", "@class": "Structure", "charge": 0, "lattice": {"matrix": [[6.097585, 0.0, 0.0], [0.000256, 11.177296, 0.0], [0.0, 0.0, 48.398915]], "a": 6.097585, "b": 11.177296002931657, "c": 48.398915, "alpha": 90.0, "beta": 90.0, "gamma": 89.99868772200783, "volume": 3298.6044539737572}, "sites": [{"species": [{"element": "Li", "occu": 1}], "abc": [0.98535448, 0.29197876, 0.11138249], "xyz": [6.0083574434933595, 3.26353302623296, 5.39079166599835], "label": "Li", "properties": {}}, {"species": [{"element": "Li", "occu": 1}], "abc": [3.595e-05, 0.47195147, 0.17671530000000002], "xyz": [0.00034002775706999997, 5.27514127782512, 8.552828783899502], "label": "Li", "properties": {}}, {"species": [{"element": "Li", "occu": 1}], "abc": [0.99179193, 0.9745182, 0.10941446], "xyz": [6.04778507214825, 10.8924783787872, 5.295541149310901], "label": "Li", "properties": {}}, {"species": [{"element": "Li", "occu": 1}], "abc": [0.54213032, 0.87530556, 0.04930817], "xyz": [3.30590978550056, 9.78354933456576, 2.38646192863555], "label": "Li", "properties": {}}, {"species": [{"element": "Li", "occu": 1}], "abc": [0.50457859, 0.41373923, 0.055940699999999996], "xyz": [3.07681675894803, 4.62448584052208, 2.7074691843405], "label": "Li", "properties": {}}, {"species": [{"element": "Li", "occu": 1}], "abc": [0.48956426, 0.99930046, 0.11112895], "xyz": [2.9854155092298598, 11.16947703435616, 5.378520605089251], "label": "Li", "properties": {}}, {"species": [{"element": "Li", "occu": 1}], "abc": [0.50085609, 0.46556186, 0.17509734999999998], "xyz": [3.0541317653788096, 5.20372271553056, 8.47452175937525], "label": "Li", "properties": {}}, {"species": [{"element": "Li", "occu": 1}], "abc": [0.52839001, 0.80358308, 0.17741287], "xyz": [3.2221087163943296, 8.98188594575168, 8.586590415036051], "label": "Li", "properties": {}}, {"species": [{"element": "Li", "occu": 1}], "abc": [0.99851826, 0.44716573, 0.051758540000000006], "xyz": [6.08866443882898, 4.99810372526608, 2.5050571779841], "label": "Li", "properties": {}}, {"species": [{"element": "Li", "occu": 1}], "abc": [0.01712389, 0.79201887, 0.31077754999999996], "xyz": [0.10461713163636999, 8.85262934757552, 15.041296226358249], "label": "Li", "properties": {}}, {"species": [{"element": "Li", "occu": 1}], "abc": [0.00243456, 0.94677463, 0.37038166], "xyz": [0.01508731084288, 10.582380284800479, 17.9260704798989], "label": "Li", "properties": {}}, {"species": [{"element": "Li", "occu": 1}], "abc": [0.00802245, 0.47495749, 0.31272744999999996], "xyz": [0.04903915990069, 5.30874045314704, 15.135669270716749], "label": "Li", "properties": {}}, {"species": [{"element": "Li", "occu": 1}], "abc": [0.47217843, 0.30441599, 0.24492396], "xyz": [2.87922604258499, 3.4025476273630404, 11.8540539215034], "label": "Li", "properties": {}}, {"species": [{"element": "Li", "occu": 1}], "abc": [0.49848618, 0.96824209, 0.24670267], "xyz": [3.0398097238503397, 10.82232843958864, 11.94014155560305], "label": "Li", "properties": {}}, {"species": [{"element": "Li", "occu": 1}], "abc": [0.50949081, 0.50010328, 0.31082167], "xyz": [3.1067915471335295, 5.58980239113088, 15.043431586488051], "label": "Li", "properties": {}}, {"species": [{"element": "Li", "occu": 1}], "abc": [0.4978389, 0.91490267, 0.36632606], "xyz": [3.0358492241400197, 10.22613795378032, 17.7297838402249], "label": "Li", "properties": {}}, {"species": [{"element": "Li", "occu": 1}], "abc": [0.45698744, 0.37359328, 0.37306174], "xyz": [2.7866153992120797, 4.175762674170881, 18.0557834440121], "label": "Li", "properties": {}}, {"species": [{"element": "Li", "occu": 1}], "abc": [0.9998737, 0.97208922, 0.24549995999999996], "xyz": [6.09706372985482, 10.86532895034912, 11.881931696543399], "label": "Li", "properties": {}}, {"species": [{"element": "Y", "occu": 1}], "abc": [0.01466931, 0.64518438, 0.11018589], "xyz": [0.08961253181762999, 7.2114167898364805, 5.33287752430935], "label": "Y", "properties": {}}, {"species": [{"element": "Y", "occu": 1}], "abc": [0.99366315, 0.13311831, 0.18007858999999998], "xyz": [6.05897959678011, 1.48790275388976, 8.71560837072985], "label": "Y", "properties": {}}, {"species": [{"element": "Y", "occu": 1}], "abc": [0.98440087, 0.13128432, 0.03698323], "xyz": [6.002501587684869, 1.46740370479872, 1.78994820519545], "label": "Y", "properties": {}}, {"species": [{"element": "Y", "occu": 1}], "abc": [0.98532554, 0.14501448, 0.31198751999999996], "xyz": [6.00814335652778, 1.6208697672460801, 15.099857461540799], "label": "Y", "properties": {}}, {"species": [{"element": "Y", "occu": 1}], "abc": [0.01403485, 0.630939, 0.38521509], "xyz": [0.08574021122124999, 7.0521919609440005, 18.64399239762735], "label": "Y", "properties": {}}, {"species": [{"element": "Y", "occu": 1}], "abc": [0.00584923, 0.63347472, 0.24195944999999996], "xyz": [0.035828346637870004, 7.080534453957121, 11.710574853996748], "label": "Y", "properties": {}}, {"species": [{"element": "Cl", "occu": 1}], "abc": [0.21896115, 0.29309738, 0.0689549], "xyz": [1.33520925675203, 3.27603617308448, 3.3373423439335], "label": "Cl", "properties": {}}, {"species": [{"element": "Cl", "occu": 1}], "abc": [0.23293831, 0.46946962, 0.1340654], "xyz": [1.42048132920407, 5.2474009057475195, 6.488619899041001], "label": "Cl", "properties": {}}, {"species": [{"element": "Cl", "occu": 1}], "abc": [0.22151372, 0.13386696, 0.13338875], "xyz": [1.35073300630796, 1.4962706365401601, 6.45587077320625], "label": "Cl", "properties": {}}, {"species": [{"element": "Cl", "occu": 1}], "abc": [0.25477751, 0.15602978, 9.99999999999994e-05], "xyz": [1.5535674669370299, 1.74399103587488, 0.004839891499999971], "label": "Cl", "properties": {}}, {"species": [{"element": "Cl", "occu": 1}], "abc": [0.25087248, 0.81703425, 0.13138655999999999], "xyz": [1.5299254317287998, 9.132233654388, 6.3589669495824], "label": "Cl", "properties": {}}, {"species": [{"element": "Cl", "occu": 1}], "abc": [0.23211679, 0.61089865, 0.06265122], "xyz": [1.4155082470065499, 6.8281950370504, 3.0322510714263], "label": "Cl", "properties": {}}, {"species": [{"element": "Cl", "occu": 1}], "abc": [0.24078873, 0.97393126, 0.06767531], "xyz": [1.46847907461961, 10.88591797667296, 3.27541157628865], "label": "Cl", "properties": {}}, {"species": [{"element": "Cl", "occu": 1}], "abc": [0.76232257, 0.33477532, 0.024385530000000002], "xyz": [4.64841237047537, 3.74188284513472, 1.1802331936999502], "label": "Cl", "properties": {}}, {"species": [{"element": "Cl", "occu": 1}], "abc": [0.75295883, 0.63323434, 0.15505936999999997], "xyz": [4.591392575416589, 7.07784765554464, 7.504705268583549], "label": "Cl", "properties": {}}, {"species": [{"element": "Cl", "occu": 1}], "abc": [0.74002474, 0.97310236, 0.15414865], "xyz": [4.51261286845706, 10.876653116018561, 7.460627408714751], "label": "Cl", "properties": {}}, {"species": [{"element": "Cl", "occu": 1}], "abc": [0.75021874, 0.80987426, 0.08917791], "xyz": [4.5747298635534595, 9.05220432680096, 4.316114085967651], "label": "Cl", "properties": {}}, {"species": [{"element": "Cl", "occu": 1}], "abc": [0.76550135, 0.95457471, 0.01716229], "xyz": [4.667953920365509, 10.669564087784162, 0.83063621491535], "label": "Cl", "properties": {}}, {"species": [{"element": "Cl", "occu": 1}], "abc": [0.75738615, 0.47118722, 0.09040705], "xyz": [4.618347051376069, 5.2665990293571205, 4.37560312835075], "label": "Cl", "properties": {}}, {"species": [{"element": "Cl", "occu": 1}], "abc": [0.75770565, 0.12969797, 0.08796222], "xyz": [4.62020780853557, 1.44967260128912, 4.2572760089913], "label": "Cl", "properties": {}}, {"species": [{"element": "Cl", "occu": 1}], "abc": [0.76600152, 0.30751236, 0.15627502999999998], "xyz": [4.670838101493359, 3.4371566713785597, 7.56354189359245], "label": "Cl", "properties": {}}, {"species": [{"element": "Cl", "occu": 1}], "abc": [0.23402274, 0.80781595, 0.26580619], "xyz": [1.4271803499660998, 9.0291979866712, 12.86473119628385], "label": "Cl", "properties": {}}, {"species": [{"element": "Cl", "occu": 1}], "abc": [0.24332151, 0.97135349, 0.33175054], "xyz": [1.48392225604679, 10.85710547836304, 16.0563661866641], "label": "Cl", "properties": {}}, {"species": [{"element": "Cl", "occu": 1}], "abc": [0.24163198, 0.62964767, 0.33420669], "xyz": [1.4735327265718199, 7.03775838330032, 16.17524118174135], "label": "Cl", "properties": {}}, {"species": [{"element": "Cl", "occu": 1}], "abc": [0.24503262, 0.96924885, 0.20295319], "xyz": [1.4943553559282998, 10.833581294109601, 9.822714191788851], "label": "Cl", "properties": {}}, {"species": [{"element": "Cl", "occu": 1}], "abc": [0.25489922, 0.63007652, 0.19732189], "xyz": [1.5544309599728199, 7.04255176668992, 9.55016538174935], "label": "Cl", "properties": {}}, {"species": [{"element": "Cl", "occu": 1}], "abc": [0.24931331, 0.31003623, 0.3329504], "xyz": [1.52028846863123, 3.46536671343408, 16.114438108816], "label": "Cl", "properties": {}}, {"species": [{"element": "Cl", "occu": 1}], "abc": [0.24684279, 0.13352557, 0.26709283], "xyz": [1.50517907620807, 1.4924548194587202, 12.92700317627945], "label": "Cl", "properties": {}}, {"species": [{"element": "Cl", "occu": 1}], "abc": [0.25956383, 0.47348223, 0.26794121], "xyz": [1.5828337278014297, 5.2922510354500805, 12.96806384778715], "label": "Cl", "properties": {}}, {"species": [{"element": "Cl", "occu": 1}], "abc": [0.25172772, 0.30865363, 0.19904657999999997], "xyz": [1.5350101848854798, 3.44991298398448, 9.633638506460699], "label": "Cl", "properties": {}}, {"species": [{"element": "Cl", "occu": 1}], "abc": [0.74753184, 0.80897481, 0.22308113000000002], "xyz": [4.558346032157759, 9.042150907913761, 10.79688464897395], "label": "Cl", "properties": {}}, {"species": [{"element": "Cl", "occu": 1}], "abc": [0.76815064, 0.11016119, 0.35962691999999996], "xyz": [4.68389202146904, 1.2313042283422402, 17.4055527327918], "label": "Cl", "properties": {}}, {"species": [{"element": "Cl", "occu": 1}], "abc": [0.75756565, 0.47369039, 0.3546194], "xyz": [4.619442208695089, 5.29457770138544, 17.163194197951], "label": "Cl", "properties": {}}, {"species": [{"element": "Cl", "occu": 1}], "abc": [0.74487118, 0.13020673, 0.22473976], "xyz": [4.5419486670231795, 1.4553591624020799, 10.877160541360402], "label": "Cl", "properties": {}}, {"species": [{"element": "Cl", "occu": 1}], "abc": [0.74917345, 0.3172169, 0.29083814999999996], "xyz": [4.56822999864465, 3.5456271875024004, 14.07625090060725], "label": "Cl", "properties": {}}, {"species": [{"element": "Cl", "occu": 1}], "abc": [0.75433426, 0.46946341, 0.21904010000000002], "xyz": [4.59973745139506, 5.247331494739361, 10.6013031814915], "label": "Cl", "properties": {}}, {"species": [{"element": "Cl", "occu": 1}], "abc": [0.76651068, 0.97003173, 0.28800834], "xyz": [4.674112352830679, 10.84233177560208, 13.939291166951099], "label": "Cl", "properties": {}}, {"species": [{"element": "Cl", "occu": 1}], "abc": [0.77860286, 0.63404991, 0.28871468], "xyz": [4.7477594368700595, 7.08696352284336, 13.9734772565722], "label": "Cl", "properties": {}}, {"species": [{"element": "Cl", "occu": 1}], "abc": [0.78091392, 0.79293643, 0.35313785999999997], "xyz": [4.76189199660928, 8.86288518729328, 17.0914892694219], "label": "Cl", "properties": {}}, {"species": [{"element": "Cl", "occu": 1}], "abc": [0.23246006, 0.45388835, 0.40498824], "xyz": [1.4175611703727, 5.0732444389016, 19.6009914037596], "label": "Cl", "properties": {}}, {"species": [{"element": "Cl", "occu": 1}], "abc": [0.2382181, 0.83428816, 0.39759005], "xyz": [1.4527686910574598, 9.32508571361536, 19.24292703479575], "label": "Cl", "properties": {}}, {"species": [{"element": "Cl", "occu": 1}], "abc": [0.74591019, 0.65651431, 0.42235775], "xyz": [4.54841885355451, 7.33805477110576, 20.44165684184125], "label": "Cl", "properties": {}}]}, "formula": "(Li3YCl6)6.0", "bandgap": 4.2067, "slab_thickness": 20.43681695034125}