{"miller": "001_0.78", "final_energy": -215.2672098, "gamma": 0.013407174385843969, "work_function": "Not calculated", "ionization_potentail": "Not calculated", "electron_affinity": "Not calculated", "is_stochiometric": false, "incar_parameters": {"SYSTEM": "unknown system", "LCOMPAT": false, "PREC": "normal", "ENMAX": 520.0, "ENAUG": 628.945, "EDIFF": 1e-05, "IALGO": 38, "IWAVPR": 11, "NBANDS": 184, "NBANDSLOW": -1, "NBANDSHIGH": -1, "NELECT": 308.0, "TURBO": 0, "IRESTART": 0, "NREBOOT": 0, "NMIN": 0, "EREF": 0.0, "ISMEAR": 0, "SIGMA": 0.05, "KSPACING": 0.5, "KGAMMA": true, "KBLOWUP": true, "LREAL": true, "ROPT": [-0.0005, -0.0005, -0.0005], "LMAXPAW": -100, "LMAXMIX": 4, "NLSPLINE": false, "ISTART": 0, "ICHARG": 2, "INIWAV": 1, "ISPIN": 1, "LNONCOLLINEAR": false, "MAGMOM": [0.6, 0.6, 0.6, 0.6, 0.6, 0.6, 0.6, 0.6, 0.6, 0.6, 0.6, 0.6, 0.6, 0.6, 0.6, 0.6, 0.6, 0.6, 0.6, 0.6, 0.6, 0.6, 0.6, 0.6, 0.6, 0.6, 0.6, 0.6, 0.6, 0.6, 0.6, 0.6, 0.6, 0.6, 0.6, 0.6, 0.6, 0.6, 0.6, 0.6, 0.6, 0.6, 0.6, 0.6, 0.6, 0.6, 0.6, 0.6, 0.6, 0.6, 0.6, 0.6], "NUPDOWN": -1.0, "LSORBIT": false, "SAXIS": [0.0, 0.0, 1.0], "LSPIRAL": false, "QSPIRAL": [0.0, 0.0, 0.0], "LZEROZ": false, "LASPH": false, "LMETAGGA": false, "NELM": 100, "NELMDL": -5, "NELMIN": 6, "ENINI": 520.0, "LDIAG": true, "LSUBROT": false, "WEIMIN": 0.001, "EBREAK": 1e-08, "DEPER": 0.3, "NRMM": 4, "TIME": 0.4, "AMIX": 0.4, "BMIX": 1.0, "AMIN": 0.1, "AMIX_MAG": 1.6, "BMIX_MAG": 1.0, "IMIX": 4, "MIXFIRST": false, "MAXMIX": -45, "WC": 100.0, "INIMIX": 1, "MIXPRE": 1, "MREMOVE": 5, "LDIPOL": false, "LMONO": false, "IDIPOL": 0, "EPSILON": 1.0, "DIPOL": [-100.0, -100.0, -100.0], "EFIELD": 0.0, "NGX": 36, "NGY": 64, "NGZ": 270, "NGXF": 72, "NGYF": 128, "NGZF": 540, "ADDGRID": false, "NSW": 150, "IBRION": 2, "MDALGO": 0, "ISIF": 2, "PSTRESS": 0.0, "EDIFFG": -0.01, "NFREE": 1, "POTIM": 0.5, "SMASS": -3.0, "SCALEE": 1.0, "TEBEG": 0.0001, "TEEND": 0.0001, "NBLOCK": 1, "KBLOCK": 150, "NPACO": 256, "APACO": 10.0, "ISYM": 0, "SYMPREC": 1e-05, "LORBIT": 11, "RWIGS": [-1.0, -1.0, -1.0], "NEDOS": 301, "EMIN": 10.0, "EMAX": -10.0, "EFERMI": 0.0, "NWRITE": 2, "LWAVE": false, "LDOWNSAMPLE": false, "LCHARG": false, "LPARD": false, "LVTOT": false, "LVHAR": false, "LELF": false, "LOPTICS": false, "STM": [0.0, 0.0, 0.0, 0.0, 0.0, 0.0, 0.0], "NPAR": 1, "NSIM": 4, "NBLK": -1, "LPLANE": true, "LSCALAPACK": true, "LSCAAWARE": false, "LSCALU": false, "LASYNC": false, "LORBITALREAL": false, "IDIOT": 3, "PHON_NSTRUCT": -1, "LMUSIC": false, "POMASS": [7.01, 88.906, 35.453], "DARWINR": [0.0, 0.0, 0.0], "DARWINV": [1.0, 1.0, 1.0], "LCORR": true, "GGA_COMPAT": true, "LBERRY": false, "ICORELEVEL": 0, "LDAU": false, "I_CONSTRAINED_M": 0, "GGA": "--", "VOSKOWN": 0, "LHFCALC": false, "PRECFOCK": "", "LSYMGRAD": false, "LHFONE": false, "LRHFCALC": false, "LTHOMAS": false, "LMODELHF": false, "LFOCKACE": false, "ENCUT4O": -1.0, "EXXOEP": 0, "FOURORBIT": 0, "AEXX": 0.0, "HFALPHA": 0.0, "MCALPHA": 0.0, "ALDAX": 1.0, "AGGAX": 1.0, "ALDAC": 1.0, "AGGAC": 1.0, "NKREDX": 1, "NKREDY": 1, "NKREDZ": 1, "SHIFTRED": false, "ODDONLY": false, "EVENONLY": false, "LMAXFOCK": 0, "NMAXFOCKAE": 0, "LFOCKAEDFT": false, "HFSCREEN": 0.0, "HFSCREENC": 0.0, "NBANDSGWLOW": 0, "LUSE_VDW": false, "Zab_VDW": -0.8491, "PARAM1": 0.1234, "PARAM2": 1.0, "PARAM3": 0.0, "MODEL_GW": 0, "MODEL_EPS0": 38.06082062, "MODEL_ALPHA": 1.0, "LEPSILON": false, "LRPA": false, "LNABLA": false, "LVEL": false, "CSHIFT": 0.1, "OMEGAMAX": -1.0, "DEG_THRESHOLD": 0.002, "RTIME": -0.1, "WPLASMAI": 0.0, "DFIELD": [0.0, 0.0, 0.0], "WPLASMA": [0.0, 0.0, 0.0, 0.0, 0.0, 0.0, 0.0, 0.0, 0.0], "NUCIND": false, "MAGPOS": [0.0, 0.0, 0.0], "LNICSALL": true, "ORBITALMAG": false, "LMAGBLOCH": false, "LCHIMAG": false, "LGAUGE": true, "MAGATOM": 0, "MAGDIPOL": [0.0, 0.0, 0.0], "AVECCONST": [0.0, 0.0, 0.0], "LFINITE_TEMPERATURE": false, "LADDER": false, "LRPAFORCE": false, "LFXC": false, "LHARTREE": true, "IBSE": 0, "KPOINT": [-1, 0, 0, 0], "LTCTC": false, "LTCTE": false, "LTETE": false, "LTRIPLET": false, "LFXCEPS": false, "LFXHEG": false, "NATURALO": 2, "LHOLEGF": false, "L2ORDER": false, "LDMP1": false, "LMP2LT": false, "LSMP2LT": false, "LGWLF": false, "ENCUTGW": -2.0, "ENCUTGWSOFT": -2.0, "ENCUTLF": -1.0, "LESF_SPLINES": false, "LMAXMP2": -1, "SCISSOR": 0.0, "NOMEGA": 0, "NOMEGAR": 0, "NBANDSGW": -1, "NBANDSO": -1, "NBANDSV": -1, "NELMGW": 1, "NELMHF": 1, "DIM": 3, "IESPILON": 4, "ANTIRES": 0, "OMEGAMIN": -30.0, "OMEGATL": -200.0, "OMEGAGRID": 0, "LSELFENERGY": false, "LSPECTRAL": false, "LSPECTRALGW": false, "LSINGLES": false, "LFERMIGW": false, "ODDONLYGW": false, "EVENONLYGW": false, "NKREDLFX": 1, "NKREDLFY": 1, "NKREDLFZ": 1, "MAXMEM": 2800, "TELESCOPE": 0, "NTAUPAR": -1, "NOMEGAPAR": -1, "DAMP_NEWTON": 0.80000001, "LAMBDA": 1.0, "OFIELD_KAPPA": 0.0, "OFIELD_K": [0.0, 0.0, 0.0], "OFIELD_Q6_NEAR": 0.0, "OFIELD_Q6_FAR": 0.0, "OFIELD_A": 0.0, "KPOINTS_OPT_MODE": 1, "LKPOINTS_OPT": false, "@module": "pymatgen.io.vasp.inputs", "@class": "Incar"}, "relaxed_structures": {"@module": "pymatgen.core.structure", "@class": "Structure", "charge": 0, "lattice": {"matrix": [[6.097585, 0.0, 0.0], [0.000256, 11.177296, 0.0], [0.0, 0.0, 48.398915]], "a": 6.097585, "b": 11.177296002931657, "c": 48.398915, "alpha": 90.0, "beta": 90.0, "gamma": 89.99868772200783, "volume": 3298.6044539737572}, "sites": [{"species": [{"element": "Li", "occu": 1}], "abc": [0.97198977, 0.24097625, 0.07166439], "xyz": [5.92685193162545, 2.6934628752200003, 3.46847872013685], "label": "Li", "properties": {}}, {"species": [{"element": "Li", "occu": 1}], "abc": [0.99974989, 0.45714648, 0.15587475], "xyz": [6.09617696251453, 5.10966152231808, 7.54416877589625], "label": "Li", "properties": {}}, {"species": [{"element": "Li", "occu": 1}], "abc": [0.94539885, 0.95359903, 0.08896482], "xyz": [5.76489396812893, 10.65865862362288, 4.305800761170301], "label": "Li", "properties": {}}, {"species": [{"element": "Li", "occu": 1}], "abc": [0.58293986, 0.66728582, 0.02719929], "xyz": [3.5546961714080196, 7.4584511267427205, 1.31641612477035], "label": "Li", "properties": {}}, {"species": [{"element": "Li", "occu": 1}], "abc": [0.47287986, 0.4111709, 0.03453647], "xyz": [2.8835304008884997, 4.5957788558864, 1.6715276759300501], "label": "Li", "properties": {}}, {"species": [{"element": "Li", "occu": 1}], "abc": [0.48288192, 0.00211222, 0.09711966], "xyz": [2.94441409289152, 0.023608908157120002, 4.7004861691689], "label": "Li", "properties": {}}, {"species": [{"element": "Li", "occu": 1}], "abc": [0.50040112, 0.45351566, 0.15367954], "xyz": [3.05135446330416, 5.06907877245536, 7.4379229936991], "label": "Li", "properties": {}}, {"species": [{"element": "Li", "occu": 1}], "abc": [0.52930481, 0.78582638, 0.1603956], "xyz": [3.2276822414371296, 8.78341405386848, 7.762973010774], "label": "Li", "properties": {}}, {"species": [{"element": "Li", "occu": 1}], "abc": [0.97767669, 0.44393538, 0.02412487], "xyz": [5.961580367250929, 4.96199714713248, 1.16761753251605], "label": "Li", "properties": {}}, {"species": [{"element": "Li", "occu": 1}], "abc": [0.02820721, 0.74080678, 0.30859796], "xyz": [0.17218550712352998, 8.28021665886688, 14.9358064352134], "label": "Li", "properties": {}}, {"species": [{"element": "Li", "occu": 1}], "abc": [0.02067536, 0.94314856, 0.35560131], "xyz": [0.12631121103696, 10.54185062709376, 17.210717576578652], "label": "Li", "properties": {}}, {"species": [{"element": "Li", "occu": 1}], "abc": [0.05491876, 0.45356605, 0.29072335], "xyz": [0.33498792010339995, 5.0696419964008, 14.07069470516525], "label": "Li", "properties": {}}, {"species": [{"element": "Li", "occu": 1}], "abc": [0.47090246, 0.28591007, 0.21963899], "xyz": [2.8714409695370198, 3.1957014817707203, 10.63028880769585], "label": "Li", "properties": {}}, {"species": [{"element": "Li", "occu": 1}], "abc": [0.4989367, 0.95377484, 0.22601604], "xyz": [3.04255310422854, 10.66062370403264, 10.9389311085966], "label": "Li", "properties": {}}, {"species": [{"element": "Li", "occu": 1}], "abc": [0.51899151, 0.50104436, 0.28294958], "xyz": [3.1647231138595098, 5.60032112085056, 13.6944526717057], "label": "Li", "properties": {}}, {"species": [{"element": "Li", "occu": 1}], "abc": [0.52738646, 0.91266438, 0.34565134], "xyz": [3.2160174097803798, 10.201119923916481, 16.7291498242961], "label": "Li", "properties": {}}, {"species": [{"element": "Li", "occu": 1}], "abc": [0.41762049, 0.16829342, 0.3525224], "xyz": [2.54651951863217, 1.8810653701923201, 17.061701673196], "label": "Li", "properties": {}}, {"species": [{"element": "Li", "occu": 1}], "abc": [0.00011023, 0.95579808, 0.22374678], "xyz": [0.00091682110303, 10.68323805639168, 10.829101386743702], "label": "Li", "properties": {}}, {"species": [{"element": "Y", "occu": 1}], "abc": [0.00259133, 0.62097219, 0.08940276999999999], "xyz": [0.015959823818690003, 6.94078997539824, 4.32699706599455], "label": "Y", "properties": {}}, {"species": [{"element": "Y", "occu": 1}], "abc": [0.98448181, 0.12409283, 0.15734259], "xyz": [6.00299328519333, 1.38702229238768, 7.615210639289851], "label": "Y", "properties": {}}, {"species": [{"element": "Y", "occu": 1}], "abc": [0.99695563, 0.12042967, 0.29039822], "xyz": [6.07905252514907, 1.34607806877232, 14.0549587659313], "label": "Y", "properties": {}}, {"species": [{"element": "Y", "occu": 1}], "abc": [0.01610353, 0.62361383, 0.22259615], "xyz": [0.09835228811553, 6.97031636760368, 10.77341214317725], "label": "Y", "properties": {}}, {"species": [{"element": "Cl", "occu": 1}], "abc": [0.1911884, 0.27874955, 0.03288252], "xyz": [1.1658588798987999, 3.1156662302168003, 1.5914782904658], "label": "Cl", "properties": {}}, {"species": [{"element": "Cl", "occu": 1}], "abc": [0.244274, 0.46165503, 0.11394987000000001], "xyz": [1.48959966197768, 5.16005492019888, 5.515050072391051], "label": "Cl", "properties": {}}, {"species": [{"element": "Cl", "occu": 1}], "abc": [0.18607061, 0.12585307, 0.10820416999999999], "xyz": [1.13461357886277, 1.4066970158987202, 5.2369644264755495], "label": "Cl", "properties": {}}, {"species": [{"element": "Cl", "occu": 1}], "abc": [0.25664657, 0.6194467, 0.17688556], "xyz": [1.56508285388865, 6.9237391221232, 8.561069183167401], "label": "Cl", "properties": {}}, {"species": [{"element": "Cl", "occu": 1}], "abc": [0.23301637, 0.81308939, 0.10238165], "xyz": [1.42104527335029, 9.08814078648944, 4.955160775909751], "label": "Cl", "properties": {}}, {"species": [{"element": "Cl", "occu": 1}], "abc": [0.22823023, 0.59931472, 0.04142121], "xyz": [1.3918066515628698, 6.69871802259712, 2.00474162198715], "label": "Cl", "properties": {}}, {"species": [{"element": "Cl", "occu": 1}], "abc": [0.24760706, 0.29530058, 0.17720822], "xyz": [1.5098806918985799, 3.3006619916316797, 8.5766855770813], "label": "Cl", "properties": {}}, {"species": [{"element": "Cl", "occu": 1}], "abc": [0.75155693, 0.62233177, 0.13456732999999999], "xyz": [4.58284157994717, 6.955986403493919, 6.5129127664469495], "label": "Cl", "properties": {}}, {"species": [{"element": "Cl", "occu": 1}], "abc": [0.73099971, 0.9522441, 0.13425098], "xyz": [4.45757664118995, 10.643514169953601, 6.4976017696867], "label": "Cl", "properties": {}}, {"species": [{"element": "Cl", "occu": 1}], "abc": [0.67894038, 0.51106829, 9.99999999999994e-05], "xyz": [4.14002751046454, 5.71236155354384, 0.004839891499999971], "label": "Cl", "properties": {}}, {"species": [{"element": "Cl", "occu": 1}], "abc": [0.74994775, 0.77297804, 0.06277748999999999], "xyz": [4.57306803356199, 8.63980435457984, 3.0383624024233495], "label": "Cl", "properties": {}}, {"species": [{"element": "Cl", "occu": 1}], "abc": [0.76762627, 0.4371769, 0.06910641], "xyz": [4.68077834684435, 4.8864556156624, 3.3446752635451498], "label": "Cl", "properties": {}}, {"species": [{"element": "Cl", "occu": 1}], "abc": [0.71781966, 0.08733029, 0.06600061], "xyz": [4.376988748075339, 0.97611650109584, 3.19435791333815], "label": "Cl", "properties": {}}, {"species": [{"element": "Cl", "occu": 1}], "abc": [0.75379556, 0.29930826, 0.13701185], "xyz": [4.5964091226371595, 3.34545701726496, 6.6312248821427495], "label": "Cl", "properties": {}}, {"species": [{"element": "Cl", "occu": 1}], "abc": [0.24676962, 0.7990943, 0.24280863000000003], "xyz": [1.5049033015084998, 8.931713523012801, 11.751674244636451], "label": "Cl", "properties": {}}, {"species": [{"element": "Cl", "occu": 1}], "abc": [0.2315127, 0.93681087, 0.31084322999999997], "xyz": [1.4119081904122197, 10.47101239000752, 15.04447506709545], "label": "Cl", "properties": {}}, {"species": [{"element": "Cl", "occu": 1}], "abc": [0.28270374, 0.58695293, 0.31382751999999997], "xyz": [1.7239603444179799, 6.56054663667728, 15.1889114651408], "label": "Cl", "properties": {}}, {"species": [{"element": "Cl", "occu": 1}], "abc": [0.24126363, 0.95991053, 0.17968924], "xyz": [1.47137122842923, 10.72920412732688, 8.696764253174601], "label": "Cl", "properties": {}}, {"species": [{"element": "Cl", "occu": 1}], "abc": [0.31916369, 0.01203871, 0.379679], "xyz": [1.9461308105984099, 0.13456022512816, 18.376051648285], "label": "Cl", "properties": {}}, {"species": [{"element": "Cl", "occu": 1}], "abc": [0.24924792, 0.27276985, 0.31701224], "xyz": [1.5198802073548, 3.0488293533256, 15.3430484577196], "label": "Cl", "properties": {}}, {"species": [{"element": "Cl", "occu": 1}], "abc": [0.24810077, 0.12221656, 0.24527314], "xyz": [1.5128468210798098, 1.36605066722176, 11.870953854643101], "label": "Cl", "properties": {}}, {"species": [{"element": "Cl", "occu": 1}], "abc": [0.26983742, 0.45218952, 0.24568078], "xyz": [1.6454723651478198, 5.05425611313792, 11.8906831883537], "label": "Cl", "properties": {}}, {"species": [{"element": "Cl", "occu": 1}], "abc": [0.75264674, 0.7948497, 0.20276669], "xyz": [4.5895309536461, 8.8842703724112, 9.81368779414135], "label": "Cl", "properties": {}}, {"species": [{"element": "Cl", "occu": 1}], "abc": [0.77140363, 0.09946498, 0.33845202], "xyz": [4.703724666268429, 1.11174952309408, 16.3807105475583], "label": "Cl", "properties": {}}, {"species": [{"element": "Cl", "occu": 1}], "abc": [0.74310133, 0.1192657, 0.20289757], "xyz": [4.531154055307249, 1.3330680315472, 9.82002224413655], "label": "Cl", "properties": {}}, {"species": [{"element": "Cl", "occu": 1}], "abc": [0.76665307, 0.31282326, 0.27742336], "xyz": [4.67481234259051, 3.49651817270496, 13.426989619654401], "label": "Cl", "properties": {}}, {"species": [{"element": "Cl", "occu": 1}], "abc": [0.7589037, 0.45995528, 0.20022694], "xyz": [4.6275975661161795, 5.14105631132288, 9.6907666497701], "label": "Cl", "properties": {}}, {"species": [{"element": "Cl", "occu": 1}], "abc": [0.75509405, 0.96157322, 0.26583514], "xyz": [4.604496315613569, 10.747788505613121, 12.866132344873101], "label": "Cl", "properties": {}}, {"species": [{"element": "Cl", "occu": 1}], "abc": [0.81469091, 0.62554853, 0.27177971], "xyz": [4.96780721287603, 6.99194108217488, 13.153843083014651], "label": "Cl", "properties": {}}, {"species": [{"element": "Cl", "occu": 1}], "abc": [0.80703038, 0.77845422, 0.3471512], "xyz": [4.92113562391262, 8.70101323938912, 16.801741420948], "label": "Cl", "properties": {}}]}, "formula": "(Li3YCl6)4.0(LiCl)6.0", "bandgap": 4.6635, "slab_thickness": 18.371211756784998}