{"miller": "001_0.12", "final_energy": -1006.13490284, "sigma": 0.009024889267507762, "incar_parameters": {"SYSTEM": "unknown system", "LCOMPAT": false, "PREC": "normal", "ENMAX": 520.0, "ENAUG": 628.945, "EDIFF": 1e-05, "IALGO": 38, "IWAVPR": 11, "NBANDS": 461, "NBANDSLOW": -1, "NBANDSHIGH": -1, "NELECT": 760.0, "TURBO": 0, "IRESTART": 0, "NREBOOT": 0, "NMIN": 0, "EREF": 0.0, "ISMEAR": 0, "SIGMA": 0.05, "KSPACING": 0.5, "KGAMMA": true, "KBLOWUP": true, "LREAL": true, "ROPT": [-0.0005, -0.0005, -0.0005], "LMAXPAW": -100, "LMAXMIX": 2, "NLSPLINE": false, "ISTART": 0, "ICHARG": 2, "INIWAV": 1, "ISPIN": 1, "LNONCOLLINEAR": false, "MAGMOM": [0.6, 0.6, 0.6, 0.6, 0.6, 0.6, 0.6, 0.6, 0.6, 0.6, 0.6, 0.6, 0.6, 0.6, 0.6, 0.6, 0.6, 0.6, 0.6, 0.6, 0.6, 0.6, 0.6, 0.6, 0.6, 0.6, 0.6, 0.6, 0.6, 0.6, 0.6, 0.6, 0.6, 0.6, 0.6, 0.6, 0.6, 0.6, 0.6, 0.6, 0.6, 0.6, 0.6, 0.6, 0.6, 0.6, 0.6, 0.6, 0.6, 0.6, 0.6, 0.6, 0.6, 0.6, 0.6, 0.6, 0.6, 0.6, 0.6, 0.6, 0.6, 0.6, 0.6, 0.6, 0.6, 0.6, 0.6, 0.6, 0.6, 0.6, 0.6, 0.6, 0.6, 0.6, 0.6, 0.6, 0.6, 0.6, 0.6, 0.6, 0.6, 0.6, 0.6, 0.6, 0.6, 0.6, 0.6, 0.6, 0.6, 0.6, 0.6, 0.6, 0.6, 0.6, 0.6, 0.6, 0.6, 0.6, 0.6, 0.6, 0.6, 0.6, 0.6, 0.6, 0.6, 0.6, 0.6, 0.6, 0.6, 0.6, 0.6, 0.6, 0.6, 0.6, 0.6, 0.6, 0.6, 0.6, 0.6, 0.6, 0.6, 0.6, 0.6, 0.6, 0.6, 0.6, 0.6, 0.6, 0.6, 0.6, 0.6, 0.6, 0.6, 0.6, 0.6, 0.6, 0.6, 0.6, 0.6, 0.6, 0.6, 0.6, 0.6, 0.6, 0.6, 0.6, 0.6, 0.6, 0.6, 0.6, 0.6, 0.6, 0.6, 0.6, 0.6, 0.6, 0.6, 0.6, 0.6, 0.6], "NUPDOWN": -1.0, "LSORBIT": false, "SAXIS": [0.0, 0.0, 1.0], "LSPIRAL": false, "QSPIRAL": [0.0, 0.0, 0.0], "LZEROZ": false, "LASPH": false, "LMETAGGA": false, "NELM": 100, "NELMDL": -5, "NELMIN": 6, "ENINI": 520.0, "LDIAG": true, "LSUBROT": false, "WEIMIN": 0.001, "EBREAK": 1e-08, "DEPER": 0.3, "NRMM": 4, "TIME": 0.4, "AMIX": 0.4, "BMIX": 1.0, "AMIN": 0.1, "AMIX_MAG": 1.6, "BMIX_MAG": 1.0, "IMIX": 4, "MIXFIRST": false, "MAXMIX": -45, "WC": 100.0, "INIMIX": 1, "MIXPRE": 1, "MREMOVE": 5, "LDIPOL": false, "LMONO": false, "IDIPOL": 0, "EPSILON": 1.0, "DIPOL": [-100.0, -100.0, -100.0], "EFIELD": 0.0, "NGX": 28, "NGY": 36, "NGZ": 300, "NGXF": 56, "NGYF": 72, "NGZF": 600, "ADDGRID": false, "NSW": 150, "IBRION": 2, "MDALGO": 0, "ISIF": 3, "PSTRESS": 0.0, "EDIFFG": -0.01, "NFREE": 1, "POTIM": 0.5, "SMASS": -3.0, "SCALEE": 1.0, "TEBEG": 0.0001, "TEEND": 0.0001, "NBLOCK": 1, "KBLOCK": 150, "NPACO": 256, "APACO": 10.0, "ISYM": 0, "SYMPREC": 1e-05, "LORBIT": 11, "RWIGS": [-1.0, -1.0, -1.0], "NEDOS": 301, "EMIN": 10.0, "EMAX": -10.0, "EFERMI": 0.0, "NWRITE": 2, "LWAVE": false, "LDOWNSAMPLE": false, "LCHARG": false, "LPARD": false, "LVTOT": false, "LVHAR": false, "LELF": false, "LOPTICS": false, "STM": [0.0, 0.0, 0.0, 0.0, 0.0, 0.0, 0.0], "NPAR": 1, "NSIM": 4, "NBLK": -1, "LPLANE": true, "LSCALAPACK": true, "LSCAAWARE": false, "LSCALU": false, "LASYNC": false, "LORBITALREAL": false, "IDIOT": 3, "PHON_NSTRUCT": -1, "LMUSIC": false, "POMASS": [7.01, 30.974, 16.0], "DARWINR": [0.0, 0.0, 0.0], "DARWINV": [1.0, 1.0, 1.0], "LCORR": true, "GGA_COMPAT": true, "LBERRY": false, "ICORELEVEL": 0, "LDAU": false, "I_CONSTRAINED_M": 0, "GGA": "--", "VOSKOWN": 0, "LHFCALC": false, "PRECFOCK": "", "LSYMGRAD": false, "LHFONE": false, "LRHFCALC": false, "LTHOMAS": false, "LMODELHF": false, "LFOCKACE": false, "ENCUT4O": -1.0, "EXXOEP": 0, "FOURORBIT": 0, "AEXX": 0.0, "HFALPHA": 0.0, "MCALPHA": 0.0, "ALDAX": 1.0, "AGGAX": 1.0, "ALDAC": 1.0, "AGGAC": 1.0, "NKREDX": 1, "NKREDY": 1, "NKREDZ": 1, "SHIFTRED": false, "ODDONLY": false, "EVENONLY": false, "LMAXFOCK": 0, "NMAXFOCKAE": 0, "LFOCKAEDFT": false, "HFSCREEN": 0.0, "HFSCREENC": 0.0, "NBANDSGWLOW": 0, "LUSE_VDW": false, "Zab_VDW": -0.8491, "PARAM1": 0.1234, "PARAM2": 1.0, "PARAM3": 0.0, "MODEL_GW": 0, "MODEL_EPS0": 6.06287521, "MODEL_ALPHA": 1.0, "LEPSILON": false, "LRPA": false, "LNABLA": false, "LVEL": false, "CSHIFT": 0.1, "OMEGAMAX": -1.0, "DEG_THRESHOLD": 0.002, "RTIME": -0.1, "WPLASMAI": 0.0, "DFIELD": [0.0, 0.0, 0.0], "WPLASMA": [0.0, 0.0, 0.0, 0.0, 0.0, 0.0, 0.0, 0.0, 0.0], "NUCIND": false, "MAGPOS": [0.0, 0.0, 0.0], "LNICSALL": true, "ORBITALMAG": false, "LMAGBLOCH": false, "LCHIMAG": false, "LGAUGE": true, "MAGATOM": 0, "MAGDIPOL": [0.0, 0.0, 0.0], "AVECCONST": [0.0, 0.0, 0.0], "LFINITE_TEMPERATURE": false, "LADDER": false, "LRPAFORCE": false, "LFXC": false, "LHARTREE": true, "IBSE": 0, "KPOINT": [-1, 0, 0, 0], "LTCTC": false, "LTCTE": false, "LTETE": false, "LTRIPLET": false, "LFXCEPS": false, "LFXHEG": false, "NATURALO": 2, "LHOLEGF": false, "L2ORDER": false, "LDMP1": false, "LMP2LT": false, "LSMP2LT": false, "LGWLF": false, "ENCUTGW": -2.0, "ENCUTGWSOFT": -2.0, "ENCUTLF": -1.0, "LESF_SPLINES": false, "LMAXMP2": -1, "SCISSOR": 0.0, "NOMEGA": 0, "NOMEGAR": 0, "NBANDSGW": -1, "NBANDSO": -1, "NBANDSV": -1, "NELMGW": 1, "NELMHF": 1, "DIM": 3, "IESPILON": 4, "ANTIRES": 0, "OMEGAMIN": -30.0, "OMEGATL": -200.0, "OMEGAGRID": 0, "LSELFENERGY": false, "LSPECTRAL": false, "LSPECTRALGW": false, "LSINGLES": false, "LFERMIGW": false, "ODDONLYGW": false, "EVENONLYGW": false, "NKREDLFX": 1, "NKREDLFY": 1, "NKREDLFZ": 1, "MAXMEM": 2800, "TELESCOPE": 0, "NTAUPAR": -1, "NOMEGAPAR": -1, "DAMP_NEWTON": 0.80000001, "LAMBDA": 1.0, "OFIELD_KAPPA": 0.0, "OFIELD_K": [0.0, 0.0, 0.0], "OFIELD_Q6_NEAR": 0.0, "OFIELD_Q6_FAR": 0.0, "OFIELD_A": 0.0, "KPOINTS_OPT_MODE": 1, "LKPOINTS_OPT": false, "@module": "pymatgen.io.vasp.inputs", "@class": "Incar"}, "relaxed_structures": {"@module": "pymatgen.core.structure", "@class": "Structure", "charge": 0, "lattice": {"matrix": [[4.977846, 0.0, 0.0], [0.0, 6.151192, 0.0], [0.0, 0.0, 52.80154396]], "a": 4.977846, "b": 6.151192, "c": 52.80154396, "alpha": 90.0, "beta": 90.0, "gamma": 90.0, "volume": 1616.7667223715664}, "sites": [{"species": [{"element": "Li", "occu": 1}], "abc": [0.80189633, 0.49876598, 0.11711111], "xyz": [3.9917164387051804, 3.06800530604816, 6.183647422869395], "label": "Li", "properties": {}}, {"species": [{"element": "Li", "occu": 1}], "abc": [0.30155732, 0.5026177, 0.08280957], "xyz": [1.5011058991327202, 3.0916979752983997, 4.372473150663697], "label": "Li", "properties": {}}, {"species": [{"element": "Li", "occu": 1}], "abc": [0.69265594, 0.48687561, 0.01747187], "xyz": [3.4479346003052402, 2.99486535722712, 0.9225417118684052], "label": "Li", "properties": {}}, {"species": [{"element": "Li", "occu": 1}], "abc": [0.69264576, 0.01312949, 0.01747403], "xyz": [3.44788392583296, 0.08076201385208, 0.9226557632033588], "label": "Li", "properties": {}}, {"species": [{"element": "Li", "occu": 1}], "abc": [0.30155727, 0.99738947, 0.0828099], "xyz": [1.50110565024042, 6.13513412874824, 4.372490575173204], "label": "Li", "properties": {}}, {"species": [{"element": "Li", "occu": 1}], "abc": [0.80192573, 0.0012504, 0.11711167], "xyz": [3.9918627873775803, 0.0076914504768, 6.183676991734012], "label": "Li", "properties": {}}, {"species": [{"element": "Li", "occu": 1}], "abc": [0.20230141, 0.75001399, 0.13503976], "xyz": [1.0070252645628601, 4.61348005517608, 7.13030782398785], "label": "Li", "properties": {}}, {"species": [{"element": "Li", "occu": 1}], "abc": [0.79646894, 0.25000002, 0.16475436], "xyz": [3.9646997271032403, 1.53779812302384, 8.699284582141665], "label": "Li", "properties": {}}, {"species": [{"element": "Li", "occu": 1}], "abc": [0.69707574, 0.25001357, 0.06589152], "xyz": [3.4699356840560407, 1.53788147167544, 3.4791739898712186], "label": "Li", "properties": {}}, {"species": [{"element": "Li", "occu": 1}], "abc": [0.29676653, 0.75001073, 0.0354062], "xyz": [1.47725808429438, 4.61346000229016, 1.8695020257565518], "label": "Li", "properties": {}}, {"species": [{"element": "Li", "occu": 1}], "abc": [0.80335885, 0.49828361, 0.31724639], "xyz": [3.9989966380371, 3.06503815556312, 16.751099207736303], "label": "Li", "properties": {}}, {"species": [{"element": "Li", "occu": 1}], "abc": [0.1966281, 0.50173347, 0.18275411], "xyz": [0.9787844010726001, 3.0862589067962403, 9.649699173035675], "label": "Li", "properties": {}}, {"species": [{"element": "Li", "occu": 1}], "abc": [0.30275723, 0.50160543, 0.28282572], "xyz": [1.5070788663265802, 3.08547130817256, 14.93363468759865], "label": "Li", "properties": {}}, {"species": [{"element": "Li", "occu": 1}], "abc": [0.69721435, 0.49840512, 0.21717468], "xyz": [3.4706256632901002, 3.06578558690304, 11.467158413018932], "label": "Li", "properties": {}}, {"species": [{"element": "Li", "occu": 1}], "abc": [0.6972166, 0.00160251, 0.21717368], "xyz": [3.4706368634436, 0.00985734669192, 11.467105611474972], "label": "Li", "properties": {}}, {"species": [{"element": "Li", "occu": 1}], "abc": [0.30276165, 0.99840522, 0.28282508], "xyz": [1.5071008684059002, 6.14138220202224, 14.933600894610516], "label": "Li", "properties": {}}, {"species": [{"element": "Li", "occu": 1}], "abc": [0.19662745, 0.99828069, 0.18275341], "xyz": [0.9787811654727001, 6.1406161940824795, 9.649662211954903], "label": "Li", "properties": {}}, {"species": [{"element": "Li", "occu": 1}], "abc": [0.80335774, 0.00173342, 0.31724581], "xyz": [3.9989911126280404, 0.010662599236640001, 16.75106858284081], "label": "Li", "properties": {}}, {"species": [{"element": "Li", "occu": 1}], "abc": [0.20352422, 0.75000262, 0.33524575], "xyz": [1.01311222443012, 4.61341011612304, 17.701493206028168], "label": "Li", "properties": {}}, {"species": [{"element": "Li", "occu": 1}], "abc": [0.79768945, 0.25001523, 0.36496099], "xyz": [3.9707752379247006, 1.5378916826541598, 19.27050375717012], "label": "Li", "properties": {}}, {"species": [{"element": "Li", "occu": 1}], "abc": [0.7031727, 0.25000435, 0.26482494], "xyz": [3.5002854120042004, 1.5378247576852, 13.983165711114362], "label": "Li", "properties": {}}, {"species": [{"element": "Li", "occu": 1}], "abc": [0.29680232, 0.75000467, 0.23517493], "xyz": [1.4774362414027202, 4.6134227260666405, 12.417599404684923], "label": "Li", "properties": {}}, {"species": [{"element": "Li", "occu": 1}], "abc": [0.19808285, 0.50123926, 0.38288812], "xyz": [0.9860259225411001, 3.0832189261979197, 20.217083899941755], "label": "Li", "properties": {}}, {"species": [{"element": "Li", "occu": 1}], "abc": [0.30725386, 0.51308492, 0.48252323], "xyz": [1.5294623979855602, 3.15608385522464, 25.47797154056619], "label": "Li", "properties": {}}, {"species": [{"element": "Li", "occu": 1}], "abc": [0.69842699, 0.49739794, 0.41718962], "xyz": [3.4766619984635403, 3.05959022934448, 22.028256060085692], "label": "Li", "properties": {}}, {"species": [{"element": "Li", "occu": 1}], "abc": [0.69842719, 0.00261893, 0.41719058], "xyz": [3.4766629940327403, 0.01610954126456, 22.028306749567893], "label": "Li", "properties": {}}, {"species": [{"element": "Li", "occu": 1}], "abc": [0.30725469, 0.98692665, 0.48252338], "xyz": [1.52946652959774, 6.0707753140668, 25.477979460797783], "label": "Li", "properties": {}}, {"species": [{"element": "Li", "occu": 1}], "abc": [0.19808918, 0.99875762, 0.38288912], "xyz": [0.9860574323062801, 6.14354988208304, 20.217136701485714], "label": "Li", "properties": {}}, {"species": [{"element": "Li", "occu": 1}], "abc": [0.70321723, 0.25000533, 0.46459238], "xyz": [3.5005070754865804, 1.5378307858533602, 24.531194976051026], "label": "Li", "properties": {}}, {"species": [{"element": "Li", "occu": 1}], "abc": [0.30291403, 0.75000347, 0.43410846], "xyz": [1.5078593925793802, 4.61341534463624, 22.9215969340979], "label": "Li", "properties": {}}, {"species": [{"element": "Li", "occu": 1}], "abc": [0.69810483, 0.50122557, 0.61711051], "xyz": [3.4750583355961804, 3.08313471637944, 32.58438772194302], "label": "Li", "properties": {}}, {"species": [{"element": "Li", "occu": 1}], "abc": [0.19844468, 0.49738388, 0.58281122], "xyz": [0.9878270565592802, 3.05950374358496, 30.773332253211226], "label": "Li", "properties": {}}, {"species": [{"element": "Li", "occu": 1}], "abc": [0.80734405, 0.51312061, 0.51747424], "xyz": [4.0188343499163, 3.15630339126712, 27.323438831527586], "label": "Li", "properties": {}}, {"species": [{"element": "Li", "occu": 1}], "abc": [0.80734411, 0.98688089, 0.51747423], "xyz": [4.0188346485870605, 6.07049383552088, 27.32343830351215], "label": "Li", "properties": {}}, {"species": [{"element": "Li", "occu": 1}], "abc": [0.19845176, 0.00262951, 0.58280944], "xyz": [0.9878622997089601, 0.01617462087592, 30.773238266462982], "label": "Li", "properties": {}}, {"species": [{"element": "Li", "occu": 1}], "abc": [0.69808174, 0.99874833, 0.61711306], "xyz": [3.4749433971320403, 6.1434927375093595, 32.58452236588011], "label": "Li", "properties": {}}, {"species": [{"element": "Li", "occu": 1}], "abc": [0.29769794, 0.2499699, 0.63504059], "xyz": [1.48189449983724, 1.5376128491207999, 33.53112362926934], "label": "Li", "properties": {}}, {"species": [{"element": "Li", "occu": 1}], "abc": [0.70353818, 0.74999442, 0.6647545], "xyz": [3.5021047151602804, 4.61335967634864, 35.10006395435782], "label": "Li", "properties": {}}, {"species": [{"element": "Li", "occu": 1}], "abc": [0.80291966, 0.75000318, 0.56589125], "xyz": [3.9968104178523607, 4.61341356079056, 29.879931713454347], "label": "Li", "properties": {}}, {"species": [{"element": "Li", "occu": 1}], "abc": [0.20321985, 0.2500016, 0.53540617], "xyz": [1.0115971174431002, 1.5378078419071999, 28.27027242171023], "label": "Li", "properties": {}}, {"species": [{"element": "Li", "occu": 1}], "abc": [0.6966311, 0.50172824, 0.81724703], "xyz": [3.4677223346106, 3.08622673606208, 43.15190498072444], "label": "Li", "properties": {}}, {"species": [{"element": "Li", "occu": 1}], "abc": [0.30336742, 0.49826261, 0.68275502], "xyz": [1.5101162981773202, 3.06490898053112, 36.050519202440675], "label": "Li", "properties": {}}, {"species": [{"element": "Li", "occu": 1}], "abc": [0.19721515, 0.49840714, 0.78282593], "xyz": [0.9817066455669001, 3.0657980123108803, 41.33441775592288], "label": "Li", "properties": {}}, {"species": [{"element": "Li", "occu": 1}], "abc": [0.80276715, 0.50160967, 0.71717515], "xyz": [3.9960512465589004, 3.08549738922664, 37.86795520974459], "label": "Li", "properties": {}}, {"species": [{"element": "Li", "occu": 1}], "abc": [0.80276614, 0.99839255, 0.71717438], "xyz": [3.9960462189344406, 6.1413042664196, 37.86791455255574], "label": "Li", "properties": {}}, {"species": [{"element": "Li", "occu": 1}], "abc": [0.19721826, 0.00160145, 0.78282656], "xyz": [0.9817221266679601, 0.0098508264284, 41.33445102089557], "label": "Li", "properties": {}}, {"species": [{"element": "Li", "occu": 1}], "abc": [0.30336633, 0.00170994, 0.68275419], "xyz": [1.5101108723251802, 0.010518169248480001, 36.050475377159195], "label": "Li", "properties": {}}, {"species": [{"element": "Li", "occu": 1}], "abc": [0.69666128, 0.99829158, 0.81724965], "xyz": [3.4678725660028804, 6.14068318056336, 43.152043320769614], "label": "Li", "properties": {}}, {"species": [{"element": "Li", "occu": 1}], "abc": [0.29647494, 0.24999364, 0.83524624], "xyz": [1.4758065941792402, 1.53775887841888, 44.10229105878471], "label": "Li", "properties": {}}, {"species": [{"element": "Li", "occu": 1}], "abc": [0.70230785, 0.74999283, 0.86496166], "xyz": [3.4959803218911003, 4.613349895953361, 45.67131111420457], "label": "Li", "properties": {}}, {"species": [{"element": "Li", "occu": 1}], "abc": [0.79676674, 0.75000108, 0.76482484], "xyz": [3.9661821296420405, 4.61340064328736, 40.383932410959964], "label": "Li", "properties": {}}, {"species": [{"element": "Li", "occu": 1}], "abc": [0.20316661, 0.24999978, 0.73517364], "xyz": [1.01133209692206, 1.53779664673776, 38.81830327069321], "label": "Li", "properties": {}}, {"species": [{"element": "Li", "occu": 1}], "abc": [0.30192546, 0.49874689, 0.88288814], "xyz": [1.50293844335916, 3.06788787979288, 46.61785693597263], "label": "Li", "properties": {}}, {"species": [{"element": "Li", "occu": 1}], "abc": [0.19285757, 0.48697316, 0.98252068], "xyz": [0.9600152833942202, 2.99546540600672, 51.878608876629094], "label": "Li", "properties": {}}, {"species": [{"element": "Li", "occu": 1}], "abc": [0.80179567, 0.50245937, 0.91719037], "xyz": [3.99121536872682, 3.09072405706904, 48.42906764124366], "label": "Li", "properties": {}}, {"species": [{"element": "Li", "occu": 1}], "abc": [0.80157182, 0.99736489, 0.91718845], "xyz": [3.9901010778997206, 6.13498293244888, 48.42896626227926], "label": "Li", "properties": {}}, {"species": [{"element": "Li", "occu": 1}], "abc": [0.1927405, 0.01308198, 0.98252369], "xyz": [0.9594325269630001, 0.08046977072016, 51.878767809276404], "label": "Li", "properties": {}}, {"species": [{"element": "Li", "occu": 1}], "abc": [0.30190928, 0.00124225, 0.88288891], "xyz": [1.50285790181088, 0.007641318262, 46.61789759316148], "label": "Li", "properties": {}}, {"species": [{"element": "Li", "occu": 1}], "abc": [0.79678749, 0.74999659, 0.96459256], "xyz": [3.9662854199465407, 4.61337302443528, 50.93197646032894], "label": "Li", "properties": {}}, {"species": [{"element": "Li", "occu": 1}], "abc": [0.19710387, 0.24998579, 0.93410947], "xyz": [0.98115271086402, 1.53771059156168, 49.3224222436573], "label": "Li", "properties": {}}, {"species": [{"element": "P", "occu": 1}], "abc": [0.30557764, 0.25004542, 0.13221272], "xyz": [1.52111843296344, 1.5380773871406401, 6.9810357471511715], "label": "P", "properties": {}}, {"species": [{"element": "P", "occu": 1}], "abc": [0.69239378, 0.75000267, 0.16765106], "xyz": [3.4466296081978802, 4.61341042368264, 8.852234814530597], "label": "P", "properties": {}}, {"species": [{"element": "P", "occu": 1}], "abc": [0.80539241, 0.75002205, 0.06743439], "xyz": [4.00911938654886, 4.6135296337836, 3.560639908000784], "label": "P", "properties": {}}, {"species": [{"element": "P", "occu": 1}], "abc": [0.18767661, 0.25000033, 0.03303757], "xyz": [0.93422526238206, 1.5378000298933598, 1.7444347046865771], "label": "P", "properties": {}}, {"species": [{"element": "P", "occu": 1}], "abc": [0.30759469, 0.25001822, 0.33234988], "xyz": [1.5311589972377402, 1.5379100747182401, 17.548586798920724], "label": "P", "properties": {}}, {"species": [{"element": "P", "occu": 1}], "abc": [0.69440756, 0.75004292, 0.36778781], "xyz": [3.4566538949157604, 4.613658009160639, 19.419764217667126], "label": "P", "properties": {}}, {"species": [{"element": "P", "occu": 1}], "abc": [0.80686367, 0.75001064, 0.26771873], "xyz": [4.01644309225482, 4.61345944868288, 14.13596229101037], "label": "P", "properties": {}}, {"species": [{"element": "P", "occu": 1}], "abc": [0.19310218, 0.24999997, 0.23227424], "xyz": [0.9612329143042802, 1.53779781546424, 12.26443849413559], "label": "P", "properties": {}}, {"species": [{"element": "P", "occu": 1}], "abc": [0.81231847, 0.74999793, 0.466961], "xyz": [4.04359624661562, 4.61338126703256, 24.65626176910556], "label": "P", "properties": {}}, {"species": [{"element": "P", "occu": 1}], "abc": [0.19458934, 0.25001782, 0.43256771], "xyz": [0.9686357677616401, 1.53790761424144, 22.84024295524153], "label": "P", "properties": {}}, {"species": [{"element": "P", "occu": 1}], "abc": [0.19446781, 0.74992629, 0.63221267], "xyz": [0.96803081013726, 4.61294059563768, 33.38180508707397], "label": "P", "properties": {}}, {"species": [{"element": "P", "occu": 1}], "abc": [0.8076275, 0.24997675, 0.6676532], "xyz": [4.020245320365, 1.537654984786, 35.25311978983466], "label": "P", "properties": {}}, {"species": [{"element": "P", "occu": 1}], "abc": [0.69461276, 0.25000426, 0.56743399], "xyz": [3.4576753489149605, 1.5378242040779198, 29.9613907673832], "label": "P", "properties": {}}, {"species": [{"element": "P", "occu": 1}], "abc": [0.31231842, 0.7500034, 0.53303791], "xyz": [1.55467299772332, 4.6134149140528, 28.145224637211523], "label": "P", "properties": {}}, {"species": [{"element": "P", "occu": 1}], "abc": [0.19240688, 0.74999504, 0.83235254], "xyz": [0.9577718179804801, 4.613363490087679, 43.94949923102766], "label": "P", "properties": {}}, {"species": [{"element": "P", "occu": 1}], "abc": [0.8056043, 0.24995767, 0.86778648], "xyz": [4.0101741423378, 1.53753762004264, 45.82046597161366], "label": "P", "properties": {}}, {"species": [{"element": "P", "occu": 1}], "abc": [0.69311031, 0.25002985, 0.76772308], "xyz": [3.4501963841922603, 1.5379816130812, 40.53696395772659], "label": "P", "properties": {}}, {"species": [{"element": "P", "occu": 1}], "abc": [0.30681958, 0.75001386, 0.73227953], "xyz": [1.52730061902468, 4.613479255521121, 38.665489794303134], "label": "P", "properties": {}}, {"species": [{"element": "P", "occu": 1}], "abc": [0.68771331, 0.24999195, 0.96696427], "xyz": [3.4233309493302606, 1.5377484829044, 51.0572064101543], "label": "P", "properties": {}}, {"species": [{"element": "P", "occu": 1}], "abc": [0.30541783, 0.74998049, 0.93256632], "xyz": [1.5203229233941802, 4.61327399024408, 49.240941541095424], "label": "P", "properties": {}}, {"species": [{"element": "O", "occu": 1}], "abc": [0.20215376, 0.45709799, 0.11822572], "xyz": [1.0062902856009601, 2.81169749930408, 6.242500551782651], "label": "O", "properties": {}}, {"species": [{"element": "O", "occu": 1}], "abc": [0.70106603, 0.5440656, 0.08156832], "xyz": [3.4897987331713805, 3.3466519661952003, 4.306933234223347], "label": "O", "properties": {}}, {"species": [{"element": "O", "occu": 1}], "abc": [0.28710946, 0.45815894, 0.01882795], "xyz": [1.42918667702316, 2.8182236064564803, 0.9941448296016819], "label": "O", "properties": {}}, {"species": [{"element": "O", "occu": 1}], "abc": [0.28712155, 0.04186824, 0.01882641], "xyz": [1.4292468591813001, 0.25753958294208, 0.9940635152239834], "label": "O", "properties": {}}, {"species": [{"element": "O", "occu": 1}], "abc": [0.70107107, 0.9559998, 0.08156636], "xyz": [3.48982382151522, 5.8805383217616, 4.306829743197185], "label": "O", "properties": {}}, {"species": [{"element": "O", "occu": 1}], "abc": [0.20215478, 0.0429548, 0.11822656], "xyz": [1.0062953630038802, 0.2642232221216, 6.242544905079577], "label": "O", "properties": {}}, {"species": [{"element": "O", "occu": 1}], "abc": [0.79552983, 0.74999702, 0.13985888], "xyz": [3.96002498214618, 4.61337566944784, 7.384764800516364], "label": "O", "properties": {}}, {"species": [{"element": "O", "occu": 1}], "abc": [0.2023364, 0.25004834, 0.16000361], "xyz": [1.0071994393944002, 1.5380953486212798, 8.448437647173694], "label": "O", "properties": {}}, {"species": [{"element": "O", "occu": 1}], "abc": [0.29935929, 0.25001431, 0.0605165], "xyz": [1.49016444428934, 1.53788602355752, 3.19536463505534], "label": "O", "properties": {}}, {"species": [{"element": "O", "occu": 1}], "abc": [0.7043598, 0.7500117, 0.03946129], "xyz": [3.5061946129908, 4.613465968946399, 2.0836170386533084], "label": "O", "properties": {}}, {"species": [{"element": "O", "occu": 1}], "abc": [0.61911661, 0.25003367, 0.13193156], "xyz": [3.08186714062206, 1.53800511063464, 6.966190065051378], "label": "O", "properties": {}}, {"species": [{"element": "O", "occu": 1}], "abc": [0.37886367, 0.75000706, 0.16787536], "xyz": [1.8859250042548201, 4.61343742741552, 8.864078200840826], "label": "O", "properties": {}}, {"species": [{"element": "O", "occu": 1}], "abc": [0.11871347, 0.75001294, 0.06792664], "xyz": [0.5909373717856201, 4.6134735964244795, 3.586631468015094], "label": "O", "properties": {}}, {"species": [{"element": "O", "occu": 1}], "abc": [0.87550036, 0.250035, 0.03395908], "xyz": [4.35810596502456, 1.53801329172, 1.7930918554611568], "label": "O", "properties": {}}, {"species": [{"element": "O", "occu": 1}], "abc": [0.20427616, 0.45710549, 0.31834063], "xyz": [1.01685526595136, 2.81174363324408, 16.808876769199095], "label": "O", "properties": {}}, {"species": [{"element": "O", "occu": 1}], "abc": [0.79567193, 0.5429126, 0.18166099], "xyz": [3.9607323340627807, 3.3395596418192, 9.59198074930212], "label": "O", "properties": {}}, {"species": [{"element": "O", "occu": 1}], "abc": [0.70389581, 0.54295169, 0.28175157], "xyz": [3.5038849422252603, 3.33980009191448, 14.876917909154017], "label": "O", "properties": {}}, {"species": [{"element": "O", "occu": 1}], "abc": [0.29607151, 0.45706397, 0.21824846], "xyz": [1.47379838176746, 2.8114882357522397, 11.523855654892301], "label": "O", "properties": {}}, {"species": [{"element": "O", "occu": 1}], "abc": [0.29607447, 0.04292234, 0.21824674], "xyz": [1.47381311619162, 0.26402355442928, 11.523764836236689], "label": "O", "properties": {}}, {"species": [{"element": "O", "occu": 1}], "abc": [0.70389565, 0.95708142, 0.28175138], "xyz": [3.5038841457699004, 5.88719157405264, 14.876907876860663], "label": "O", "properties": {}}, {"species": [{"element": "O", "occu": 1}], "abc": [0.79569844, 0.95710774, 0.18165961], "xyz": [3.9608642967602403, 5.88735347342608, 9.591907883171455], "label": "O", "properties": {}}, {"species": [{"element": "O", "occu": 1}], "abc": [0.20431239, 0.04290245, 0.3183402], "xyz": [1.01703561331194, 0.2639012072204, 16.808854064535193], "label": "O", "properties": {}}, {"species": [{"element": "O", "occu": 1}], "abc": [0.79763709, 0.75004245, 0.33999632], "xyz": [3.9705145979081404, 4.6136551181004, 17.952330636718226], "label": "O", "properties": {}}, {"species": [{"element": "O", "occu": 1}], "abc": [0.2044492, 0.25000922, 0.36014034], "xyz": [1.0177166324232, 1.5378547139902399, 19.015965994279345], "label": "O", "properties": {}}, {"species": [{"element": "O", "occu": 1}], "abc": [0.29690695, 0.25001197, 0.2600534], "xyz": [1.4779570734297, 1.5378716297682398, 13.731221032047463], "label": "O", "properties": {}}, {"species": [{"element": "O", "occu": 1}], "abc": [0.70300945, 0.75000846, 0.23994372], "xyz": [3.4994727786447006, 4.6134460390843195, 12.66939887950593], "label": "O", "properties": {}}, {"species": [{"element": "O", "occu": 1}], "abc": [0.62111322, 0.25001993, 0.33212583], "xyz": [3.0918059577241204, 1.53792059325656, 17.536756612996488], "label": "O", "properties": {}}, {"species": [{"element": "O", "occu": 1}], "abc": [0.38087267, 0.75003449, 0.36806795], "xyz": [1.8959254968688204, 4.61360615461208, 19.434556042192078], "label": "O", "properties": {}}, {"species": [{"element": "O", "occu": 1}], "abc": [0.12036678, 0.75001112, 0.26792384], "xyz": [0.5991672943558801, 4.61346240125504, 14.146792415692007], "label": "O", "properties": {}}, {"species": [{"element": "O", "occu": 1}], "abc": [0.87959771, 0.25001264, 0.23207586], "xyz": [4.37850194233266, 1.5378757510668801, 12.253963723844805], "label": "O", "properties": {}}, {"species": [{"element": "O", "occu": 1}], "abc": [0.7978269, 0.54295749, 0.38177299], "xyz": [3.9714594428574004, 3.33983576882808, 20.158203314225638], "label": "O", "properties": {}}, {"species": [{"element": "O", "occu": 1}], "abc": [0.71286893, 0.54186922, 0.48117238], "xyz": [3.54855175172478, 3.33314161111024, 25.406644574907823], "label": "O", "properties": {}}, {"species": [{"element": "O", "occu": 1}], "abc": [0.29889926, 0.45597872, 0.41842993], "xyz": [1.48787448579396, 2.8048126546342402, 22.09374634307472], "label": "O", "properties": {}}, {"species": [{"element": "O", "occu": 1}], "abc": [0.29888833, 0.04406781, 0.41843135], "xyz": [1.48782007793718, 0.27106956032952, 22.093821321267143], "label": "O", "properties": {}}, {"species": [{"element": "O", "occu": 1}], "abc": [0.71286395, 0.95812436, 0.48117132], "xyz": [3.5485269620517004, 5.89360689823712, 25.406588605271228], "label": "O", "properties": {}}, {"species": [{"element": "O", "occu": 1}], "abc": [0.79782386, 0.95710216, 0.38177315], "xyz": [3.9714443102055608, 5.88731914977472, 20.15821176247267], "label": "O", "properties": {}}, {"species": [{"element": "O", "occu": 1}], "abc": [0.29561217, 0.24997732, 0.46053909], "xyz": [1.4715118579858202, 1.53765849096544, 24.317175005933393], "label": "O", "properties": {}}, {"species": [{"element": "O", "occu": 1}], "abc": [0.70063411, 0.75001283, 0.43948401], "xyz": [3.48764870192706, 4.6134729197933595, 23.205434273732077], "label": "O", "properties": {}}, {"species": [{"element": "O", "occu": 1}], "abc": [0.12449775, 0.75001224, 0.46604117], "xyz": [0.6197306268465, 4.61346929059008, 24.60769332492483], "label": "O", "properties": {}}, {"species": [{"element": "O", "occu": 1}], "abc": [0.88125428, 0.25001442, 0.43206779], "xyz": [4.38674809268088, 1.53788670018864, 22.813846407385046], "label": "O", "properties": {}}, {"species": [{"element": "O", "occu": 1}], "abc": [0.2978457, 0.54283471, 0.61822829], "xyz": [1.4826300263622, 3.33908052547432, 32.64340823175063], "label": "O", "properties": {}}, {"species": [{"element": "O", "occu": 1}], "abc": [0.79891531, 0.45596861, 0.58156736], "xyz": [3.976877380222261, 2.80475046608312, 30.70765452474114], "label": "O", "properties": {}}, {"species": [{"element": "O", "occu": 1}], "abc": [0.21287558, 0.54187228, 0.5188269], "xyz": [1.0596618544006802, 3.33316043375776, 27.39486136798052], "label": "O", "properties": {}}, {"species": [{"element": "O", "occu": 1}], "abc": [0.21287589, 0.95813992, 0.51882681], "xyz": [1.0596633975329401, 5.89370261078464, 27.394856615841565], "label": "O", "properties": {}}, {"species": [{"element": "O", "occu": 1}], "abc": [0.79892361, 0.0440371, 0.58156711], "xyz": [3.9769186963440606, 0.27088065722320004, 30.707641324355155], "label": "O", "properties": {}}, {"species": [{"element": "O", "occu": 1}], "abc": [0.29791418, 0.9569927, 0.618226], "xyz": [1.48297090925628, 5.8866458402984, 32.64328731621496], "label": "O", "properties": {}}, {"species": [{"element": "O", "occu": 1}], "abc": [0.70447269, 0.24998523, 0.63985935], "xyz": [3.5067565620257404, 1.53770714689416, 33.78556159724203], "label": "O", "properties": {}}, {"species": [{"element": "O", "occu": 1}], "abc": [0.2976954, 0.74992313, 0.66000549], "xyz": [1.4818818561084002, 4.61292115787096, 34.84930889407634], "label": "O", "properties": {}}, {"species": [{"element": "O", "occu": 1}], "abc": [0.2006334, 0.75000683, 0.56051585], "xyz": [0.9987221676564, 4.61343601264136, 29.596102294051764], "label": "O", "properties": {}}, {"species": [{"element": "O", "occu": 1}], "abc": [0.79562252, 0.25000035, 0.53946046], "xyz": [3.9604863786919204, 1.5378001529171998, 28.484345193371823], "label": "O", "properties": {}}, {"species": [{"element": "O", "occu": 1}], "abc": [0.88091523, 0.7499551, 0.63193401], "xyz": [4.3850603539945805, 4.6131178114792, 33.36709140883408], "label": "O", "properties": {}}, {"species": [{"element": "O", "occu": 1}], "abc": [0.12114455, 0.2499733, 0.66787536], "xyz": [0.6030389136393001, 1.5376337631736001, 35.264850180840824], "label": "O", "properties": {}}, {"species": [{"element": "O", "occu": 1}], "abc": [0.38129317, 0.25000334, 0.56792664], "xyz": [1.8980186811118203, 1.53781854498128, 29.987403448015094], "label": "O", "properties": {}}, {"species": [{"element": "O", "occu": 1}], "abc": [0.6244872, 0.75000275, 0.53395831], "xyz": [3.1086011105712004, 4.613410915778, 28.193823178272307], "label": "O", "properties": {}}, {"species": [{"element": "O", "occu": 1}], "abc": [0.29567596, 0.54288942, 0.81834337], "xyz": [1.4718293947821601, 3.3394170571886397, 43.209793425429545], "label": "O", "properties": {}}, {"species": [{"element": "O", "occu": 1}], "abc": [0.70433795, 0.45705541, 0.68166252], "xyz": [3.5060858470557004, 2.8114355815487198, 35.99283351566438], "label": "O", "properties": {}}, {"species": [{"element": "O", "occu": 1}], "abc": [0.7960757, 0.45708243, 0.78175424], "xyz": [3.9627422389422007, 2.81160178675656, 41.27783086927639], "label": "O", "properties": {}}, {"species": [{"element": "O", "occu": 1}], "abc": [0.20390763, 0.54291087, 0.71824891], "xyz": [1.0150207803649802, 3.3395490002570405, 37.924651395587084], "label": "O", "properties": {}}, {"species": [{"element": "O", "occu": 1}], "abc": [0.20390932, 0.95709037, 0.71824748], "xyz": [1.0150291929247202, 5.88724662722104, 37.92457588937922], "label": "O", "properties": {}}, {"species": [{"element": "O", "occu": 1}], "abc": [0.79603968, 0.04295366, 0.78175262], "xyz": [3.9625629369292805, 0.26421620976272, 41.277745330775176], "label": "O", "properties": {}}, {"species": [{"element": "O", "occu": 1}], "abc": [0.70430688, 0.04288383, 0.68166085], "xyz": [3.50593118538048, 0.26378667202536, 35.992745337085964], "label": "O", "properties": {}}, {"species": [{"element": "O", "occu": 1}], "abc": [0.29567093, 0.95709166, 0.81834156], "xyz": [1.4718043562167802, 5.88725456225872, 43.209697854634975], "label": "O", "properties": {}}, {"species": [{"element": "O", "occu": 1}], "abc": [0.70237619, 0.24997497, 0.83999466], "xyz": [3.49632050788674, 1.53764403566424, 44.35301496615525], "label": "O", "properties": {}}, {"species": [{"element": "O", "occu": 1}], "abc": [0.29554721, 0.74998089, 0.86014461], "xyz": [1.47118849710966, 4.61327645072088, 45.41696343687205], "label": "O", "properties": {}}, {"species": [{"element": "O", "occu": 1}], "abc": [0.20302471, 0.75000701, 0.76005473], "xyz": [1.0106257405746601, 4.61343711985592, 40.132063238100926], "label": "O", "properties": {}}, {"species": [{"element": "O", "occu": 1}], "abc": [0.79689903, 0.24999617, 0.73994517], "xyz": [3.96684064888938, 1.5377744409346399, 39.070247421744675], "label": "O", "properties": {}}, {"species": [{"element": "O", "occu": 1}], "abc": [0.87886747, 0.7499754, 0.83212967], "xyz": [4.37486692006962, 4.6132426806768, 43.93773135092529], "label": "O", "properties": {}}, {"species": [{"element": "O", "occu": 1}], "abc": [0.1191416, 0.24996669, 0.86806788], "xyz": [0.5930685369936001, 1.5375931037944799, 45.835324326084006], "label": "O", "properties": {}}, {"species": [{"element": "O", "occu": 1}], "abc": [0.37961158, 0.25000719, 0.76792454], "xyz": [1.88964798505668, 1.53784222707048, 40.54760135677277], "label": "O", "properties": {}}, {"species": [{"element": "O", "occu": 1}], "abc": [0.62032485, 0.74999798, 0.7320807], "xyz": [3.0878815732731004, 4.61338157459216, 38.65499126331757], "label": "O", "properties": {}}, {"species": [{"element": "O", "occu": 1}], "abc": [0.70220501, 0.45704879, 0.88177215], "xyz": [3.4954684002084604, 2.8113948606576797, 46.55893094092871], "label": "O", "properties": {}}, {"species": [{"element": "O", "occu": 1}], "abc": [0.78714273, 0.4581362, 0.9811723], "xyz": [3.9182752899595803, 2.8180837283504, 51.8074123307843], "label": "O", "properties": {}}, {"species": [{"element": "O", "occu": 1}], "abc": [0.20108301, 0.54400798, 0.91843349], "xyz": [1.0009602569964602, 3.3462975345121597, 48.494706296571216], "label": "O", "properties": {}}, {"species": [{"element": "O", "occu": 1}], "abc": [0.20114184, 0.95594259, 0.91843061], "xyz": [1.00125310367664, 5.88018641206728, 48.49455422812461], "label": "O", "properties": {}}, {"species": [{"element": "O", "occu": 1}], "abc": [0.78712215, 0.04187033, 0.98117428], "xyz": [3.9181728458889, 0.25755243893336, 51.807516877841344], "label": "O", "properties": {}}, {"species": [{"element": "O", "occu": 1}], "abc": [0.70219184, 0.04289759, 0.88177439], "xyz": [3.4954028419766403, 0.26387131242728, 46.55904921638718], "label": "O", "properties": {}}, {"species": [{"element": "O", "occu": 1}], "abc": [0.20442295, 0.75000279, 0.96053946], "xyz": [1.0175859639657001, 4.61341116182568, 50.71796652250466], "label": "O", "properties": {}}, {"species": [{"element": "O", "occu": 1}], "abc": [0.79942234, 0.24995161, 0.93948599], "xyz": [3.97940129747964, 1.53750034381912, 49.60631080078912], "label": "O", "properties": {}}, {"species": [{"element": "O", "occu": 1}], "abc": [0.37553073, 0.24999474, 0.96604003], "xyz": [1.86933414220758, 1.53776564473008, 51.00840511116472], "label": "O", "properties": {}}, {"species": [{"element": "O", "occu": 1}], "abc": [0.61874107, 0.74995384, 0.9320644], "xyz": [3.07999776033522, 4.61311006097728, 49.21443939015102], "label": "O", "properties": {}}]}, "formula": "(Li3PO4)20.0", "bandgap": 5.7221}