{"miller": "111_0.50", "final_energy": -277.03795985, "gamma": 0.01531905433815001, "work_function": 3.707179157254356, "ionization_potentail": -4.023779157254356, "electron_affinity": -1.6005791572543564, "is_stochiometric": true, "incar_parameters": {"SYSTEM": "unknown system", "LCOMPAT": false, "PREC": "normal", "ENMAX": 520.0, "ENAUG": 368.056, "EDIFF": 1e-05, "IALGO": 38, "IWAVPR": 11, "NBANDS": 336, "NBANDSLOW": -1, "NBANDSHIGH": -1, "NELECT": 560.0, "TURBO": 0, "IRESTART": 0, "NREBOOT": 0, "NMIN": 0, "EREF": 0.0, "ISMEAR": 0, "SIGMA": 0.05, "KSPACING": 0.5, "KGAMMA": true, "KBLOWUP": true, "LREAL": true, "ROPT": [-0.0005, -0.0005], "LMAXPAW": -100, "LMAXMIX": 2, "NLSPLINE": false, "ISTART": 0, "ICHARG": 2, "INIWAV": 1, "ISPIN": 1, "LNONCOLLINEAR": false, "MAGMOM": [0.6, 0.6, 0.6, 0.6, 0.6, 0.6, 0.6, 0.6, 0.6, 0.6, 0.6, 0.6, 0.6, 0.6, 0.6, 0.6, 0.6, 0.6, 0.6, 0.6, 0.6, 0.6, 0.6, 0.6, 0.6, 0.6, 0.6, 0.6, 0.6, 0.6, 0.6, 0.6, 0.6, 0.6, 0.6, 0.6, 0.6, 0.6, 0.6, 0.6, 0.6, 0.6, 0.6, 0.6, 0.6, 0.6, 0.6, 0.6, 0.6, 0.6, 0.6, 0.6, 0.6, 0.6, 0.6, 0.6, 0.6, 0.6, 0.6, 0.6, 0.6, 0.6, 0.6, 0.6, 0.6, 0.6, 0.6, 0.6, 0.6, 0.6, 0.6, 0.6, 0.6, 0.6, 0.6, 0.6, 0.6, 0.6, 0.6, 0.6, 0.6, 0.6, 0.6, 0.6], "NUPDOWN": -1.0, "LSORBIT": false, "SAXIS": [0.0, 0.0, 1.0], "LSPIRAL": false, "QSPIRAL": [0.0, 0.0, 0.0], "LZEROZ": false, "LASPH": false, "LMETAGGA": false, "NELM": 100, "NELMDL": -5, "NELMIN": 6, "ENINI": 520.0, "LDIAG": true, "LSUBROT": false, "WEIMIN": 0.001, "EBREAK": 1e-08, "DEPER": 0.3, "NRMM": 4, "TIME": 0.4, "AMIX": 0.4, "BMIX": 1.0, "AMIN": 0.1, "AMIX_MAG": 1.6, "BMIX_MAG": 1.0, "IMIX": 4, "MIXFIRST": false, "MAXMIX": -45, "WC": 100.0, "INIMIX": 1, "MIXPRE": 1, "MREMOVE": 5, "LDIPOL": false, "LMONO": false, "IDIPOL": 0, "EPSILON": 1.0, "DIPOL": [-100.0, -100.0, -100.0], "EFIELD": 0.0, "NGX": 54, "NGY": 54, "NGZ": 240, "NGXF": 108, "NGYF": 108, "NGZF": 480, "ADDGRID": false, "NSW": 150, "IBRION": 2, "MDALGO": 0, "ISIF": 2, "PSTRESS": 0.0, "EDIFFG": -0.01, "NFREE": 1, "POTIM": 0.5, "SMASS": -3.0, "SCALEE": 1.0, "TEBEG": 0.0001, "TEEND": 0.0001, "NBLOCK": 1, "KBLOCK": 150, "NPACO": 256, "APACO": 10.0, "ISYM": 0, "SYMPREC": 1e-05, "LORBIT": 11, "RWIGS": [-1.0, -1.0], "NEDOS": 301, "EMIN": 10.0, "EMAX": -10.0, "EFERMI": 0.0, "NWRITE": 2, "LWAVE": false, "LDOWNSAMPLE": false, "LCHARG": false, "LPARD": false, "LVTOT": false, "LVHAR": false, "LELF": false, "LOPTICS": false, "STM": [0.0, 0.0, 0.0, 0.0, 0.0, 0.0, 0.0], "NPAR": 1, "NSIM": 4, "NBLK": -1, "LPLANE": true, "LSCALAPACK": true, "LSCAAWARE": false, "LSCALU": false, "LASYNC": false, "LORBITALREAL": false, "IDIOT": 3, "PHON_NSTRUCT": -1, "LMUSIC": false, "POMASS": [22.99, 32.066], "DARWINR": [0.0, 0.0], "DARWINV": [1.0, 1.0], "LCORR": true, "GGA_COMPAT": true, "LBERRY": false, "ICORELEVEL": 0, "LDAU": false, "I_CONSTRAINED_M": 0, "GGA": "--", "VOSKOWN": 0, "LHFCALC": false, "PRECFOCK": "", "LSYMGRAD": false, "LHFONE": false, "LRHFCALC": false, "LTHOMAS": false, "LMODELHF": false, "LFOCKACE": false, "ENCUT4O": -1.0, "EXXOEP": 0, "FOURORBIT": 0, "AEXX": 0.0, "HFALPHA": 0.0, "MCALPHA": 0.0, "ALDAX": 1.0, "AGGAX": 1.0, "ALDAC": 1.0, "AGGAC": 1.0, "NKREDX": 1, "NKREDY": 1, "NKREDZ": 1, "SHIFTRED": false, "ODDONLY": false, "EVENONLY": false, "LMAXFOCK": 0, "NMAXFOCKAE": 0, "LFOCKAEDFT": false, "HFSCREEN": 0.0, "HFSCREENC": 0.0, "NBANDSGWLOW": 0, "LUSE_VDW": false, "Zab_VDW": -0.8491, "PARAM1": 0.1234, "PARAM2": 1.0, "PARAM3": 0.0, "MODEL_GW": 0, "MODEL_EPS0": 22.10932871, "MODEL_ALPHA": 1.0, "LEPSILON": false, "LRPA": false, "LNABLA": false, "LVEL": false, "CSHIFT": 0.1, "OMEGAMAX": -1.0, "DEG_THRESHOLD": 0.002, "RTIME": -0.1, "WPLASMAI": 0.0, "DFIELD": [0.0, 0.0, 0.0], "WPLASMA": [0.0, 0.0, 0.0, 0.0, 0.0, 0.0, 0.0, 0.0, 0.0], "NUCIND": false, "MAGPOS": [0.0, 0.0, 0.0], "LNICSALL": true, "ORBITALMAG": false, "LMAGBLOCH": false, "LCHIMAG": false, "LGAUGE": true, "MAGATOM": 0, "MAGDIPOL": [0.0, 0.0, 0.0], "AVECCONST": [0.0, 0.0, 0.0], "LFINITE_TEMPERATURE": false, "LADDER": false, "LRPAFORCE": false, "LFXC": false, "LHARTREE": true, "IBSE": 0, "KPOINT": [-1, 0, 0, 0], "LTCTC": false, "LTCTE": false, "LTETE": false, "LTRIPLET": false, "LFXCEPS": false, "LFXHEG": false, "NATURALO": 2, "LHOLEGF": false, "L2ORDER": false, "LDMP1": false, "LMP2LT": false, "LSMP2LT": false, "LGWLF": false, "ENCUTGW": -2.0, "ENCUTGWSOFT": -2.0, "ENCUTLF": -1.0, "LESF_SPLINES": false, "LMAXMP2": -1, "SCISSOR": 0.0, "NOMEGA": 0, "NOMEGAR": 0, "NBANDSGW": -1, "NBANDSO": -1, "NBANDSV": -1, "NELMGW": 1, "NELMHF": 1, "DIM": 3, "IESPILON": 4, "ANTIRES": 0, "OMEGAMIN": -30.0, "OMEGATL": -200.0, "OMEGAGRID": 0, "LSELFENERGY": false, "LSPECTRAL": false, "LSPECTRALGW": false, "LSINGLES": false, "LFERMIGW": false, "ODDONLYGW": false, "EVENONLYGW": false, "NKREDLFX": 1, "NKREDLFY": 1, "NKREDLFZ": 1, "MAXMEM": 2800, "TELESCOPE": 0, "NTAUPAR": -1, "NOMEGAPAR": -1, "DAMP_NEWTON": 0.80000001, "LAMBDA": 1.0, "OFIELD_KAPPA": 0.0, "OFIELD_K": [0.0, 0.0, 0.0], "OFIELD_Q6_NEAR": 0.0, "OFIELD_Q6_FAR": 0.0, "OFIELD_A": 0.0, "KPOINTS_OPT_MODE": 1, "LKPOINTS_OPT": false, "@module": "pymatgen.io.vasp.inputs", "@class": "Incar"}, "relaxed_structures": {"@module": "pymatgen.core.structure", "@class": "Structure", "charge": 0, "lattice": {"matrix": [[9.267273, 0.0, 0.0], [4.633637, 8.025694, 0.0], [0.0, 0.0, 41.616834]], "a": 9.267273, "b": 9.267273387000353, "c": 41.616834, "alpha": 90.0, "beta": 90.0, "gamma": 59.999997811884434, "volume": 3095.3060187873766}, "sites": [{"species": [{"element": "Na", "occu": 1}], "abc": [0.66666916, 0.16666915, 0.00010008000000000239], "xyz": [6.95048944659923, 1.3376355971401, 0.004165012746720099], "label": "Na", "properties": {}}, {"species": [{"element": "Na", "occu": 1}], "abc": [4.2e-07, 0.50000048, 0.043941350000000004], "xyz": [2.31682461640042, 4.01285085233312, 1.8286998686859], "label": "Na", "properties": {}}, {"species": [{"element": "Na", "occu": 1}], "abc": [0.50000032, 3.6e-07, 0.0439413], "xyz": [4.63364113363668, 2.8892498399999998e-06, 1.8286977878442], "label": "Na", "properties": {}}, {"species": [{"element": "Na", "occu": 1}], "abc": [0.16666922, 0.66666915, 0.00010003000000000095], "xyz": [4.63367200263561, 5.3504825971401, 0.00416293190502004], "label": "Na", "properties": {}}, {"species": [{"element": "Na", "occu": 1}], "abc": [0.16666944, 0.16666943, 9.99999999999994e-05], "xyz": [2.3168568388540303, 1.33763784433442, 0.004161683399999974], "label": "Na", "properties": {}}, {"species": [{"element": "Na", "occu": 1}], "abc": [0.50000045, 0.50000069, 0.04394154], "xyz": [6.95046236748238, 4.01285253772886, 1.82870777588436], "label": "Na", "properties": {}}, {"species": [{"element": "Na", "occu": 1}], "abc": [6.2e-07, 5e-07, 0.04394151], "xyz": [8.06252776e-06, 4.012846999999999e-06, 1.82870652737934], "label": "Na", "properties": {}}, {"species": [{"element": "Na", "occu": 1}], "abc": [0.66666946, 0.66666939, 9.99999999999994e-05], "xyz": [9.26731183885401, 5.35048452330666, 0.004161683399999974], "label": "Na", "properties": {}}, {"species": [{"element": "Na", "occu": 1}], "abc": [0.33333548, 0.83333558, 0.08903351000000001], "xyz": [6.9504854706505, 6.6880963643925195, 3.70529280610734], "label": "Na", "properties": {}}, {"species": [{"element": "Na", "occu": 1}], "abc": [0.66666456, 0.16666453, 0.13486217], "xyz": [6.95042540974049, 1.33759851843382, 5.61253654176978], "label": "Na", "properties": {}}, {"species": [{"element": "Na", "occu": 1}], "abc": [0.16666447, 0.66666448, 0.13486220000000002], "xyz": [4.63360634400407, 5.350445117149119, 5.6125377902748], "label": "Na", "properties": {}}, {"species": [{"element": "Na", "occu": 1}], "abc": [0.83333548, 0.33333564, 0.08903347], "xyz": [9.26730374866872, 2.6752498459341596, 3.70529114143398], "label": "Na", "properties": {}}, {"species": [{"element": "Na", "occu": 1}], "abc": [0.83333557, 0.83333566, 0.08903372000000001], "xyz": [11.58412317539603, 6.68809700644804, 3.70530154564248], "label": "Na", "properties": {}}, {"species": [{"element": "Na", "occu": 1}], "abc": [0.16666475, 0.16666496, 0.1348621], "xyz": [2.31679266298627, 1.3376019694822399, 5.6125336285914], "label": "Na", "properties": {}}, {"species": [{"element": "Na", "occu": 1}], "abc": [0.66666498, 0.66666473, 0.1348621], "xyz": [9.26724872872255, 5.35044712357262, 5.6125336285914], "label": "Na", "properties": {}}, {"species": [{"element": "Na", "occu": 1}], "abc": [0.33333555, 0.33333564, 0.08903370000000001], "xyz": [4.63366789737783, 2.6752498459341596, 3.7053007133058], "label": "Na", "properties": {}}, {"species": [{"element": "Na", "occu": 1}], "abc": [2.33e-06, 0.50000231, 0.18048228], "xyz": [2.3168507964475595, 4.01286553935314, 7.511101086701519], "label": "Na", "properties": {}}, {"species": [{"element": "Na", "occu": 1}], "abc": [0.33333138, 0.83333144, 0.22615267], "xyz": [6.9504282915740205, 6.68806313801936, 9.411758126046779], "label": "Na", "properties": {}}, {"species": [{"element": "Na", "occu": 1}], "abc": [0.83333165, 0.33333173, 0.22615282], "xyz": [9.267250137492459, 2.67521846547062, 9.41176436857188], "label": "Na", "properties": {}}, {"species": [{"element": "Na", "occu": 1}], "abc": [0.50000232, 2.36e-06, 0.18048225], "xyz": [4.633668935456679, 1.894063784e-05, 7.5110998381964995], "label": "Na", "properties": {}}, {"species": [{"element": "Na", "occu": 1}], "abc": [0.50000239, 0.50000228, 0.18048214], "xyz": [6.95048771347483, 4.01286529858232, 7.51109526034476], "label": "Na", "properties": {}}, {"species": [{"element": "Na", "occu": 1}], "abc": [0.83333178, 0.83333159, 0.22615283], "xyz": [11.58406919352877, 6.68806434187346, 9.41176478474022], "label": "Na", "properties": {}}, {"species": [{"element": "Na", "occu": 1}], "abc": [0.33333148, 0.33333188, 0.22615280000000001], "xyz": [4.6336127571016, 2.67521966932472, 9.4117635362352], "label": "Na", "properties": {}}, {"species": [{"element": "Na", "occu": 1}], "abc": [2.25e-06, 2.41e-06, 0.18048214], "xyz": [3.201842942e-05, 1.9341922539999996e-05, 7.51109526034476], "label": "Na", "properties": {}}, {"species": [{"element": "Na", "occu": 1}], "abc": [0.66666905, 0.16666904, 0.27173986], "xyz": [6.95048791749913, 1.33763471431376, 11.30895264480324], "label": "Na", "properties": {}}, {"species": [{"element": "Na", "occu": 1}], "abc": [0.99999905, 0.49999909, 0.31739304], "xyz": [11.58407847948098, 4.012839696618459, 13.20889345843536], "label": "Na", "properties": {}}, {"species": [{"element": "Na", "occu": 1}], "abc": [0.49999905, 0.99999914, 0.31739298], "xyz": [9.26726071116283, 8.025687097903159, 13.208890961425318], "label": "Na", "properties": {}}, {"species": [{"element": "Na", "occu": 1}], "abc": [0.16666914, 0.66666907, 0.27173998], "xyz": [4.63367089056281, 5.35048195508458, 11.308957638823319], "label": "Na", "properties": {}}, {"species": [{"element": "Na", "occu": 1}], "abc": [0.16666908, 0.1666689, 0.27173994], "xyz": [2.3168510468081402, 1.3376335907166, 11.30895597414996], "label": "Na", "properties": {}}, {"species": [{"element": "Na", "occu": 1}], "abc": [0.49999896, 0.49999901, 0.317393], "xyz": [6.9504407747354495, 4.01283905456294, 13.208891793761998], "label": "Na", "properties": {}}, {"species": [{"element": "Na", "occu": 1}], "abc": [0.99999896, 0.99999901, 0.317393], "xyz": [13.90089577473545, 8.02568605456294, 13.208891793761998], "label": "Na", "properties": {}}, {"species": [{"element": "Na", "occu": 1}], "abc": [0.66666892, 0.66666904, 0.27173994], "xyz": [9.267305212753639, 5.35048171431376, 11.30895597414996], "label": "Na", "properties": {}}, {"species": [{"element": "Na", "occu": 1}], "abc": [0.33333397, 0.833334, 0.36296461], "xyz": [6.95046415592181, 6.688083683796, 15.10543792224474], "label": "Na", "properties": {}}, {"species": [{"element": "Na", "occu": 1}], "abc": [0.66666441, 0.16666453, 0.40844175], "xyz": [6.95042401964954, 1.33759851843382, 16.998052508419498], "label": "Na", "properties": {}}, {"species": [{"element": "Na", "occu": 1}], "abc": [0.16666443, 0.66666438, 0.40844182], "xyz": [4.63360550994945, 5.350444314579719, 16.99805542159788], "label": "Na", "properties": {}}, {"species": [{"element": "Na", "occu": 1}], "abc": [0.83333392, 0.3333339, 0.36296461], "xyz": [9.26728122919446, 2.6752358812266, 15.10543792224474], "label": "Na", "properties": {}}, {"species": [{"element": "Na", "occu": 1}], "abc": [0.83333413, 0.83333403, 0.36296465], "xyz": [11.5841022776946, 6.688083924566819, 15.105439586918099], "label": "Na", "properties": {}}, {"species": [{"element": "Na", "occu": 1}], "abc": [0.1666642, 0.16666425, 0.40844166], "xyz": [2.31678427610385, 1.3375962712395, 16.99804876290444], "label": "Na", "properties": {}}, {"species": [{"element": "Na", "occu": 1}], "abc": [0.66666424, 0.6666642, 0.40844168000000003], "xyz": [9.26723941511292, 5.3504428699548, 16.99804959524112], "label": "Na", "properties": {}}, {"species": [{"element": "Na", "occu": 1}], "abc": [0.33333404, 0.3333341, 0.36296466], "xyz": [4.63364676799462, 2.6752374863654, 15.10544000308644], "label": "Na", "properties": {}}, {"species": [{"element": "Na", "occu": 1}], "abc": [6.3e-07, 0.50000042, 0.45402856], "xyz": [2.31682628450953, 4.0128503707914795, 18.89523121277904], "label": "Na", "properties": {}}, {"species": [{"element": "Na", "occu": 1}], "abc": [0.33333063, 0.83333061, 0.49968353], "xyz": [6.9504174952005595, 6.6880564766933395, 20.79524652054402], "label": "Na", "properties": {}}, {"species": [{"element": "Na", "occu": 1}], "abc": [0.83333059, 0.33333067, 0.49968345999999997], "xyz": [9.26723540252786, 2.67520995823498, 20.795243607365638], "label": "Na", "properties": {}}, {"species": [{"element": "Na", "occu": 1}], "abc": [0.50000076, 6.6e-07, 0.45402856], "xyz": [4.6336466013279, 5.29695804e-06, 18.89523121277904], "label": "Na", "properties": {}}, {"species": [{"element": "Na", "occu": 1}], "abc": [0.50000076, 0.49999995, 0.45402847], "xyz": [6.9504618114456305, 4.0128465987153, 18.89522746726398], "label": "Na", "properties": {}}, {"species": [{"element": "Na", "occu": 1}], "abc": [0.8333305, 0.83333059, 0.49968351], "xyz": [11.58405269778233, 6.68805631617946, 20.795245688207338], "label": "Na", "properties": {}}, {"species": [{"element": "Na", "occu": 1}], "abc": [0.33333058, 0.33333051, 0.49968347], "xyz": [4.63359806847321, 2.6752086741239403, 20.79524402353398], "label": "Na", "properties": {}}, {"species": [{"element": "Na", "occu": 1}], "abc": [1.3e-07, 6.4e-07, 0.45402846], "xyz": [4.17027317e-06, 5.13644416e-06, 18.895227051095638], "label": "Na", "properties": {}}, {"species": [{"element": "Na", "occu": 1}], "abc": [0.66666901, 0.16666903, 0.5447531800000001], "xyz": [6.95048750047184, 1.33763463405682, 22.67090266303212], "label": "Na", "properties": {}}, {"species": [{"element": "Na", "occu": 1}], "abc": [0.99999628, 0.49999628, 0.58860138], "xyz": [11.584039788614799, 4.01281714441832, 24.495725923630918], "label": "Na", "properties": {}}, {"species": [{"element": "Na", "occu": 1}], "abc": [0.4999965, 0.99999651, 0.58860159], "xyz": [9.267224893151369, 8.025665990327939, 24.495734663166058], "label": "Na", "properties": {}}, {"species": [{"element": "Na", "occu": 1}], "abc": [0.16666908, 0.66666905, 0.54475313], "xyz": [4.6336702418536895, 5.350481794570699, 22.67090058219042], "label": "Na", "properties": {}}, {"species": [{"element": "Na", "occu": 1}], "abc": [0.16666913, 0.16666845, 0.54475315], "xyz": [2.31684942503514, 1.3376299791542998, 22.670901414527098], "label": "Na", "properties": {}}, {"species": [{"element": "Na", "occu": 1}], "abc": [0.49999674, 0.4999959, 0.58860167], "xyz": [6.950405790778319, 4.012814094654599, 24.495737992512776], "label": "Na", "properties": {}}, {"species": [{"element": "Na", "occu": 1}], "abc": [0.99999598, 0.99999667, 0.58860168], "xyz": [13.90085731555133, 8.02566727443898, 24.49573840868112], "label": "Na", "properties": {}}, {"species": [{"element": "Na", "occu": 1}], "abc": [0.6666686, 0.66666897, 0.54475317], "xyz": [9.267301922871688, 5.35048115251518, 22.67090224686378], "label": "Na", "properties": {}}, {"species": [{"element": "S", "occu": 1}], "abc": [0.33333437, 0.83333437, 0.020224300000000004], "xyz": [6.950469577276699, 6.68808665330278, 0.8416713358662001], "label": "S", "properties": {}}, {"species": [{"element": "S", "occu": 1}], "abc": [0.83333446, 0.8333344, 0.020224330000000002], "xyz": [11.58410705034038, 6.6880868940736, 0.8416725843712201], "label": "S", "properties": {}}, {"species": [{"element": "S", "occu": 1}], "abc": [0.3333344, 0.33333446, 0.020224330000000002], "xyz": [4.63365177232222, 2.67524037561524, 0.8416725843712201], "label": "S", "properties": {}}, {"species": [{"element": "S", "occu": 1}], "abc": [0.83333439, 0.3333344, 0.02022427], "xyz": [9.267287901631269, 2.6752398940735995, 0.8416700873611799], "label": "S", "properties": {}}, {"species": [{"element": "S", "occu": 1}], "abc": [1.3e-07, 0.50000013, 0.11207293000000002], "xyz": [2.3168203071183, 4.012848043340219, 4.6641205237036205], "label": "S", "properties": {}}, {"species": [{"element": "S", "occu": 1}], "abc": [0.50000008, 0.50000014, 0.11207297], "xyz": [6.95045639009102, 4.01284812359716, 4.66412218837698], "label": "S", "properties": {}}, {"species": [{"element": "S", "occu": 1}], "abc": [1.3e-07, 1.2e-07, 0.11207297], "xyz": [1.76078193e-06, 9.630832799999998e-07, 4.66412218837698], "label": "S", "properties": {}}, {"species": [{"element": "S", "occu": 1}], "abc": [0.50000009, 1.3e-07, 0.1120729], "xyz": [4.63363793642738, 1.04334022e-06, 4.6641192751986], "label": "S", "properties": {}}, {"species": [{"element": "S", "occu": 1}], "abc": [0.66666689, 0.16666691, 0.20330874000000002], "xyz": [6.95045803054264, 1.33761761958554, 8.46106608332916], "label": "S", "properties": {}}, {"species": [{"element": "S", "occu": 1}], "abc": [0.16666681, 0.16666695, 0.20330873], "xyz": [2.31682097450628, 1.3376179406133, 8.461065667160819], "label": "S", "properties": {}}, {"species": [{"element": "S", "occu": 1}], "abc": [0.66666694, 0.66666684, 0.20330874000000002], "xyz": [9.2672766695517, 5.35046405778696, 8.46106608332916], "label": "S", "properties": {}}, {"species": [{"element": "S", "occu": 1}], "abc": [0.16666682, 0.66666691, 0.20330875], "xyz": [4.63363938183353, 5.35046461958554, 8.4610664994975], "label": "S", "properties": {}}, {"species": [{"element": "S", "occu": 1}], "abc": [0.33333367, 0.83333369, 0.29458444], "xyz": [6.95045993931244, 6.6880811958308595, 12.25967173846296], "label": "S", "properties": {}}, {"species": [{"element": "S", "occu": 1}], "abc": [0.83333363, 0.83333366, 0.29458445], "xyz": [11.58409592961241, 6.688080955060039, 12.2596721546313], "label": "S", "properties": {}}, {"species": [{"element": "S", "occu": 1}], "abc": [0.33333365, 0.33333363, 0.29458445], "xyz": [4.63364097594876, 2.6752337142892197, 12.2596721546313], "label": "S", "properties": {}}, {"species": [{"element": "S", "occu": 1}], "abc": [0.83333368, 0.33333365, 0.29458445], "xyz": [9.26727784663969, 2.6752338748030997, 12.2596721546313], "label": "S", "properties": {}}, {"species": [{"element": "S", "occu": 1}], "abc": [0.99999946, 0.49999944, 0.38571496], "xyz": [11.58408390083586, 4.01284250561136, 16.052235461636638], "label": "S", "properties": {}}, {"species": [{"element": "S", "occu": 1}], "abc": [0.49999945, 0.49999942, 0.38571493], "xyz": [6.9504472154903905, 4.01284234509748, 16.05223421313162], "label": "S", "properties": {}}, {"species": [{"element": "S", "occu": 1}], "abc": [0.99999941, 0.99999945, 0.38571493], "xyz": [13.90090198380858, 8.0256895858683, 16.05223421313162], "label": "S", "properties": {}}, {"species": [{"element": "S", "occu": 1}], "abc": [0.49999951, 0.99999949, 0.38571496], "xyz": [9.26726659588136, 8.02568990689606, 16.052235461636638], "label": "S", "properties": {}}, {"species": [{"element": "S", "occu": 1}], "abc": [0.66666605, 0.16666598, 0.47667625], "xyz": [6.95044593675091, 1.3376101556901199, 19.8377563679925], "label": "S", "properties": {}}, {"species": [{"element": "S", "occu": 1}], "abc": [0.16666605, 0.16666591, 0.47667622], "xyz": [2.31680911239632, 1.33760959389154, 19.83775511948748], "label": "S", "properties": {}}, {"species": [{"element": "S", "occu": 1}], "abc": [0.66666594, 0.66666605, 0.47667623000000003], "xyz": [9.26726374170547, 5.3504577174887, 19.83775553565582], "label": "S", "properties": {}}, {"species": [{"element": "S", "occu": 1}], "abc": [0.16666607, 0.66666607, 0.47667621000000004], "xyz": [4.6336285391237, 5.3504578780025795, 19.837754703319142], "label": "S", "properties": {}}, {"species": [{"element": "S", "occu": 1}], "abc": [0.3333327, 0.83333262, 0.5684333], "xyz": [6.95044599206604, 6.688072608338279, 23.6563942861722], "label": "S", "properties": {}}, {"species": [{"element": "S", "occu": 1}], "abc": [0.83333275, 0.83333275, 0.56843326], "xyz": [11.584083557802499, 6.6880736516785, 23.656392621498842], "label": "S", "properties": {}}, {"species": [{"element": "S", "occu": 1}], "abc": [0.33333276, 0.33333275, 0.56843326], "xyz": [4.63362865047523, 2.6752266516785, 23.656392621498842], "label": "S", "properties": {}}, {"species": [{"element": "S", "occu": 1}], "abc": [0.83333272, 0.33333269, 0.5684333], "xyz": [9.267264501766089, 2.6752261701368596, 23.6563942861722], "label": "S", "properties": {}}]}, "formula": "(Na2S)28.0", "bandgap": 2.4232, "slab_thickness": 24.49157672528112}