{"miller": "100_0.37", "final_energy": -1207.65889038, "sigma": 0.057895052255198275, "incar_parameters": {"SYSTEM": "unknown system", "LCOMPAT": false, "PREC": "normal", "ENMAX": 520.0, "ENAUG": 605.392, "EDIFF": 1e-05, "IALGO": 38, "IWAVPR": 11, "NBANDS": 624, "NBANDSLOW": -1, "NBANDSHIGH": -1, "NELECT": 1040.0, "TURBO": 0, "IRESTART": 0, "NREBOOT": 0, "NMIN": 0, "EREF": 0.0, "ISMEAR": 0, "SIGMA": 0.05, "KSPACING": 0.5, "KGAMMA": true, "KBLOWUP": true, "LREAL": true, "ROPT": [-0.0005, -0.0005, -0.0005, -0.0005, -0.0005], "LMAXPAW": -100, "LMAXMIX": 4, "NLSPLINE": false, "ISTART": 0, "ICHARG": 2, "INIWAV": 1, "ISPIN": 1, "LNONCOLLINEAR": false, "MAGMOM": [0.6, 0.6, 0.6, 0.6, 0.6, 0.6, 0.6, 0.6, 0.6, 0.6, 0.6, 0.6, 0.6, 0.6, 0.6, 0.6, 0.6, 0.6, 0.6, 0.6, 0.6, 0.6, 0.6, 0.6, 0.6, 0.6, 0.6, 0.6, 0.6, 0.6, 0.6, 0.6, 0.6, 0.6, 0.6, 0.6, 0.6, 0.6, 0.6, 0.6, 0.6, 0.6, 0.6, 0.6, 0.6, 0.6, 0.6, 0.6, 0.6, 0.6, 0.6, 0.6, 0.6, 0.6, 0.6, 0.6, 0.6, 0.6, 0.6, 0.6, 0.6, 0.6, 0.6, 0.6, 0.6, 0.6, 0.6, 0.6, 0.6, 0.6, 0.6, 0.6, 0.6, 0.6, 0.6, 0.6, 0.6, 0.6, 0.6, 0.6, 0.6, 0.6, 0.6, 0.6, 0.6, 0.6, 0.6, 0.6, 0.6, 0.6, 0.6, 0.6, 0.6, 0.6, 0.6, 0.6, 0.6, 0.6, 0.6, 0.6, 0.6, 0.6, 0.6, 0.6, 0.6, 0.6, 0.6, 0.6, 0.6, 0.6, 0.6, 0.6, 0.6, 0.6, 0.6, 0.6, 0.6, 0.6, 0.6, 0.6, 0.6, 0.6, 0.6, 0.6, 0.6, 0.6, 0.6, 0.6, 0.6, 0.6, 0.6, 0.6, 0.6, 0.6, 0.6, 0.6, 0.6, 0.6, 0.6, 0.6, 0.6, 0.6, 0.6, 0.6, 0.6, 0.6, 0.6, 0.6, 0.6, 0.6, 0.6, 0.6, 0.6, 0.6, 0.6, 0.6, 0.6, 0.6, 0.6, 0.6], "NUPDOWN": -1.0, "LSORBIT": false, "SAXIS": [0.0, 0.0, 1.0], "LSPIRAL": false, "QSPIRAL": [0.0, 0.0, 0.0], "LZEROZ": false, "LASPH": false, "LMETAGGA": false, "NELM": 100, "NELMDL": -5, "NELMIN": 6, "ENINI": 520.0, "LDIAG": true, "LSUBROT": false, "WEIMIN": 0.001, "EBREAK": 0.0, "DEPER": 0.3, "NRMM": 4, "TIME": 0.4, "AMIX": 0.4, "BMIX": 1.0, "AMIN": 0.1, "AMIX_MAG": 1.6, "BMIX_MAG": 1.0, "IMIX": 4, "MIXFIRST": false, "MAXMIX": -45, "WC": 100.0, "INIMIX": 1, "MIXPRE": 1, "MREMOVE": 5, "LDIPOL": false, "LMONO": false, "IDIPOL": 0, "EPSILON": 1.0, "DIPOL": [-100.0, -100.0, -100.0], "EFIELD": 0.0, "NGX": 54, "NGY": 54, "NGZ": 180, "NGXF": 108, "NGYF": 108, "NGZF": 360, "ADDGRID": false, "NSW": 150, "IBRION": 2, "MDALGO": 0, "ISIF": 3, "PSTRESS": 0.0, "EDIFFG": -0.01, "NFREE": 1, "POTIM": 0.5, "SMASS": -3.0, "SCALEE": 1.0, "TEBEG": 0.0001, "TEEND": 0.0001, "NBLOCK": 1, "KBLOCK": 150, "NPACO": 256, "APACO": 10.0, "ISYM": 0, "SYMPREC": 1e-05, "LORBIT": 11, "RWIGS": [-1.0, -1.0, -1.0, -1.0, -1.0], "NEDOS": 301, "EMIN": 10.0, "EMAX": -10.0, "EFERMI": 0.0, "NWRITE": 2, "LWAVE": false, "LDOWNSAMPLE": false, "LCHARG": false, "LPARD": false, "LVTOT": false, "LVHAR": false, "LELF": false, "LOPTICS": false, "STM": [0.0, 0.0, 0.0, 0.0, 0.0, 0.0, 0.0], "NPAR": 2, "NSIM": 4, "NBLK": -1, "LPLANE": true, "LSCALAPACK": true, "LSCAAWARE": false, "LSCALU": false, "LASYNC": false, "LORBITALREAL": false, "IDIOT": 3, "PHON_NSTRUCT": -1, "LMUSIC": false, "POMASS": [22.99, 91.224, 28.085, 30.974, 16.0], "DARWINR": [0.0, 0.0, 0.0, 0.0, 0.0], "DARWINV": [1.0, 1.0, 1.0, 1.0, 1.0], "LCORR": true, "GGA_COMPAT": true, "LBERRY": false, "ICORELEVEL": 0, "LDAU": false, "I_CONSTRAINED_M": 0, "GGA": "--", "VOSKOWN": 0, "LHFCALC": false, "PRECFOCK": "", "LSYMGRAD": false, "LHFONE": false, "LRHFCALC": false, "LTHOMAS": false, "LMODELHF": false, "LFOCKACE": false, "ENCUT4O": -1.0, "EXXOEP": 0, "FOURORBIT": 0, "AEXX": 0.0, "HFALPHA": 0.0, "MCALPHA": 0.0, "ALDAX": 1.0, "AGGAX": 1.0, "ALDAC": 1.0, "AGGAC": 1.0, "NKREDX": 1, "NKREDY": 1, "NKREDZ": 1, "SHIFTRED": false, "ODDONLY": false, "EVENONLY": false, "LMAXFOCK": 0, "NMAXFOCKAE": 0, "LFOCKAEDFT": false, "HFSCREEN": 0.0, "HFSCREENC": 0.0, "NBANDSGWLOW": 0, "LUSE_VDW": false, "Zab_VDW": -0.8491, "PARAM1": 0.1234, "PARAM2": 1.0, "PARAM3": 0.0, "MODEL_GW": 0, "MODEL_EPS0": 8.47012104, "MODEL_ALPHA": 1.0, "LEPSILON": false, "LRPA": false, "LNABLA": false, "LVEL": false, "CSHIFT": 0.1, "OMEGAMAX": -1.0, "DEG_THRESHOLD": 0.002, "RTIME": -0.1, "WPLASMAI": 0.0, "DFIELD": [0.0, 0.0, 0.0], "WPLASMA": [0.0, 0.0, 0.0, 0.0, 0.0, 0.0, 0.0, 0.0, 0.0], "NUCIND": false, "MAGPOS": [0.0, 0.0, 0.0], "LNICSALL": true, "ORBITALMAG": false, "LMAGBLOCH": false, "LCHIMAG": false, "LGAUGE": true, "MAGATOM": 0, "MAGDIPOL": [0.0, 0.0, 0.0], "AVECCONST": [0.0, 0.0, 0.0], "LFINITE_TEMPERATURE": false, "LADDER": false, "LRPAFORCE": false, "LFXC": false, "LHARTREE": true, "IBSE": 0, "KPOINT": [-1, 0, 0, 0], "LTCTC": false, "LTCTE": false, "LTETE": false, "LTRIPLET": false, "LFXCEPS": false, "LFXHEG": false, "NATURALO": 2, "LHOLEGF": false, "L2ORDER": false, "LDMP1": false, "LMP2LT": false, "LSMP2LT": false, "LGWLF": false, "ENCUTGW": -2.0, "ENCUTGWSOFT": -2.0, "ENCUTLF": -1.0, "LESF_SPLINES": false, "LMAXMP2": -1, "SCISSOR": 0.0, "NOMEGA": 0, "NOMEGAR": 0, "NBANDSGW": -1, "NBANDSO": -1, "NBANDSV": -1, "NELMGW": 1, "NELMHF": 1, "DIM": 3, "IESPILON": 4, "ANTIRES": 0, "OMEGAMIN": -30.0, "OMEGATL": -200.0, "OMEGAGRID": 0, "LSELFENERGY": false, "LSPECTRAL": false, "LSPECTRALGW": false, "LSINGLES": false, "LFERMIGW": false, "ODDONLYGW": false, "EVENONLYGW": false, "NKREDLFX": 1, "NKREDLFY": 1, "NKREDLFZ": 1, "MAXMEM": 2800, "TELESCOPE": 0, "NTAUPAR": -1, "NOMEGAPAR": -1, "DAMP_NEWTON": 0.80000001, "LAMBDA": 1.0, "OFIELD_KAPPA": 0.0, "OFIELD_K": [0.0, 0.0, 0.0], "OFIELD_Q6_NEAR": 0.0, "OFIELD_Q6_FAR": 0.0, "OFIELD_A": 0.0, "KPOINTS_OPT_MODE": 1, "LKPOINTS_OPT": false, "@module": "pymatgen.io.vasp.inputs", "@class": "Incar"}, "relaxed_structures": {"@module": "pymatgen.core.structure", "@class": "Structure", "charge": 0, "lattice": {"matrix": [[9.132688, 0.0, 0.0], [4.435089, 8.143568, 0.0], [0.0, 0.0, 30.3700146]], "a": 9.132688, "b": 9.27295606635473, "c": 30.3700146, "alpha": 90.0, "beta": 90.0, "gamma": 61.42673605530538, "volume": 2258.69894469223}, "sites": [{"species": [{"element": "Na", "occu": 1}], "abc": [0.17669202, 0.59920306, 0.00604929], "xyz": [4.2711919909221, 4.87965086491808, 0.183717025619634], "label": "Na", "properties": {}}, {"species": [{"element": "Na", "occu": 1}], "abc": [0.68630642, 0.29881732, 0.15672174], "xyz": [7.59310381519844, 2.43343916499776, 4.759641531937404], "label": "Na", "properties": {}}, {"species": [{"element": "Na", "occu": 1}], "abc": [0.67322803, 0.91869577, 0.03360595], "xyz": [10.22287905471817, 7.48146147430736, 1.0206131921468702], "label": "Na", "properties": {}}, {"species": [{"element": "Na", "occu": 1}], "abc": [0.10989586, 0.99853207, 0.15427158], "xyz": [5.432223201675909, 8.13161381222576, 4.6852301369650675], "label": "Na", "properties": {}}, {"species": [{"element": "Na", "occu": 1}], "abc": [0.22203592, 0.46613894, 0.11235543], "xyz": [4.09515246741862, 3.79603415533792, 3.4122360494892785], "label": "Na", "properties": {}}, {"species": [{"element": "Na", "occu": 1}], "abc": [0.15906139, 0.81690335, 0.27397041], "xyz": [5.075697109364469, 6.652507980152801, 8.320485351667987], "label": "Na", "properties": {}}, {"species": [{"element": "Na", "occu": 1}], "abc": [0.53754022, 0.93053816, 0.23000704], "xyz": [9.0362066742076, 7.57790078255488, 6.985317162902784], "label": "Na", "properties": {}}, {"species": [{"element": "Na", "occu": 1}], "abc": [0.98672186, 0.77638491, 0.44139388], "xyz": [12.454759064266668, 6.32254330875888, 13.405138579950648], "label": "Na", "properties": {}}, {"species": [{"element": "Na", "occu": 1}], "abc": [0.99947754, 0.47581133, 0.34720832], "xyz": [11.23818213158589, 3.87480192102544, 10.544721747641473], "label": "Na", "properties": {}}, {"species": [{"element": "Na", "occu": 1}], "abc": [0.47470971, 0.31273741, 0.38776927], "xyz": [5.72239391897997, 2.54679836447888, 11.776558391331342], "label": "Na", "properties": {}}, {"species": [{"element": "Na", "occu": 1}], "abc": [0.57716935, 0.76817699, 0.34573212], "xyz": [8.67804091511491, 6.25570155410032, 10.499889532088952], "label": "Na", "properties": {}}, {"species": [{"element": "Na", "occu": 1}], "abc": [0.57522545, 0.15845162, 0.50426599], "xyz": [5.9561016014037795, 1.29036154218016, 15.314565478583456], "label": "Na", "properties": {}}, {"species": [{"element": "Na", "occu": 1}], "abc": [0.12319669, 0.07589849, 0.50601037], "xyz": [1.46173349051833, 0.61808451441232, 15.367542324651405], "label": "Na", "properties": {}}, {"species": [{"element": "Na", "occu": 1}], "abc": [0.61345373, 0.37608072, 0.65656851], "xyz": [7.270432982910321, 3.06263891680896, 19.939995234600246], "label": "Na", "properties": {}}, {"species": [{"element": "Na", "occu": 1}], "abc": [0.62684512, 0.75615763, 0.53363407], "xyz": [9.07840729236163, 6.15782107862384, 16.206474496957423], "label": "Na", "properties": {}}, {"species": [{"element": "Na", "occu": 1}], "abc": [0.18966571, 0.67690565, 0.65418995], "xyz": [4.73429455608133, 5.5124271903592, 19.867758332673272], "label": "Na", "properties": {}}, {"species": [{"element": "Na", "occu": 1}], "abc": [0.0784092, 0.20808826, 0.61222863], "xyz": [1.63897671288474, 1.69458089531168, 18.593392431638], "label": "Na", "properties": {}}, {"species": [{"element": "Na", "occu": 1}], "abc": [0.14047625, 0.85731261, 0.77392349], "xyz": [5.08518348883229, 6.98158353679248, 23.504067690582957], "label": "Na", "properties": {}}, {"species": [{"element": "Na", "occu": 1}], "abc": [0.7616169, 0.74353372, 0.7301387], "xyz": [10.25324774592828, 6.05501740911296, 22.17432297902502], "label": "Na", "properties": {}}, {"species": [{"element": "Na", "occu": 1}], "abc": [0.31285457, 0.89945397, 0.94118826], "xyz": [6.84636158553749, 7.32476456756496, 28.583901197548595], "label": "Na", "properties": {}}, {"species": [{"element": "Na", "occu": 1}], "abc": [0.30126135, 0.19893087, 0.84729751], "xyz": [3.63360202930623, 1.6200070671441602, 25.732437749243648], "label": "Na", "properties": {}}, {"species": [{"element": "Na", "occu": 1}], "abc": [0.82582145, 0.36216557, 0.88765431], "xyz": [9.14820618224333, 2.94931994655376, 26.958074354452926], "label": "Na", "properties": {}}, {"species": [{"element": "Na", "occu": 1}], "abc": [0.72315999, 0.90676476, 0.84567139], "xyz": [10.625976975416759, 7.384300483063679, 25.683052461102296], "label": "Na", "properties": {}}, {"species": [{"element": "Na", "occu": 1}], "abc": [0.7238165, 0.51680341, 0.00387306], "xyz": [8.902459382605489, 4.2086237119668795, 0.117624888746676], "label": "Na", "properties": {}}, {"species": [{"element": "Zr", "occu": 1}], "abc": [0.13737171, 0.28544728, 0.209865], "xyz": [2.5205570590643998, 2.3245593350950404, 6.373603114029], "label": "Zr", "properties": {}}, {"species": [{"element": "Zr", "occu": 1}], "abc": [0.22066217, 0.17831799, 0.0502555], "xyz": [2.80609490796407, 1.4521446771883202, 1.5262602687303002], "label": "Zr", "properties": {}}, {"species": [{"element": "Zr", "occu": 1}], "abc": [0.8738769, 0.83723221, 0.16182819], "xyz": [11.69404444312389, 6.81805743392528, 4.914724492991574], "label": "Zr", "properties": {}}, {"species": [{"element": "Zr", "occu": 1}], "abc": [0.46149053, 0.60900487, 0.09664118], "xyz": [6.9156398253280695, 4.9594725711761605, 2.934994047561228], "label": "Zr", "properties": {}}, {"species": [{"element": "Zr", "occu": 1}], "abc": [0.48001365, 0.5924347, 0.46214614], "xyz": [7.011315522379499, 4.8245322650096, 14.035385019133644], "label": "Zr", "properties": {}}, {"species": [{"element": "Zr", "occu": 1}], "abc": [0.55273344, 0.48430146, 0.28945893], "xyz": [7.19586213261666, 3.94394187200928, 8.790871930200378], "label": "Zr", "properties": {}}, {"species": [{"element": "Zr", "occu": 1}], "abc": [0.23116112, 0.15426432, 0.39764167], "xyz": [2.79529837541504, 1.2562619798937602, 12.076383323468383], "label": "Zr", "properties": {}}, {"species": [{"element": "Zr", "occu": 1}], "abc": [0.81234804, 0.9371613, 0.33972417], "xyz": [11.57531496958722, 7.6318367735184, 10.317428002872882], "label": "Zr", "properties": {}}, {"species": [{"element": "Zr", "occu": 1}], "abc": [0.16292112, 0.38931371, 0.70971094], "xyz": [3.2145487103407495, 3.17040267071728, 21.553931609579724], "label": "Zr", "properties": {}}, {"species": [{"element": "Zr", "occu": 1}], "abc": [0.07899106, 0.49648625, 0.55010936], "xyz": [2.92336141179553, 4.04316953794, 16.706829294796655], "label": "Zr", "properties": {}}, {"species": [{"element": "Zr", "occu": 1}], "abc": [0.4262473, 0.83777891, 0.66164768], "xyz": [7.60840762991539, 6.82250952255088, 20.09424970165613], "label": "Zr", "properties": {}}, {"species": [{"element": "Zr", "occu": 1}], "abc": [0.83867104, 0.06545963, 0.59660762], "xyz": [7.94964022791259, 0.53307494815984, 18.118982129871252], "label": "Zr", "properties": {}}, {"species": [{"element": "Zr", "occu": 1}], "abc": [0.81964636, 0.08303109, 0.962182], "xyz": [7.85382475013269, 0.6761693275291201, 29.2214813878572], "label": "Zr", "properties": {}}, {"species": [{"element": "Zr", "occu": 1}], "abc": [0.74732432, 0.19083052, 0.78938026], "xyz": [7.671430189488441, 1.5540413160953601, 23.973490021151797], "label": "Zr", "properties": {}}, {"species": [{"element": "Zr", "occu": 1}], "abc": [0.06888432, 0.52113284, 0.89766434], "xyz": [2.94036952887492, 4.24388071957312, 27.262079111699364], "label": "Zr", "properties": {}}, {"species": [{"element": "Zr", "occu": 1}], "abc": [0.48758857, 0.73823469, 0.83953967], "xyz": [7.72713083521357, 6.01186439797392, 25.49683203517918], "label": "Zr", "properties": {}}, {"species": [{"element": "Si", "occu": 1}], "abc": [0.28036541, 0.58290837, 0.19536682], "xyz": [5.14574031531701, 4.74695394886416, 5.933293175755572], "label": "Si", "properties": {}}, {"species": [{"element": "Si", "occu": 1}], "abc": [0.05163564, 0.90050934, 0.0642077], "xyz": [4.46541125803158, 7.33335904492512, 1.9499887864324204], "label": "Si", "properties": {}}, {"species": [{"element": "Si", "occu": 1}], "abc": [0.89827401, 0.47148469, 0.11733038], "xyz": [10.29473283412629, 3.8395676339739198, 3.563325353623548], "label": "Si", "properties": {}}, {"species": [{"element": "Si", "occu": 1}], "abc": [0.44604241, 0.98132845, 0.13265839], "xyz": [8.42584517928013, 7.9915149629096005, 4.028837241112494], "label": "Si", "properties": {}}, {"species": [{"element": "Si", "occu": 1}], "abc": [0.63060801, 0.8812588, 0.43486302], "xyz": [9.66760741566408, 7.1765909633984, 13.206796266400092], "label": "Si", "properties": {}}, {"species": [{"element": "Si", "occu": 1}], "abc": [0.40893238, 0.18760892, 0.30197652], "xyz": [4.56671409703132, 1.52780599742656, 9.171031321257193], "label": "Si", "properties": {}}, {"species": [{"element": "Si", "occu": 1}], "abc": [0.24863917, 0.77002941, 0.37078888], "xyz": [5.68589293015645, 6.27078686233488, 11.260863699117648], "label": "Si", "properties": {}}, {"species": [{"element": "Si", "occu": 1}], "abc": [0.78519867, 0.30983911, 0.38421517], "xyz": [8.54513849965575, 2.52319586134448, 11.668620322441482], "label": "Si", "properties": {}}, {"species": [{"element": "Si", "occu": 1}], "abc": [0.01960109, 0.09193945, 0.69532694], "xyz": [0.58677028279097, 0.7487151629576001, 21.117089319573324], "label": "Si", "properties": {}}, {"species": [{"element": "Si", "occu": 1}], "abc": [0.24824679, 0.77405376, 0.56416954], "xyz": [5.70015779645616, 6.303559430215681, 17.133837166675285], "label": "Si", "properties": {}}, {"species": [{"element": "Si", "occu": 1}], "abc": [0.40191563, 0.20310015, 0.61690741], "xyz": [4.57133729227679, 1.6539598823352002, 18.735487048548187], "label": "Si", "properties": {}}, {"species": [{"element": "Si", "occu": 1}], "abc": [0.8539876, 0.69316772, 0.63268795], "xyz": [10.87346283679588, 5.644858463224961, 19.21474227874407], "label": "Si", "properties": {}}, {"species": [{"element": "Si", "occu": 1}], "abc": [0.66888013, 0.79454704, 0.93476611], "xyz": [9.632560373776, 6.47044784943872, 28.388860408285208], "label": "Si", "properties": {}}, {"species": [{"element": "Si", "occu": 1}], "abc": [0.89166392, 0.48700635, 0.80191788], "xyz": [10.30320488803211, 3.9659693276567998, 24.354257723601048], "label": "Si", "properties": {}}, {"species": [{"element": "Si", "occu": 1}], "abc": [0.05132014, 0.90538745, 0.87071692], "xyz": [4.48416474696937, 7.3730842654216, 26.443685572867032], "label": "Si", "properties": {}}, {"species": [{"element": "Si", "occu": 1}], "abc": [0.51492245, 0.36578468, 0.88422177], "xyz": [6.32491369068212, 2.9787924149382397, 26.853828064537844], "label": "Si", "properties": {}}, {"species": [{"element": "P", "occu": 1}], "abc": [0.50697631, 0.33230699, 0.04114318], "xyz": [6.10386753859339, 2.70616456994032, 1.249518977290428], "label": "P", "properties": {}}, {"species": [{"element": "P", "occu": 1}], "abc": [0.8691465, 0.12761796, 0.24007425], "xyz": [8.50364082139044, 1.03926553528128, 7.29105847758405], "label": "P", "properties": {}}, {"species": [{"element": "P", "occu": 1}], "abc": [0.82997636, 0.63734685, 0.26147697], "xyz": [10.40660514687533, 5.190277412560801, 7.9410593964637615], "label": "P", "properties": {}}, {"species": [{"element": "P", "occu": 1}], "abc": [0.22167782, 0.39898191, 0.45895416], "xyz": [3.79403464682015, 3.24913631485488, 13.938444539930737], "label": "P", "properties": {}}, {"species": [{"element": "P", "occu": 1}], "abc": [0.79255395, 0.34238137, 0.54112987], "xyz": [8.75663979640953, 2.7882059685281604, 16.434122052396102], "label": "P", "properties": {}}, {"species": [{"element": "P", "occu": 1}], "abc": [0.43112089, 0.54763793, 0.73988995], "xyz": [6.366115537978089, 4.45972672233424, 22.470468583893272], "label": "P", "properties": {}}, {"species": [{"element": "P", "occu": 1}], "abc": [0.46990058, 0.03806678, 0.76133966], "xyz": [4.46028494540246, 0.30999941147104004, 23.121896589759036], "label": "P", "properties": {}}, {"species": [{"element": "P", "occu": 1}], "abc": [0.07848174, 0.27619552, 0.95904452], "xyz": [1.9417009577184001, 2.2492169984153603, 29.126196074449993], "label": "P", "properties": {}}, {"species": [{"element": "O", "occu": 1}], "abc": [0.11679989, 0.76158759, 0.18640676], "xyz": [4.44440569674983, 6.20204032712112, 5.6611760227386965], "label": "O", "properties": {}}, {"species": [{"element": "O", "occu": 1}], "abc": [0.21483508, 0.71547506, 0.07250702], "xyz": [5.13521732547538, 5.82651980341408, 2.202039256002492], "label": "O", "properties": {}}, {"species": [{"element": "O", "occu": 1}], "abc": [0.94316363, 0.3536579, 0.16077069], "xyz": [10.18212342779054, 2.8800371573872003, 4.882608202552074], "label": "O", "properties": {}}, {"species": [{"element": "O", "occu": 1}], "abc": [0.43464384, 0.05506491, 0.08240422], "xyz": [4.21368435846891, 0.44842483899888, 2.5026173645016123], "label": "O", "properties": {}}, {"species": [{"element": "O", "occu": 1}], "abc": [0.65008096, 0.18537399, 0.01762734], "xyz": [6.75913672635559, 1.50960569299632, 0.535342573159164], "label": "O", "properties": {}}, {"species": [{"element": "O", "occu": 1}], "abc": [0.49121219, 0.50082342, 0.02609565], "xyz": [6.707284114051101, 4.078489576762561, 0.7925252714964901], "label": "O", "properties": {}}, {"species": [{"element": "O", "occu": 1}], "abc": [0.33825164, 0.33340265, 0.03316204], "xyz": [4.56781711919417, 2.7150871516552004, 1.0071316389657838], "label": "O", "properties": {}}, {"species": [{"element": "O", "occu": 1}], "abc": [0.82793151, 0.06246991, 0.19709408], "xyz": [7.83829977687087, 0.50872796003888, 5.985750087173568], "label": "O", "properties": {}}, {"species": [{"element": "O", "occu": 1}], "abc": [0.53038749, 0.33586303, 0.09166918], "xyz": [6.333445895132789, 2.73512342349104, 2.783994334970028], "label": "O", "properties": {}}, {"species": [{"element": "O", "occu": 1}], "abc": [0.21804677, 0.44353605, 0.19113225], "xyz": [3.95847497627621, 3.6119659836264, 5.80468922303085], "label": "O", "properties": {}}, {"species": [{"element": "O", "occu": 1}], "abc": [0.12318874, 0.03391782, 0.0662418], "xyz": [1.2754728779191, 0.27621207358176003, 2.01176443313028], "label": "O", "properties": {}}, {"species": [{"element": "O", "occu": 1}], "abc": [0.91786604, 0.63493145, 0.12777891], "xyz": [11.198561658764572, 5.1706074384136, 3.880647362272086], "label": "O", "properties": {}}, {"species": [{"element": "O", "occu": 1}], "abc": [0.42770547, 0.81644434, 0.12492451], "xyz": [7.527103924849619, 6.64877000100512, 3.793959192597846], "label": "O", "properties": {}}, {"species": [{"element": "O", "occu": 1}], "abc": [0.28973895, 0.10625826, 0.16377989], "xyz": [3.1173602718827396, 0.86532136587168, 4.973997650486394], "label": "O", "properties": {}}, {"species": [{"element": "O", "occu": 1}], "abc": [0.04577798, 0.37567476, 0.07940365], "xyz": [2.0842270042638797, 3.05933295394368, 2.4114900097932903], "label": "O", "properties": {}}, {"species": [{"element": "O", "occu": 1}], "abc": [0.9246457, 0.93741913, 0.10636854], "xyz": [12.602037960494169, 7.63393642965584, 3.230414112780684], "label": "O", "properties": {}}, {"species": [{"element": "O", "occu": 1}], "abc": [0.41650986, 0.53929487, 0.15517717], "xyz": [6.19567534599711, 4.39178444589616, 4.712732918486682], "label": "O", "properties": {}}, {"species": [{"element": "O", "occu": 1}], "abc": [0.96798441, 0.90672282, 0.01567418], "xyz": [12.86169601042506, 7.383958941821761, 0.476025075443028], "label": "O", "properties": {}}, {"species": [{"element": "O", "occu": 1}], "abc": [0.61984798, 0.94641229, 0.15535771], "xyz": [9.85830094561405, 7.70717283965072, 4.7182159209225665], "label": "O", "properties": {}}, {"species": [{"element": "O", "occu": 1}], "abc": [0.71710156, 0.5190137, 0.09533819], "xyz": [8.85093676351258, 4.2266233588816, 2.895422222237574], "label": "O", "properties": {}}, {"species": [{"element": "O", "occu": 1}], "abc": [0.47713828, 0.05443193, 0.41591475], "xyz": [4.59896549808841, 0.44327012332624005, 12.63133702985535], "label": "O", "properties": {}}, {"species": [{"element": "O", "occu": 1}], "abc": [0.57357694, 0.00991127, 0.31268041], "xyz": [5.282256601567751, 0.08071310121136, 9.496108616833986], "label": "O", "properties": {}}, {"species": [{"element": "O", "occu": 1}], "abc": [0.28571207, 0.67627738, 0.41858428], "xyz": [5.60866956213098, 5.50731083089184, 12.712410694930488], "label": "O", "properties": {}}, {"species": [{"element": "O", "occu": 1}], "abc": [0.72823197, 0.42793096, 0.34017544], "xyz": [8.5486272670908, 3.48488487206528, 10.331133079361424], "label": "O", "properties": {}}, {"species": [{"element": "O", "occu": 1}], "abc": [0.96921613, 0.4582521, 0.25586067], "xyz": [10.88393736779434, 3.7318071374928, 7.770492283465782], "label": "O", "properties": {}}, {"species": [{"element": "O", "occu": 1}], "abc": [0.72802537, 0.30535042, 0.24628063], "xyz": [8.00308484918194, 2.48664190909856, 7.479546328797198], "label": "O", "properties": {}}, {"species": [{"element": "O", "occu": 1}], "abc": [0.82303496, 0.74462561, 0.22193748], "xyz": [10.81900235480177, 6.063909289576481, 6.740244507887208], "label": "O", "properties": {}}, {"species": [{"element": "O", "occu": 1}], "abc": [0.88181961, 0.01766866, 0.27975751], "xyz": [8.13174545002242, 0.14388593417888, 8.496239663159646], "label": "O", "properties": {}}, {"species": [{"element": "O", "occu": 1}], "abc": [0.04256133, 0.11872369, 0.23342509], "xyz": [0.91524947931345, 0.9668344427259201, 7.089123391306314], "label": "O", "properties": {}}, {"species": [{"element": "O", "occu": 1}], "abc": [0.65407736, 0.64918705, 0.26673685], "xyz": [8.852686801141129, 5.2866988863944, 8.100802028858011], "label": "O", "properties": {}}, {"species": [{"element": "O", "occu": 1}], "abc": [0.19649356, 0.41740904, 0.408754], "xyz": [3.64576061929384, 3.3991989010547203, 12.4138649478084], "label": "O", "properties": {}}, {"species": [{"element": "O", "occu": 1}], "abc": [0.86758309, 0.70561848, 0.30433262], "xyz": [11.05284643389064, 5.74625207393664, 9.242586112656252], "label": "O", "properties": {}}, {"species": [{"element": "O", "occu": 1}], "abc": [0.56058202, 0.74626104, 0.44240758], "xyz": [8.42935481670232, 6.077227524990721, 13.435924663750669], "label": "O", "properties": {}}, {"species": [{"element": "O", "occu": 1}], "abc": [0.46670647, 0.32940918, 0.30789663], "xyz": [5.72324360880838, 2.6825660571542405, 9.350825148390799], "label": "O", "properties": {}}, {"species": [{"element": "O", "occu": 1}], "abc": [0.25939136, 0.93855155, 0.3797145], "xyz": [6.531500016113631, 7.643158368930401, 11.531934908831701], "label": "O", "properties": {}}, {"species": [{"element": "O", "occu": 1}], "abc": [0.7707941, 0.14125509, 0.37312399], "xyz": [7.66590092339381, 1.1503204307611201, 11.331781023910255], "label": "O", "properties": {}}, {"species": [{"element": "O", "occu": 1}], "abc": [0.64534805, 0.40683765, 0.42311569], "xyz": [7.698123578359249, 3.3131100677352, 12.850029682789074], "label": "O", "properties": {}}, {"species": [{"element": "O", "occu": 1}], "abc": [0.38367389, 0.67189546, 0.3314937], "xyz": [6.48389009491226, 5.47162636740128, 10.06746850880802], "label": "O", "properties": {}}, {"species": [{"element": "O", "occu": 1}], "abc": [0.26081678, 0.22810125, 0.33836749], "xyz": [3.39360762166589, 1.85755804026, 10.276225611465355], "label": "O", "properties": {}}, {"species": [{"element": "O", "occu": 1}], "abc": [0.76638627, 0.81854468, 0.39290443], "xyz": [10.62948519767028, 6.665874262618241, 11.932513275504679], "label": "O", "properties": {}}, {"species": [{"element": "O", "occu": 1}], "abc": [0.33341289, 0.17931282, 0.25395411], "xyz": [3.8402242150893002, 1.4602461429417601, 7.712590028430006], "label": "O", "properties": {}}, {"species": [{"element": "O", "occu": 1}], "abc": [0.3678706, 0.58574117, 0.24164867], "xyz": [5.95746163408693, 4.7700230482945605, 7.338873635970582], "label": "O", "properties": {}}, {"species": [{"element": "O", "occu": 1}], "abc": [0.97433734, 0.26643568, 0.39833551], "xyz": [10.07998488654544, 2.16973707770624, 12.097455254398447], "label": "O", "properties": {}}, {"species": [{"element": "O", "occu": 1}], "abc": [0.06263774, 0.81206987, 0.354185], "xyz": [4.17365308411355, 6.61314620709616, 10.756603621101002], "label": "O", "properties": {}}, {"species": [{"element": "O", "occu": 1}], "abc": [0.07115622, 0.54325779, 0.48329335], "xyz": [3.05924420511267, 4.424056754394719, 14.67762609558291], "label": "O", "properties": {}}, {"species": [{"element": "O", "occu": 1}], "abc": [0.2260471, 0.23358249, 0.47045831], "xyz": [3.1003767695964095, 1.90219489092432, 14.287825743391327], "label": "O", "properties": {}}, {"species": [{"element": "O", "occu": 1}], "abc": [0.38145217, 0.4030555, 0.4745274], "xyz": [5.27127066997246, 3.2823098720240003, 14.41140406610004], "label": "O", "properties": {}}, {"species": [{"element": "O", "occu": 1}], "abc": [0.71272931, 0.89578625, 0.48052005], "xyz": [10.482026160411529, 7.29489624034, 14.59340093409273], "label": "O", "properties": {}}, {"species": [{"element": "O", "occu": 1}], "abc": [0.18339537, 0.91350855, 0.68625731], "xyz": [5.726384416365509, 7.4392189955064, 20.841644524056726], "label": "O", "properties": {}}, {"species": [{"element": "O", "occu": 1}], "abc": [0.08513391, 0.95910347, 0.57252093], "xyz": [5.031210687908909, 7.81052432698096, 17.38746900290558], "label": "O", "properties": {}}, {"species": [{"element": "O", "occu": 1}], "abc": [0.35667451, 0.3207985, 0.66038993], "xyz": [4.68016691594938, 2.612444399048, 20.05605181579298], "label": "O", "properties": {}}, {"species": [{"element": "O", "occu": 1}], "abc": [0.86547767, 0.61924548, 0.58246234], "xyz": [10.65054634772468, 5.04286767507264, 17.689389769750164], "label": "O", "properties": {}}, {"species": [{"element": "O", "occu": 1}], "abc": [0.6489711, 0.48937016, 0.51778309], "xyz": [8.09725079086104, 3.98521917513088, 15.725080002933115], "label": "O", "properties": {}}, {"species": [{"element": "O", "occu": 1}], "abc": [0.80883399, 0.17374836, 0.52603065], "xyz": [8.15741791466916, 1.41493158454848, 15.975558520547493], "label": "O", "properties": {}}, {"species": [{"element": "O", "occu": 1}], "abc": [0.96099654, 0.34179016, 0.53302393], "xyz": [10.29235134782376, 2.7833914096908803, 16.18794453624938], "label": "O", "properties": {}}, {"species": [{"element": "O", "occu": 1}], "abc": [0.47246407, 0.61270837, 0.6969279], "xyz": [7.03228309451509, 4.98963227526416, 21.16571049814734], "label": "O", "properties": {}}, {"species": [{"element": "O", "occu": 1}], "abc": [0.76969168, 0.33845134, 0.59166871], "xyz": [8.530415784705099, 2.75620150198112, 17.968987361063167], "label": "O", "properties": {}}, {"species": [{"element": "O", "occu": 1}], "abc": [0.08175465, 0.23142216, 0.69106424], "xyz": [1.77301758717144, 1.88460209666688, 20.987631058337904], "label": "O", "properties": {}}, {"species": [{"element": "O", "occu": 1}], "abc": [0.17673387, 0.64055823, 0.56633064], "xyz": [4.45498805347503, 5.2164295039646404, 17.199469805227345], "label": "O", "properties": {}}, {"species": [{"element": "O", "occu": 1}], "abc": [0.38289664, 0.03940213, 0.62736922], "xyz": [3.67162750270789, 0.32087392499984, 19.05321237099061], "label": "O", "properties": {}}, {"species": [{"element": "O", "occu": 1}], "abc": [0.87186264, 0.8582842, 0.62490632], "xyz": [11.769016284270121, 6.9894957460256, 18.97841406203227], "label": "O", "properties": {}}, {"species": [{"element": "O", "occu": 1}], "abc": [0.01052608, 0.56851169, 0.66377584], "xyz": [2.61753134719345, 4.62971360630992, 20.158881951927263], "label": "O", "properties": {}}, {"species": [{"element": "O", "occu": 1}], "abc": [0.25446646, 0.29857704, 0.57894043], "xyz": [3.64817853140104, 2.43148242847872, 17.58242931163028], "label": "O", "properties": {}}, {"species": [{"element": "O", "occu": 1}], "abc": [0.37564605, 0.73721702, 0.6062302], "xyz": [6.7002812690971805, 6.00357693312736, 18.411220024960922], "label": "O", "properties": {}}, {"species": [{"element": "O", "occu": 1}], "abc": [0.88332794, 0.13524722, 0.65518662], "xyz": [8.666991935405301, 1.10139493288096, 19.898027215124653], "label": "O", "properties": {}}, {"species": [{"element": "O", "occu": 1}], "abc": [0.33121132, 0.76818863, 0.51557577], "xyz": [6.431834590466229, 6.255796345231841, 15.658043662306243], "label": "O", "properties": {}}, {"species": [{"element": "O", "occu": 1}], "abc": [0.68040929, 0.72779065, 0.65543203], "xyz": [9.44178206398937, 5.9268126480392, 19.90548032040764], "label": "O", "properties": {}}, {"species": [{"element": "O", "occu": 1}], "abc": [0.58304814, 0.15574527, 0.59492692], "xyz": [6.015540885379351, 1.26832219692336, 18.067939246333033], "label": "O", "properties": {}}, {"species": [{"element": "O", "occu": 1}], "abc": [0.82285848, 0.62152422, 0.9158689], "xyz": [10.271424997349818, 5.06142474921696, 27.81495186468594], "label": "O", "properties": {}}, {"species": [{"element": "O", "occu": 1}], "abc": [0.72663272, 0.66477321, 0.81243098], "xyz": [9.58443827351705, 5.41362584021328, 24.67354072409231], "label": "O", "properties": {}}, {"species": [{"element": "O", "occu": 1}], "abc": [0.01365171, 0.99928586, 0.91849663], "xyz": [4.55659853363802, 8.13775235234848, 27.8947560631508], "label": "O", "properties": {}}, {"species": [{"element": "O", "occu": 1}], "abc": [0.57212432, 0.2474046, 0.8402208], "xyz": [6.322294331781561, 2.0147561836128, 25.517517963223682], "label": "O", "properties": {}}, {"species": [{"element": "O", "occu": 1}], "abc": [0.33099776, 0.21731714, 0.75582916], "xyz": [3.9867201279043396, 1.76973690715552, 22.954542624305738], "label": "O", "properties": {}}, {"species": [{"element": "O", "occu": 1}], "abc": [0.57232506, 0.3699491, 0.74612102], "xyz": [6.86762339153118, 3.0127056523888, 22.659706270766893], "label": "O", "properties": {}}, {"species": [{"element": "O", "occu": 1}], "abc": [0.47678352, 0.93121229, 0.72169346], "xyz": [8.48432451574557, 7.58339060605072, 21.91784091692452], "label": "O", "properties": {}}, {"species": [{"element": "O", "occu": 1}], "abc": [0.41813684, 0.65772043, 0.77957663], "xyz": [6.73576194519419, 5.35619104669424, 23.6757536349188], "label": "O", "properties": {}}, {"species": [{"element": "O", "occu": 1}], "abc": [0.25784002, 0.55628366, 0.73319629], "xyz": [4.8219399979195, 4.53013381249888, 22.267182031965834], "label": "O", "properties": {}}, {"species": [{"element": "O", "occu": 1}], "abc": [0.64588982, 0.02585624, 0.76676493], "xyz": [6.013384934041519, 0.21056204866432, 23.28666211886798], "label": "O", "properties": {}}, {"species": [{"element": "O", "occu": 1}], "abc": [0.1038861, 0.25776786, 0.90884435], "xyz": [2.09198273927634, 2.0991500961244802, 27.60161617862751], "label": "O", "properties": {}}, {"species": [{"element": "O", "occu": 1}], "abc": [0.43203463, 0.96939256, 0.80407544], "xyz": [8.244979760523279, 7.8943142310540795, 24.419782852301424], "label": "O", "properties": {}}, {"species": [{"element": "O", "occu": 1}], "abc": [0.73854111, 0.92982919, 0.94230951], "xyz": [10.86874074525159, 7.57212723714992, 28.617953576418845], "label": "O", "properties": {}}, {"species": [{"element": "O", "occu": 1}], "abc": [0.83414384, 0.3450514, 0.80783741], "xyz": [9.14830910641652, 2.8099495393952, 24.534033936126185], "label": "O", "properties": {}}, {"species": [{"element": "O", "occu": 1}], "abc": [0.04108701, 0.73657546, 0.87965785], "xyz": [3.6420125634988194, 5.99835234564128, 26.71522174750461], "label": "O", "properties": {}}, {"species": [{"element": "O", "occu": 1}], "abc": [0.52937422, 0.53421417, 0.87298257], "xyz": [7.20389697551449, 4.35040941995856, 26.512493396445524], "label": "O", "properties": {}}, {"species": [{"element": "O", "occu": 1}], "abc": [0.65460426, 0.26931467, 0.92321435], "xyz": [7.17273100050651, 2.19318232854256, 28.03803328842951], "label": "O", "properties": {}}, {"species": [{"element": "O", "occu": 1}], "abc": [0.9164046, 0.00315881, 0.83139069], "xyz": [8.38324689704889, 0.02572398403408, 25.249347393604076], "label": "O", "properties": {}}, {"species": [{"element": "O", "occu": 1}], "abc": [0.03931675, 0.44682878, 0.83844331], "xyz": [2.3407930179854195, 3.63878055428704, 25.46353556597233], "label": "O", "properties": {}}, {"species": [{"element": "O", "occu": 1}], "abc": [0.5334793, 0.85702535, 0.89271904], "xyz": [8.673083703864549, 6.979244215448801, 27.111890278497984], "label": "O", "properties": {}}, {"species": [{"element": "O", "occu": 1}], "abc": [0.96744931, 0.49515858, 0.75392834], "xyz": [11.0314850754589, 4.03235756701344, 22.896814693153765], "label": "O", "properties": {}}, {"species": [{"element": "O", "occu": 1}], "abc": [0.93217677, 0.08877163, 0.7415964], "xyz": [8.906989680982829, 0.72291780537584, 22.52229349530744], "label": "O", "properties": {}}, {"species": [{"element": "O", "occu": 1}], "abc": [0.32575532, 0.40918991, 0.89830081], "xyz": [4.78981537065215, 3.33226585699888, 27.281408714891825], "label": "O", "properties": {}}, {"species": [{"element": "O", "occu": 1}], "abc": [0.23745535, 0.86326557, 0.85417258], "xyz": [5.99726525906653, 7.030061871353761, 25.941233725519666], "label": "O", "properties": {}}, {"species": [{"element": "O", "occu": 1}], "abc": [0.22899598, 0.13199378, 0.98338096], "xyz": [2.6767530003406597, 1.07490032300704, 29.865294112562015], "label": "O", "properties": {}}, {"species": [{"element": "O", "occu": 1}], "abc": [0.07379088, 0.44172864, 0.97053363], "xyz": [2.6330149165343997, 3.5972472173875203, 29.475120512891], "label": "O", "properties": {}}, {"species": [{"element": "O", "occu": 1}], "abc": [0.91884502, 0.27182755, 0.97463801], "xyz": [9.59710426491571, 2.2136461376984, 29.59977059341495], "label": "O", "properties": {}}, {"species": [{"element": "O", "occu": 1}], "abc": [0.58672426, 0.7796754, 0.98036708], "xyz": [8.81629939872148, 6.3493396378272005, 29.773762532959367], "label": "O", "properties": {}}]}, "formula": "(Na3Zr2Si2PO12)8.0", "bandgap": 4.291}