{"miller": "100_0.17", "final_energy": -1207.6591694, "sigma": 0.0578931764316192, "incar_parameters": {"SYSTEM": "unknown system", "LCOMPAT": false, "PREC": "normal", "ENMAX": 520.0, "ENAUG": 605.392, "EDIFF": 1e-05, "IALGO": 38, "IWAVPR": 11, "NBANDS": 624, "NBANDSLOW": -1, "NBANDSHIGH": -1, "NELECT": 1040.0, "TURBO": 0, "IRESTART": 0, "NREBOOT": 0, "NMIN": 0, "EREF": 0.0, "ISMEAR": 0, "SIGMA": 0.05, "KSPACING": 0.5, "KGAMMA": true, "KBLOWUP": true, "LREAL": true, "ROPT": [-0.0005, -0.0005, -0.0005, -0.0005, -0.0005], "LMAXPAW": -100, "LMAXMIX": 4, "NLSPLINE": false, "ISTART": 0, "ICHARG": 2, "INIWAV": 1, "ISPIN": 1, "LNONCOLLINEAR": false, "MAGMOM": [0.6, 0.6, 0.6, 0.6, 0.6, 0.6, 0.6, 0.6, 0.6, 0.6, 0.6, 0.6, 0.6, 0.6, 0.6, 0.6, 0.6, 0.6, 0.6, 0.6, 0.6, 0.6, 0.6, 0.6, 0.6, 0.6, 0.6, 0.6, 0.6, 0.6, 0.6, 0.6, 0.6, 0.6, 0.6, 0.6, 0.6, 0.6, 0.6, 0.6, 0.6, 0.6, 0.6, 0.6, 0.6, 0.6, 0.6, 0.6, 0.6, 0.6, 0.6, 0.6, 0.6, 0.6, 0.6, 0.6, 0.6, 0.6, 0.6, 0.6, 0.6, 0.6, 0.6, 0.6, 0.6, 0.6, 0.6, 0.6, 0.6, 0.6, 0.6, 0.6, 0.6, 0.6, 0.6, 0.6, 0.6, 0.6, 0.6, 0.6, 0.6, 0.6, 0.6, 0.6, 0.6, 0.6, 0.6, 0.6, 0.6, 0.6, 0.6, 0.6, 0.6, 0.6, 0.6, 0.6, 0.6, 0.6, 0.6, 0.6, 0.6, 0.6, 0.6, 0.6, 0.6, 0.6, 0.6, 0.6, 0.6, 0.6, 0.6, 0.6, 0.6, 0.6, 0.6, 0.6, 0.6, 0.6, 0.6, 0.6, 0.6, 0.6, 0.6, 0.6, 0.6, 0.6, 0.6, 0.6, 0.6, 0.6, 0.6, 0.6, 0.6, 0.6, 0.6, 0.6, 0.6, 0.6, 0.6, 0.6, 0.6, 0.6, 0.6, 0.6, 0.6, 0.6, 0.6, 0.6, 0.6, 0.6, 0.6, 0.6, 0.6, 0.6, 0.6, 0.6, 0.6, 0.6, 0.6, 0.6], "NUPDOWN": -1.0, "LSORBIT": false, "SAXIS": [0.0, 0.0, 1.0], "LSPIRAL": false, "QSPIRAL": [0.0, 0.0, 0.0], "LZEROZ": false, "LASPH": false, "LMETAGGA": false, "NELM": 100, "NELMDL": -5, "NELMIN": 6, "ENINI": 520.0, "LDIAG": true, "LSUBROT": false, "WEIMIN": 0.001, "EBREAK": 0.0, "DEPER": 0.3, "NRMM": 4, "TIME": 0.4, "AMIX": 0.4, "BMIX": 1.0, "AMIN": 0.1, "AMIX_MAG": 1.6, "BMIX_MAG": 1.0, "IMIX": 4, "MIXFIRST": false, "MAXMIX": -45, "WC": 100.0, "INIMIX": 1, "MIXPRE": 1, "MREMOVE": 5, "LDIPOL": false, "LMONO": false, "IDIPOL": 0, "EPSILON": 1.0, "DIPOL": [-100.0, -100.0, -100.0], "EFIELD": 0.0, "NGX": 54, "NGY": 54, "NGZ": 180, "NGXF": 108, "NGYF": 108, "NGZF": 360, "ADDGRID": false, "NSW": 150, "IBRION": 2, "MDALGO": 0, "ISIF": 3, "PSTRESS": 0.0, "EDIFFG": -0.01, "NFREE": 1, "POTIM": 0.5, "SMASS": -3.0, "SCALEE": 1.0, "TEBEG": 0.0001, "TEEND": 0.0001, "NBLOCK": 1, "KBLOCK": 150, "NPACO": 256, "APACO": 10.0, "ISYM": 0, "SYMPREC": 1e-05, "LORBIT": 11, "RWIGS": [-1.0, -1.0, -1.0, -1.0, -1.0], "NEDOS": 301, "EMIN": 10.0, "EMAX": -10.0, "EFERMI": 0.0, "NWRITE": 2, "LWAVE": false, "LDOWNSAMPLE": false, "LCHARG": false, "LPARD": false, "LVTOT": false, "LVHAR": false, "LELF": false, "LOPTICS": false, "STM": [0.0, 0.0, 0.0, 0.0, 0.0, 0.0, 0.0], "NPAR": 2, "NSIM": 4, "NBLK": -1, "LPLANE": true, "LSCALAPACK": true, "LSCAAWARE": false, "LSCALU": false, "LASYNC": false, "LORBITALREAL": false, "IDIOT": 3, "PHON_NSTRUCT": -1, "LMUSIC": false, "POMASS": [22.99, 91.224, 28.085, 30.974, 16.0], "DARWINR": [0.0, 0.0, 0.0, 0.0, 0.0], "DARWINV": [1.0, 1.0, 1.0, 1.0, 1.0], "LCORR": true, "GGA_COMPAT": true, "LBERRY": false, "ICORELEVEL": 0, "LDAU": false, "I_CONSTRAINED_M": 0, "GGA": "--", "VOSKOWN": 0, "LHFCALC": false, "PRECFOCK": "", "LSYMGRAD": false, "LHFONE": false, "LRHFCALC": false, "LTHOMAS": false, "LMODELHF": false, "LFOCKACE": false, "ENCUT4O": -1.0, "EXXOEP": 0, "FOURORBIT": 0, "AEXX": 0.0, "HFALPHA": 0.0, "MCALPHA": 0.0, "ALDAX": 1.0, "AGGAX": 1.0, "ALDAC": 1.0, "AGGAC": 1.0, "NKREDX": 1, "NKREDY": 1, "NKREDZ": 1, "SHIFTRED": false, "ODDONLY": false, "EVENONLY": false, "LMAXFOCK": 0, "NMAXFOCKAE": 0, "LFOCKAEDFT": false, "HFSCREEN": 0.0, "HFSCREENC": 0.0, "NBANDSGWLOW": 0, "LUSE_VDW": false, "Zab_VDW": -0.8491, "PARAM1": 0.1234, "PARAM2": 1.0, "PARAM3": 0.0, "MODEL_GW": 0, "MODEL_EPS0": 8.4724956, "MODEL_ALPHA": 1.0, "LEPSILON": false, "LRPA": false, "LNABLA": false, "LVEL": false, "CSHIFT": 0.1, "OMEGAMAX": -1.0, "DEG_THRESHOLD": 0.002, "RTIME": -0.1, "WPLASMAI": 0.0, "DFIELD": [0.0, 0.0, 0.0], "WPLASMA": [0.0, 0.0, 0.0, 0.0, 0.0, 0.0, 0.0, 0.0, 0.0], "NUCIND": false, "MAGPOS": [0.0, 0.0, 0.0], "LNICSALL": true, "ORBITALMAG": false, "LMAGBLOCH": false, "LCHIMAG": false, "LGAUGE": true, "MAGATOM": 0, "MAGDIPOL": [0.0, 0.0, 0.0], "AVECCONST": [0.0, 0.0, 0.0], "LFINITE_TEMPERATURE": false, "LADDER": false, "LRPAFORCE": false, "LFXC": false, "LHARTREE": true, "IBSE": 0, "KPOINT": [-1, 0, 0, 0], "LTCTC": false, "LTCTE": false, "LTETE": false, "LTRIPLET": false, "LFXCEPS": false, "LFXHEG": false, "NATURALO": 2, "LHOLEGF": false, "L2ORDER": false, "LDMP1": false, "LMP2LT": false, "LSMP2LT": false, "LGWLF": false, "ENCUTGW": -2.0, "ENCUTGWSOFT": -2.0, "ENCUTLF": -1.0, "LESF_SPLINES": false, "LMAXMP2": -1, "SCISSOR": 0.0, "NOMEGA": 0, "NOMEGAR": 0, "NBANDSGW": -1, "NBANDSO": -1, "NBANDSV": -1, "NELMGW": 1, "NELMHF": 1, "DIM": 3, "IESPILON": 4, "ANTIRES": 0, "OMEGAMIN": -30.0, "OMEGATL": -200.0, "OMEGAGRID": 0, "LSELFENERGY": false, "LSPECTRAL": false, "LSPECTRALGW": false, "LSINGLES": false, "LFERMIGW": false, "ODDONLYGW": false, "EVENONLYGW": false, "NKREDLFX": 1, "NKREDLFY": 1, "NKREDLFZ": 1, "MAXMEM": 2800, "TELESCOPE": 0, "NTAUPAR": -1, "NOMEGAPAR": -1, "DAMP_NEWTON": 0.80000001, "LAMBDA": 1.0, "OFIELD_KAPPA": 0.0, "OFIELD_K": [0.0, 0.0, 0.0], "OFIELD_Q6_NEAR": 0.0, "OFIELD_Q6_FAR": 0.0, "OFIELD_A": 0.0, "KPOINTS_OPT_MODE": 1, "LKPOINTS_OPT": false, "@module": "pymatgen.io.vasp.inputs", "@class": "Incar"}, "relaxed_structures": {"@module": "pymatgen.core.structure", "@class": "Structure", "charge": 0, "lattice": {"matrix": [[9.132688, 0.0, 0.0], [4.435089, 8.143568, 0.0], [0.0, 0.0, 30.3785287]], "a": 9.132688, "b": 9.27295606635473, "c": 30.3785287, "alpha": 90.0, "beta": 90.0, "gamma": 61.42673605530538, "volume": 2259.3321610056987}, "sites": [{"species": [{"element": "Na", "occu": 1}], "abc": [0.28553236, 0.59187543, 0.99698299], "xyz": [5.23269816674695, 4.81997781173424, 30.286876375126813], "label": "Na", "properties": {}}, {"species": [{"element": "Na", "occu": 1}], "abc": [0.87554019, 0.9752777, 0.05926724], "xyz": [12.32147878594602, 7.942240268833601, 1.800451551309788], "label": "Na", "properties": {}}, {"species": [{"element": "Na", "occu": 1}], "abc": [0.28655808, 0.98168332, 0.15452501], "xyz": [6.97089843253452, 7.99440487088576, 4.694242451152787], "label": "Na", "properties": {}}, {"species": [{"element": "Na", "occu": 1}], "abc": [0.39042588, 0.43514014, 0.11245824], "xyz": [5.4955229975379, 3.54359331961952, 3.4163158713914883], "label": "Na", "properties": {}}, {"species": [{"element": "Na", "occu": 1}], "abc": [0.32432896, 0.81987721, 0.26996792], "xyz": [6.59822359646617, 6.67672581128528, 8.201228205799303], "label": "Na", "properties": {}}, {"species": [{"element": "Na", "occu": 1}], "abc": [0.70375914, 0.93543552, 0.226107], "xyz": [10.575952437729597, 7.61778276673536, 6.8687979887709005], "label": "Na", "properties": {}}, {"species": [{"element": "Na", "occu": 1}], "abc": [0.86500119, 0.27531263, 0.15280517], "xyz": [9.12082200477279, 2.2420271236638403, 4.641996242353379], "label": "Na", "properties": {}}, {"species": [{"element": "Na", "occu": 1}], "abc": [0.17498887, 0.45192155, 0.34341055], "xyz": [3.6024310484505095, 3.6802538730904, 10.432307249057784], "label": "Na", "properties": {}}, {"species": [{"element": "Na", "occu": 1}], "abc": [0.64034968, 0.28403949, 0.38781132], "xyz": [7.107854256004449, 2.31309490150032, 11.781137314804885], "label": "Na", "properties": {}}, {"species": [{"element": "Na", "occu": 1}], "abc": [0.75142908, 0.75285022, 0.3457868], "xyz": [10.201525071136619, 6.13088696038496, 10.50449422788116], "label": "Na", "properties": {}}, {"species": [{"element": "Na", "occu": 1}], "abc": [0.68448742, 0.15166447, 0.49397685], "xyz": [6.923855469372789, 1.23508992462896, 15.006289914860595], "label": "Na", "properties": {}}, {"species": [{"element": "Na", "occu": 1}], "abc": [0.18893834, 0.83171726, 0.46645291], "xyz": [5.41425498139406, 6.77314606358368, 14.170153113633518], "label": "Na", "properties": {}}, {"species": [{"element": "Na", "occu": 1}], "abc": [0.13840659, 0.23316181, 0.49622114], "xyz": [2.29811758236501, 1.89876905473808, 15.074468143036718], "label": "Na", "properties": {}}, {"species": [{"element": "Na", "occu": 1}], "abc": [0.54906924, 0.85052997, 0.55894], "xyz": [8.78665417343445, 6.92634864673296, 16.979774831578], "label": "Na", "properties": {}}, {"species": [{"element": "Na", "occu": 1}], "abc": [0.13896499, 0.84273272, 0.65425063], "xyz": [5.0067185130052, 6.86285121114496, 19.875171540448083], "label": "Na", "properties": {}}, {"species": [{"element": "Na", "occu": 1}], "abc": [0.03579713, 0.38811394, 0.6123718], "xyz": [2.0482438856261, 3.16063226213792, 18.602954301370662], "label": "Na", "properties": {}}, {"species": [{"element": "Na", "occu": 1}], "abc": [0.10075709, 0.00493753, 0.76982751], "xyz": [0.94208145174809, 0.040209111307039996, 23.38622710658454], "label": "Na", "properties": {}}, {"species": [{"element": "Na", "occu": 1}], "abc": [0.72137597, 0.89038555, 0.72593815], "xyz": [10.537040823271308, 7.2509152726424, 22.052932924199904], "label": "Na", "properties": {}}, {"species": [{"element": "Na", "occu": 1}], "abc": [0.56066045, 0.54875645, 0.65311], "xyz": [7.554120658863649, 4.4688354660136, 19.840520879257], "label": "Na", "properties": {}}, {"species": [{"element": "Na", "occu": 1}], "abc": [0.24964453, 0.37337915, 0.84318804], "xyz": [3.9358953643909897, 3.0406384978072, 25.61481207263675], "label": "Na", "properties": {}}, {"species": [{"element": "Na", "occu": 1}], "abc": [0.78475442, 0.54095479, 0.88764582], "xyz": [9.56609991310727, 4.40530211729072, 26.965374018305035], "label": "Na", "properties": {}}, {"species": [{"element": "Na", "occu": 1}], "abc": [0.67304122, 0.07256407, 0.84574035], "xyz": [6.46850358205159, 0.59093043840176, 25.692347495223046], "label": "Na", "properties": {}}, {"species": [{"element": "Na", "occu": 1}], "abc": [0.74122524, 0.67328269, 0.99394974], "xyz": [9.755447506954528, 5.48292336923792, 30.19473070294754], "label": "Na", "properties": {}}, {"species": [{"element": "Na", "occu": 1}], "abc": [0.23550571, 0.99331808, 0.96650132], "xyz": [6.5562542617576, 8.08915333010944, 29.360888088207883], "label": "Na", "properties": {}}, {"species": [{"element": "Zr", "occu": 1}], "abc": [0.3829953, 0.15799853, 0.03768065], "xyz": [4.19851412278557, 1.28667177295504, 1.144682707459655], "label": "Zr", "properties": {}}, {"species": [{"element": "Zr", "occu": 1}], "abc": [0.05040925, 0.81353069, 0.16045888], "xyz": [4.06845296694541, 6.62504249410192, 4.874504691249856], "label": "Zr", "properties": {}}, {"species": [{"element": "Zr", "occu": 1}], "abc": [0.63170524, 0.59647214, 0.10231105], "xyz": [8.41457389180558, 4.85741143219552, 3.108059168752135], "label": "Zr", "properties": {}}, {"species": [{"element": "Zr", "occu": 1}], "abc": [0.30939244, 0.26656545, 0.21060655], "xyz": [4.007826119153769, 2.1707938685256, 6.397917123582985], "label": "Zr", "properties": {}}, {"species": [{"element": "Zr", "occu": 1}], "abc": [0.72472814, 0.46520501, 0.29032855], "xyz": [8.681941610036208, 3.78842863287568, 8.819754188604385], "label": "Zr", "properties": {}}, {"species": [{"element": "Zr", "occu": 1}], "abc": [0.4007166, 0.14114245, 0.40342872], "xyz": [4.285599011648849, 1.1494031392616, 12.255570948924264], "label": "Zr", "properties": {}}, {"species": [{"element": "Zr", "occu": 1}], "abc": [0.98829922, 0.91343105, 0.33828923], "xyz": [13.07697642901681, 7.4385878689864, 10.276729082455901], "label": "Zr", "properties": {}}, {"species": [{"element": "Zr", "occu": 1}], "abc": [0.64142864, 0.57224554, 0.44987852], "xyz": [8.395927543137379, 4.6601204676867205, 13.666647531333524], "label": "Zr", "properties": {}}, {"species": [{"element": "Zr", "occu": 1}], "abc": [0.04207571, 0.6672767, 0.53775048], "xyz": [3.34369588393478, 5.4340131812656, 16.336068390118776], "label": "Zr", "properties": {}}, {"species": [{"element": "Zr", "occu": 1}], "abc": [0.37442637, 0.01164257, 0.66032903], "xyz": [3.4711550503212902, 0.09481206048976, 20.05982438929816], "label": "Zr", "properties": {}}, {"species": [{"element": "Zr", "occu": 1}], "abc": [0.79318356, 0.22863249, 0.60226069], "xyz": [8.25790342165089, 1.86188422932432, 18.295793656046804], "label": "Zr", "properties": {}}, {"species": [{"element": "Zr", "occu": 1}], "abc": [0.11510456, 0.55863935, 0.71052964], "xyz": [3.5288292700094295, 4.5493175342008, 21.584845060940665], "label": "Zr", "properties": {}}, {"species": [{"element": "Zr", "occu": 1}], "abc": [0.69996431, 0.35971784, 0.79018911], "xyz": [7.98793628965304, 2.92938669085312, 24.004782556562457], "label": "Zr", "properties": {}}, {"species": [{"element": "Zr", "occu": 1}], "abc": [0.02467919, 0.68335785, 0.90324432], "xyz": [3.25614022596137, 5.5649711198088, 27.439233498231985], "label": "Zr", "properties": {}}, {"species": [{"element": "Zr", "occu": 1}], "abc": [0.43678903, 0.91143953, 0.83823325], "xyz": [8.03137336648081, 7.42236979044304, 25.464292842419276], "label": "Zr", "properties": {}}, {"species": [{"element": "Zr", "occu": 1}], "abc": [0.78401672, 0.25279661, 0.94970768], "xyz": [8.28135555479165, 2.05866638370448, 28.85072201349042], "label": "Zr", "properties": {}}, {"species": [{"element": "Si", "occu": 1}], "abc": [0.23187252, 0.86991912, 0.06532156], "xyz": [5.975788100935439, 7.08424550822016, 1.984372885188772], "label": "Si", "properties": {}}, {"species": [{"element": "Si", "occu": 1}], "abc": [0.07807676, 0.44151294, 0.11550106], "xyz": [2.67119987268254, 3.5954906497699204, 3.508752266090422], "label": "Si", "properties": {}}, {"species": [{"element": "Si", "occu": 1}], "abc": [0.61379476, 0.98057735, 0.12939921], "xyz": [9.95454385774903, 7.9853983289848, 3.9309576147423266], "label": "Si", "properties": {}}, {"species": [{"element": "Si", "occu": 1}], "abc": [0.45380482, 0.56284252, 0.19805758], "xyz": [6.64071450314044, 4.58354633491136, 6.016697878282546], "label": "Si", "properties": {}}, {"species": [{"element": "Si", "occu": 1}], "abc": [0.58136016, 0.16790775, 0.30477397], "xyz": [6.05406677194983, 1.3673681798519999, 9.258584794657938], "label": "Si", "properties": {}}, {"species": [{"element": "Si", "occu": 1}], "abc": [0.41615754, 0.76885461, 0.3674325], "xyz": [7.21057559507781, 6.26121979864848, 11.16205874656275], "label": "Si", "properties": {}}, {"species": [{"element": "Si", "occu": 1}], "abc": [0.96392314, 0.27877266, 0.38298629], "xyz": [10.039590851467059, 2.27020411325088, 11.634560002471524], "label": "Si", "properties": {}}, {"species": [{"element": "Si", "occu": 1}], "abc": [0.81063896, 0.84999502, 0.43580007], "xyz": [11.17311626558126, 6.921992245031361, 13.238964933957009], "label": "Si", "properties": {}}, {"species": [{"element": "Si", "occu": 1}], "abc": [0.19295973, 0.95563603, 0.56514776], "xyz": [6.000571855310909, 7.78228699355504, 17.16835744690071], "label": "Si", "properties": {}}, {"species": [{"element": "Si", "occu": 1}], "abc": [0.34682003, 0.38420281, 0.61571656], "xyz": [4.87137278254073, 3.12878170902608, 18.704563189025272], "label": "Si", "properties": {}}, {"species": [{"element": "Si", "occu": 1}], "abc": [0.81071588, 0.84448362, 0.62913841], "xyz": [11.14937520242762, 6.87710978435616, 19.11229924445737], "label": "Si", "properties": {}}, {"species": [{"element": "Si", "occu": 1}], "abc": [0.97108772, 0.26208477, 0.6980147], "xyz": [10.03101044788589, 2.13430514625936, 21.20465959697189], "label": "Si", "properties": {}}, {"species": [{"element": "Si", "occu": 1}], "abc": [0.84318906, 0.657124, 0.80465704], "xyz": [10.61498603402928, 5.351333978432001, 24.44429698329705], "label": "Si", "properties": {}}, {"species": [{"element": "Si", "occu": 1}], "abc": [0.00890628, 0.05558297, 0.86718384], "xyz": [0.32785369531497, 0.45264369583696, 26.34376917161621], "label": "Si", "properties": {}}, {"species": [{"element": "Si", "occu": 1}], "abc": [0.46128642, 0.54588337, 0.88282744], "xyz": [6.63382628206689, 4.44543834366416, 26.81899872318753], "label": "Si", "properties": {}}, {"species": [{"element": "Si", "occu": 1}], "abc": [0.61506319, 0.97504742, 0.93575328], "xyz": [9.9416023014751, 7.94036496799456, 28.426807872599138], "label": "Si", "properties": {}}, {"species": [{"element": "P", "occu": 1}], "abc": [0.64281283, 0.3508814, 0.04101594], "xyz": [7.42679925623164, 2.8574265408352, 1.246003910447478], "label": "P", "properties": {}}, {"species": [{"element": "P", "occu": 1}], "abc": [0.0315228, 0.1138632, 0.23865937], "xyz": [0.7928813231111999, 0.9272527118976, 7.2501205210689195], "label": "P", "properties": {}}, {"species": [{"element": "P", "occu": 1}], "abc": [0.99258507, 0.62330028, 0.2600249], "xyz": [11.829361973293079, 5.075888214599041, 7.89917388736463], "label": "P", "properties": {}}, {"species": [{"element": "P", "occu": 1}], "abc": [0.35454053, 0.41843919, 0.4587799], "xyz": [5.09372309258255, 3.4075879976299204, 13.93705835913313], "label": "P", "properties": {}}, {"species": [{"element": "P", "occu": 1}], "abc": [0.78327611, 0.47386217, 0.54108857], "xyz": [9.25503722816681, 3.85892880402256, 16.43747465298696], "label": "P", "properties": {}}, {"species": [{"element": "P", "occu": 1}], "abc": [0.39303465, 0.71134789, 0.73853908], "xyz": [6.74435403375141, 5.79290991387152, 22.435730637851595], "label": "P", "properties": {}}, {"species": [{"element": "P", "occu": 1}], "abc": [0.43163223, 0.20187628, 0.75996045], "xyz": [4.83730175612316, 1.6439932137670399, 23.086480341189915], "label": "P", "properties": {}}, {"species": [{"element": "P", "occu": 1}], "abc": [0.07090517, 0.40639283, 0.95861349], "xyz": [2.44994316520883, 3.30948764581744, 29.121267418172163], "label": "P", "properties": {}}, {"species": [{"element": "O", "occu": 1}], "abc": [0.38602937, 0.69642852, 0.08389619], "xyz": [6.61420826338484, 5.67141300975936, 2.548642815735653], "label": "O", "properties": {}}, {"species": [{"element": "O", "occu": 1}], "abc": [0.13530926, 0.3225384, 0.15941214], "xyz": [2.6662237650084797, 2.6266133930112, 4.842706270118418], "label": "O", "properties": {}}, {"species": [{"element": "O", "occu": 1}], "abc": [0.57578793, 0.07504208, 0.08171826], "xyz": [5.59130982240096, 0.61111028134144, 2.482480506724062], "label": "O", "properties": {}}, {"species": [{"element": "O", "occu": 1}], "abc": [0.79293495, 0.20655645, 0.01658765], "xyz": [8.15772374191965, 1.6821064964136, 0.5039084015905549], "label": "O", "properties": {}}, {"species": [{"element": "O", "occu": 1}], "abc": [0.63813383, 0.51645953, 0.0296091], "xyz": [8.11842115208321, 4.20582330180304, 0.8994808941311699], "label": "O", "properties": {}}, {"species": [{"element": "O", "occu": 1}], "abc": [0.4830137, 0.3466178, 0.02549234], "xyz": [5.9484942138098, 2.8227056243104, 0.774419782320158], "label": "O", "properties": {}}, {"species": [{"element": "O", "occu": 1}], "abc": [0.66846936, 0.33213766, 0.09120502], "xyz": [7.57798218479142, 2.70478561957088, 2.770674317654074], "label": "O", "properties": {}}, {"species": [{"element": "O", "occu": 1}], "abc": [0.30163703, 0.00503317, 0.05754972], "xyz": [2.77707944113877, 0.04098796215056, 1.748275820696964], "label": "O", "properties": {}}, {"species": [{"element": "O", "occu": 1}], "abc": [0.0931742, 0.60941267, 0.12695691], "xyz": [3.5537303274272296, 4.96279351820656, 3.8567641340983174], "label": "O", "properties": {}}, {"species": [{"element": "O", "occu": 1}], "abc": [0.60240206, 0.81233956, 0.1205572], "xyz": [9.10434831135812, 6.61534244595008, 3.66235036019164], "label": "O", "properties": {}}, {"species": [{"element": "O", "occu": 1}], "abc": [0.21707104, 0.34528435, 0.07635149], "xyz": [3.51380890471267, 2.8118465835608, 2.319445930252763], "label": "O", "properties": {}}, {"species": [{"element": "O", "occu": 1}], "abc": [0.09726939, 0.93238395, 0.10751463], "xyz": [5.023536791241869, 7.5929320989336, 3.266136273124881], "label": "O", "properties": {}}, {"species": [{"element": "O", "occu": 1}], "abc": [0.60143289, 0.52207923, 0.16147616], "xyz": [7.808166787409789, 4.2515877108926405, 4.905408160925792], "label": "O", "properties": {}}, {"species": [{"element": "O", "occu": 1}], "abc": [0.1484748, 0.85540002, 0.01989908], "xyz": [5.14974924356418, 6.966008230071361, 0.6045047728835959], "label": "O", "properties": {}}, {"species": [{"element": "O", "occu": 1}], "abc": [0.8004227, 0.93798326, 0.14559648], "xyz": [11.47005002582774, 7.63853046067168, 4.423006846298976], "label": "O", "properties": {}}, {"species": [{"element": "O", "occu": 1}], "abc": [0.88847081, 0.48577575, 0.10158977], "xyz": [10.268585390129031, 3.955947852876, 3.086147743571399], "label": "O", "properties": {}}, {"species": [{"element": "O", "occu": 1}], "abc": [0.28897807, 0.74074124, 0.18758304], "xyz": [5.92439987752252, 6.03227665834432, 5.698496764273249], "label": "O", "properties": {}}, {"species": [{"element": "O", "occu": 1}], "abc": [0.74533199, 0.98942212, 0.31365662], "xyz": [11.1950596818578, 8.05742631492416, 9.528426632614995], "label": "O", "properties": {}}, {"species": [{"element": "O", "occu": 1}], "abc": [0.42756956, 0.69531531, 0.41767682], "xyz": [6.988644672689871, 5.66234750842608, 12.688407263694735], "label": "O", "properties": {}}, {"species": [{"element": "O", "occu": 1}], "abc": [0.91897439, 0.39660067, 0.33956372], "xyz": [10.15166565276995, 3.22974452499056, 10.315446213498765], "label": "O", "properties": {}}, {"species": [{"element": "O", "occu": 1}], "abc": [0.13360287, 0.4455191, 0.25373599], "xyz": [3.19607018731446, 3.6281150861488, 7.708126054437914], "label": "O", "properties": {}}, {"species": [{"element": "O", "occu": 1}], "abc": [0.89263898, 0.29309154, 0.24425381], "xyz": [9.4520803660253, 2.38681088621472, 7.4200713771693465], "label": "O", "properties": {}}, {"species": [{"element": "O", "occu": 1}], "abc": [0.97979451, 0.73316243, 0.22029759], "xyz": [12.19979819244915, 5.97055810375024, 6.692316660355833], "label": "O", "properties": {}}, {"species": [{"element": "O", "occu": 1}], "abc": [0.0391444, 0.00682482, 0.27832219], "xyz": [0.38776227625618, 0.05557838575776, 8.455018636761855], "label": "O", "properties": {}}, {"species": [{"element": "O", "occu": 1}], "abc": [0.20732537, 0.10193547, 0.23306314], "xyz": [2.34553080040139, 0.83011843155696, 7.080115287402118], "label": "O", "properties": {}}, {"species": [{"element": "O", "occu": 1}], "abc": [0.81918296, 0.63226923, 0.2668129], "xyz": [10.285512695607949, 5.14892746881264, 8.10538334018023], "label": "O", "properties": {}}, {"species": [{"element": "O", "occu": 1}], "abc": [0.99308757, 0.04523952, 0.19600664], "xyz": [9.27020023100544, 0.36841110740736, 5.9543933386305685], "label": "O", "properties": {}}, {"species": [{"element": "O", "occu": 1}], "abc": [0.03424946, 0.6883925, 0.30293049], "xyz": [3.3658716367809793, 5.60597113444, 9.202582584570063], "label": "O", "properties": {}}, {"species": [{"element": "O", "occu": 1}], "abc": [0.39573345, 0.42121828, 0.19224595], "xyz": [5.4822506902405195, 3.43021970602304, 5.840149109533765], "label": "O", "properties": {}}, {"species": [{"element": "O", "occu": 1}], "abc": [0.64346084, 0.30742104, 0.30893966], "xyz": [7.239966764810481, 2.5035041438707197, 9.385132327878242], "label": "O", "properties": {}}, {"species": [{"element": "O", "occu": 1}], "abc": [0.43460464, 0.93371003, 0.37507841], "xyz": [8.11019566371499, 7.60373112158704, 11.394330242935366], "label": "O", "properties": {}}, {"species": [{"element": "O", "occu": 1}], "abc": [0.94429606, 0.11537852, 0.37246941], "xyz": [9.13567530049756, 0.93959282335936, 11.315072661557068], "label": "O", "properties": {}}, {"species": [{"element": "O", "occu": 1}], "abc": [0.47961506, 0.0787551, 0.16883164], "xyz": [4.7294605807851795, 0.6413475121968, 5.1288568212080685], "label": "O", "properties": {}}, {"species": [{"element": "O", "occu": 1}], "abc": [0.57262759, 0.64380313, 0.33640317], "xyz": [8.08495329969049, 5.24285456776784, 10.219433354615978], "label": "O", "properties": {}}, {"species": [{"element": "O", "occu": 1}], "abc": [0.44531581, 0.21101685, 0.34491057], "xyz": [5.00280886444693, 1.7184300671208002, 10.47787564967836], "label": "O", "properties": {}}, {"species": [{"element": "O", "occu": 1}], "abc": [0.93757046, 0.81288993, 0.39363305], "xyz": [12.16777767595025, 6.61982442147024, 11.957992906693535], "label": "O", "properties": {}}, {"species": [{"element": "O", "occu": 1}], "abc": [0.49361074, 0.16506896, 0.25853157], "xyz": [5.2400884106065595, 1.3442503004492798, 7.853808719101059], "label": "O", "properties": {}}, {"species": [{"element": "O", "occu": 1}], "abc": [0.52949505, 0.57110951, 0.24603771], "xyz": [7.368634594790789, 4.65086913013168, 7.474263634517277], "label": "O", "properties": {}}, {"species": [{"element": "O", "occu": 1}], "abc": [0.14523631, 0.23080761, 0.40494512], "xyz": [2.35005019772857, 1.87959746695248, 12.301636949844944], "label": "O", "properties": {}}, {"species": [{"element": "O", "occu": 1}], "abc": [0.24244423, 0.80372467, 0.34469866], "xyz": [5.7787579529358695, 6.545186503422561, 10.471438135661542], "label": "O", "properties": {}}, {"species": [{"element": "O", "occu": 1}], "abc": [0.64744004, 0.03506069, 0.42748317], "xyz": [6.06836516457893, 0.28551911314191997, 12.98630974861198], "label": "O", "properties": {}}, {"species": [{"element": "O", "occu": 1}], "abc": [0.21109589, 0.56539577, 0.48217051], "xyz": [4.435453461625849, 4.60433889990736, 14.647630676328637], "label": "O", "properties": {}}, {"species": [{"element": "O", "occu": 1}], "abc": [0.37074802, 0.24981756, 0.47392162], "xyz": [4.4938891056406, 2.03440628745408, 14.397041534720493], "label": "O", "properties": {}}, {"species": [{"element": "O", "occu": 1}], "abc": [0.52303215, 0.41767086, 0.46684036], "xyz": [6.62909687672574, 3.40133105002848, 14.181923274578333], "label": "O", "properties": {}}, {"species": [{"element": "O", "occu": 1}], "abc": [0.33131742, 0.41448537, 0.40828354], "xyz": [4.86409813097289, 3.37538979560016, 12.403053237627597], "label": "O", "properties": {}}, {"species": [{"element": "O", "occu": 1}], "abc": [0.73904527, 0.71651878, 0.43383041], "xyz": [9.92729442825718, 5.835019408207041, 13.179129561117767], "label": "O", "properties": {}}, {"species": [{"element": "O", "occu": 1}], "abc": [0.81663282, 0.37429835, 0.42099045], "xyz": [9.11809925042331, 3.0481240655128, 12.789070467750916], "label": "O", "properties": {}}, {"species": [{"element": "O", "occu": 1}], "abc": [0.89392113, 0.84402593, 0.48432916], "xyz": [11.907232894755209, 6.8733825547182406, 14.713207287306892], "label": "O", "properties": {}}, {"species": [{"element": "O", "occu": 1}], "abc": [0.03895567, 0.12886887, 0.58389337], "xyz": [0.9273148877203898, 1.04945240592816, 17.737821498284717], "label": "O", "properties": {}}, {"species": [{"element": "O", "occu": 1}], "abc": [0.29020784, 0.50262037, 0.65969735], "xyz": [4.87954373203685, 4.09312316128016, 20.040634880288945], "label": "O", "properties": {}}, {"species": [{"element": "O", "occu": 1}], "abc": [0.84770559, 0.75118015, 0.58129245], "xyz": [11.07338148960927, 6.1172866317752, 17.658809375418315], "label": "O", "properties": {}}, {"species": [{"element": "O", "occu": 1}], "abc": [0.63305321, 0.61828699, 0.51671731], "xyz": [8.52363528252059, 5.03506214658032, 15.697111631621796], "label": "O", "properties": {}}, {"species": [{"element": "O", "occu": 1}], "abc": [0.78744321, 0.30856103, 0.52957895], "xyz": [8.559968784630149, 2.5127877299550403, 16.087829331490866], "label": "O", "properties": {}}, {"species": [{"element": "O", "occu": 1}], "abc": [0.94315602, 0.47781021, 0.52551847], "xyz": [10.73268047244045, 3.8910799362292803, 15.964477923275089], "label": "O", "properties": {}}, {"species": [{"element": "O", "occu": 1}], "abc": [0.75775085, 0.49224133, 0.5912681], "xyz": [9.10343620281317, 4.00860074326544, 17.96185494524447], "label": "O", "properties": {}}, {"species": [{"element": "O", "occu": 1}], "abc": [0.12324862, 0.82039786, 0.55760632], "xyz": [4.7641287174001, 6.68096575996448, 16.939259595421383], "label": "O", "properties": {}}, {"species": [{"element": "O", "occu": 1}], "abc": [0.33193713, 0.21605082, 0.6269481], "xyz": [3.98968285912842, 1.75942454412576, 19.04576084926047], "label": "O", "properties": {}}, {"species": [{"element": "O", "occu": 1}], "abc": [0.82200465, 0.01281843, 0.6203545], "xyz": [7.56396288088947, 0.10438775635824, 18.84545698242415], "label": "O", "properties": {}}, {"species": [{"element": "O", "occu": 1}], "abc": [0.20700052, 0.48119369, 0.57679595], "xyz": [4.02460800638617, 3.9186335356859203, 17.522212321118765], "label": "O", "properties": {}}, {"species": [{"element": "O", "occu": 1}], "abc": [0.3281956, 0.89328575, 0.60717924], "xyz": [6.959109821454549, 7.274533248556, 18.44521196838419], "label": "O", "properties": {}}, {"species": [{"element": "O", "occu": 1}], "abc": [0.82347693, 0.30242253, 0.66148493], "xyz": [8.86182871304301, 2.46279843778704, 20.09493893062249], "label": "O", "properties": {}}, {"species": [{"element": "O", "occu": 1}], "abc": [0.27547587, 0.97015875, 0.51957575], "xyz": [6.818575572617309, 7.9005537514199995, 15.783946833199025], "label": "O", "properties": {}}, {"species": [{"element": "O", "occu": 1}], "abc": [0.62445851, 0.88702834, 0.6456159], "xyz": [9.637034374197139, 7.22357560471712, 19.61286114732633], "label": "O", "properties": {}}, {"species": [{"element": "O", "occu": 1}], "abc": [0.53620977, 0.34013897, 0.60163797], "xyz": [6.4055831362800895, 2.7699448316449597, 18.276876338654738], "label": "O", "properties": {}}, {"species": [{"element": "O", "occu": 1}], "abc": [0.13591648, 0.08432447, 0.68745879], "xyz": [1.61526933522607, 0.68670205550896, 20.883986582082272], "label": "O", "properties": {}}, {"species": [{"element": "O", "occu": 1}], "abc": [0.67960714, 0.83577963, 0.81361763], "xyz": [9.91339701562939, 6.80622824991984, 24.716506523780982], "label": "O", "properties": {}}, {"species": [{"element": "O", "occu": 1}], "abc": [0.99758734, 0.12935411, 0.91742139], "xyz": [9.68435091933571, 1.0534039908644799, 27.869912026108892], "label": "O", "properties": {}}, {"species": [{"element": "O", "occu": 1}], "abc": [0.50610005, 0.42795733, 0.83942902], "xyz": [6.520082700186769, 3.4850996179534404, 25.500618575682875], "label": "O", "properties": {}}, {"species": [{"element": "O", "occu": 1}], "abc": [0.29055642, 0.37957039, 0.75366598], "xyz": [4.336989591671669, 3.09105728175152, 22.895263603643624], "label": "O", "properties": {}}, {"species": [{"element": "O", "occu": 1}], "abc": [0.53223934, 0.53215266, 0.74401803], "xyz": [7.22092024223266, 4.333621373090881, 22.60217307767246], "label": "O", "properties": {}}, {"species": [{"element": "O", "occu": 1}], "abc": [0.44468456, 0.09183495, 0.7202589], "xyz": [4.46846152145783, 0.7478641601016, 21.88040566508043], "label": "O", "properties": {}}, {"species": [{"element": "O", "occu": 1}], "abc": [0.38637508, 0.81812011, 0.77814538], "xyz": [7.157078557154829, 6.66241674795248, 23.638911759102406], "label": "O", "properties": {}}, {"species": [{"element": "O", "occu": 1}], "abc": [0.21712932, 0.72326901, 0.73321093], "xyz": [5.19073676550405, 5.88999036522768, 22.273869280158692], "label": "O", "properties": {}}, {"species": [{"element": "O", "occu": 1}], "abc": [0.60488553, 0.19323065, 0.76671758], "xyz": [6.38122595148249, 1.5735869379592, 23.291752008824545], "label": "O", "properties": {}}, {"species": [{"element": "O", "occu": 1}], "abc": [0.43059696, 0.77997766, 0.69574969], "xyz": [7.39177802954022, 6.351801112690881, 21.135851925681102], "label": "O", "properties": {}}, {"species": [{"element": "O", "occu": 1}], "abc": [0.39020392, 0.13676111, 0.80290038], "xyz": [4.17015835232575, 1.11372339904048, 24.390932237070906], "label": "O", "properties": {}}, {"species": [{"element": "O", "occu": 1}], "abc": [0.0290512, 0.40373758, 0.69217589], "xyz": [2.05592764557022, 3.2878644368854397, 21.027285139813042], "label": "O", "properties": {}}, {"species": [{"element": "O", "occu": 1}], "abc": [0.78111417, 0.51757676, 0.80885567], "xyz": [9.4291710019206, 4.21492154027968, 24.57184518525273], "label": "O", "properties": {}}, {"species": [{"element": "O", "occu": 1}], "abc": [0.99033009, 0.89082765, 0.87486867], "xyz": [12.99527564039277, 7.2545155440552, 26.57722300032583], "label": "O", "properties": {}}, {"species": [{"element": "O", "occu": 1}], "abc": [0.48076011, 0.70929911, 0.87229637], "xyz": [7.53643676794647, 5.77622553462448, 26.49908031095082], "label": "O", "properties": {}}, {"species": [{"element": "O", "occu": 1}], "abc": [0.94555015, 0.74580934, 0.66843042], "xyz": [11.94314530823446, 6.07354907532512, 20.305932697923055], "label": "O", "properties": {}}, {"species": [{"element": "O", "occu": 1}], "abc": [0.85262667, 0.18054282, 0.83609726], "xyz": [8.58749683259994, 1.47026273158176, 25.39940460890136], "label": "O", "properties": {}}, {"species": [{"element": "O", "occu": 1}], "abc": [0.97961873, 0.61344136, 0.84474383], "xyz": [11.66721924792728, 4.99560142917248, 25.66207468380292], "label": "O", "properties": {}}, {"species": [{"element": "O", "occu": 1}], "abc": [0.48768904, 0.01151838, 0.893703], "xyz": [4.504996883775339, 0.09380071077984001, 27.149382234776102], "label": "O", "properties": {}}, {"species": [{"element": "O", "occu": 1}], "abc": [0.93076626, 0.65987527, 0.7583706], "xyz": [11.42700340485591, 5.37373913276336, 23.03818303733622], "label": "O", "properties": {}}, {"species": [{"element": "O", "occu": 1}], "abc": [0.8952684, 0.25367091, 0.7459539], "xyz": [9.30126003602019, 2.0657863052068803, 22.66098196002693], "label": "O", "properties": {}}, {"species": [{"element": "O", "occu": 1}], "abc": [0.27998558, 0.59356964, 0.90473064], "xyz": [5.189555127737, 4.83377472607552, 27.48438571300937], "label": "O", "properties": {}}, {"species": [{"element": "O", "occu": 1}], "abc": [0.18277604, 0.02047025, 0.84452475], "xyz": [1.7600239277977698, 0.166700872852, 25.655419355735326], "label": "O", "properties": {}}, {"species": [{"element": "O", "occu": 1}], "abc": [0.77827698, 0.79003187, 0.92749984], "xyz": [10.611622492208669, 6.433678255512159, 28.176080508685406], "label": "O", "properties": {}}, {"species": [{"element": "O", "occu": 1}], "abc": [0.2143332, 0.25932464, 0.98197545], "xyz": [3.1075661019345597, 2.11182783991552, 29.830969390520416], "label": "O", "properties": {}}, {"species": [{"element": "O", "occu": 1}], "abc": [0.05489199, 0.57491991, 0.97372336], "xyz": [3.05113238709111, 4.68189938163888, 29.580283037620433], "label": "O", "properties": {}}, {"species": [{"element": "O", "occu": 1}], "abc": [0.90235455, 0.40733195, 0.96673787], "xyz": [10.047476021323948, 3.3171354333976, 29.36807412917187], "label": "O", "properties": {}}, {"species": [{"element": "O", "occu": 1}], "abc": [0.09371674, 0.41023239, 0.90810995], "xyz": [2.6753029071298298, 3.3407553637675202, 27.587044178830567], "label": "O", "properties": {}}, {"species": [{"element": "O", "occu": 1}], "abc": [0.6860514, 0.10894654, 0.93353411], "xyz": [6.748680989305259, 0.8872135568547199, 28.359392753063958], "label": "O", "properties": {}}, {"species": [{"element": "O", "occu": 1}], "abc": [0.60887311, 0.45047928, 0.92075309], "xyz": [7.5585638446756, 3.6685086492710397, 27.971124170178683], "label": "O", "properties": {}}, {"species": [{"element": "O", "occu": 1}], "abc": [0.53222461, 0.98144014, 0.9844119], "xyz": [9.21341567812414, 7.99242451801952, 29.90498515677153], "label": "O", "properties": {}}]}, "formula": "(Na3Zr2Si2PO12)8.0", "bandgap": 4.2921}