{"miller": "100_0.13", "final_energy": -1207.66220548, "sigma": 0.05787276516916644, "incar_parameters": {"SYSTEM": "unknown system", "LCOMPAT": false, "PREC": "normal", "ENMAX": 520.0, "ENAUG": 605.392, "EDIFF": 1e-05, "IALGO": 38, "IWAVPR": 11, "NBANDS": 624, "NBANDSLOW": -1, "NBANDSHIGH": -1, "NELECT": 1040.0, "TURBO": 0, "IRESTART": 0, "NREBOOT": 0, "NMIN": 0, "EREF": 0.0, "ISMEAR": 0, "SIGMA": 0.05, "KSPACING": 0.5, "KGAMMA": true, "KBLOWUP": true, "LREAL": true, "ROPT": [-0.0005, -0.0005, -0.0005, -0.0005, -0.0005], "LMAXPAW": -100, "LMAXMIX": 4, "NLSPLINE": false, "ISTART": 0, "ICHARG": 2, "INIWAV": 1, "ISPIN": 1, "LNONCOLLINEAR": false, "MAGMOM": [0.6, 0.6, 0.6, 0.6, 0.6, 0.6, 0.6, 0.6, 0.6, 0.6, 0.6, 0.6, 0.6, 0.6, 0.6, 0.6, 0.6, 0.6, 0.6, 0.6, 0.6, 0.6, 0.6, 0.6, 0.6, 0.6, 0.6, 0.6, 0.6, 0.6, 0.6, 0.6, 0.6, 0.6, 0.6, 0.6, 0.6, 0.6, 0.6, 0.6, 0.6, 0.6, 0.6, 0.6, 0.6, 0.6, 0.6, 0.6, 0.6, 0.6, 0.6, 0.6, 0.6, 0.6, 0.6, 0.6, 0.6, 0.6, 0.6, 0.6, 0.6, 0.6, 0.6, 0.6, 0.6, 0.6, 0.6, 0.6, 0.6, 0.6, 0.6, 0.6, 0.6, 0.6, 0.6, 0.6, 0.6, 0.6, 0.6, 0.6, 0.6, 0.6, 0.6, 0.6, 0.6, 0.6, 0.6, 0.6, 0.6, 0.6, 0.6, 0.6, 0.6, 0.6, 0.6, 0.6, 0.6, 0.6, 0.6, 0.6, 0.6, 0.6, 0.6, 0.6, 0.6, 0.6, 0.6, 0.6, 0.6, 0.6, 0.6, 0.6, 0.6, 0.6, 0.6, 0.6, 0.6, 0.6, 0.6, 0.6, 0.6, 0.6, 0.6, 0.6, 0.6, 0.6, 0.6, 0.6, 0.6, 0.6, 0.6, 0.6, 0.6, 0.6, 0.6, 0.6, 0.6, 0.6, 0.6, 0.6, 0.6, 0.6, 0.6, 0.6, 0.6, 0.6, 0.6, 0.6, 0.6, 0.6, 0.6, 0.6, 0.6, 0.6, 0.6, 0.6, 0.6, 0.6, 0.6, 0.6], "NUPDOWN": -1.0, "LSORBIT": false, "SAXIS": [0.0, 0.0, 1.0], "LSPIRAL": false, "QSPIRAL": [0.0, 0.0, 0.0], "LZEROZ": false, "LASPH": false, "LMETAGGA": false, "NELM": 100, "NELMDL": -5, "NELMIN": 6, "ENINI": 520.0, "LDIAG": true, "LSUBROT": false, "WEIMIN": 0.001, "EBREAK": 0.0, "DEPER": 0.3, "NRMM": 4, "TIME": 0.4, "AMIX": 0.4, "BMIX": 1.0, "AMIN": 0.1, "AMIX_MAG": 1.6, "BMIX_MAG": 1.0, "IMIX": 4, "MIXFIRST": false, "MAXMIX": -45, "WC": 100.0, "INIMIX": 1, "MIXPRE": 1, "MREMOVE": 5, "LDIPOL": false, "LMONO": false, "IDIPOL": 0, "EPSILON": 1.0, "DIPOL": [-100.0, -100.0, -100.0], "EFIELD": 0.0, "NGX": 54, "NGY": 54, "NGZ": 180, "NGXF": 108, "NGYF": 108, "NGZF": 360, "ADDGRID": false, "NSW": 150, "IBRION": 2, "MDALGO": 0, "ISIF": 3, "PSTRESS": 0.0, "EDIFFG": -0.01, "NFREE": 1, "POTIM": 0.5, "SMASS": -3.0, "SCALEE": 1.0, "TEBEG": 0.0001, "TEEND": 0.0001, "NBLOCK": 1, "KBLOCK": 150, "NPACO": 256, "APACO": 10.0, "ISYM": 0, "SYMPREC": 1e-05, "LORBIT": 11, "RWIGS": [-1.0, -1.0, -1.0, -1.0, -1.0], "NEDOS": 301, "EMIN": 10.0, "EMAX": -10.0, "EFERMI": 0.0, "NWRITE": 2, "LWAVE": false, "LDOWNSAMPLE": false, "LCHARG": false, "LPARD": false, "LVTOT": false, "LVHAR": false, "LELF": false, "LOPTICS": false, "STM": [0.0, 0.0, 0.0, 0.0, 0.0, 0.0, 0.0], "NPAR": 2, "NSIM": 4, "NBLK": -1, "LPLANE": true, "LSCALAPACK": true, "LSCAAWARE": false, "LSCALU": false, "LASYNC": false, "LORBITALREAL": false, "IDIOT": 3, "PHON_NSTRUCT": -1, "LMUSIC": false, "POMASS": [22.99, 91.224, 28.085, 30.974, 16.0], "DARWINR": [0.0, 0.0, 0.0, 0.0, 0.0], "DARWINV": [1.0, 1.0, 1.0, 1.0, 1.0], "LCORR": true, "GGA_COMPAT": true, "LBERRY": false, "ICORELEVEL": 0, "LDAU": false, "I_CONSTRAINED_M": 0, "GGA": "--", "VOSKOWN": 0, "LHFCALC": false, "PRECFOCK": "", "LSYMGRAD": false, "LHFONE": false, "LRHFCALC": false, "LTHOMAS": false, "LMODELHF": false, "LFOCKACE": false, "ENCUT4O": -1.0, "EXXOEP": 0, "FOURORBIT": 0, "AEXX": 0.0, "HFALPHA": 0.0, "MCALPHA": 0.0, "ALDAX": 1.0, "AGGAX": 1.0, "ALDAC": 1.0, "AGGAC": 1.0, "NKREDX": 1, "NKREDY": 1, "NKREDZ": 1, "SHIFTRED": false, "ODDONLY": false, "EVENONLY": false, "LMAXFOCK": 0, "NMAXFOCKAE": 0, "LFOCKAEDFT": false, "HFSCREEN": 0.0, "HFSCREENC": 0.0, "NBANDSGWLOW": 0, "LUSE_VDW": false, "Zab_VDW": -0.8491, "PARAM1": 0.1234, "PARAM2": 1.0, "PARAM3": 0.0, "MODEL_GW": 0, "MODEL_EPS0": 8.47226973, "MODEL_ALPHA": 1.0, "LEPSILON": false, "LRPA": false, "LNABLA": false, "LVEL": false, "CSHIFT": 0.1, "OMEGAMAX": -1.0, "DEG_THRESHOLD": 0.002, "RTIME": -0.1, "WPLASMAI": 0.0, "DFIELD": [0.0, 0.0, 0.0], "WPLASMA": [0.0, 0.0, 0.0, 0.0, 0.0, 0.0, 0.0, 0.0, 0.0], "NUCIND": false, "MAGPOS": [0.0, 0.0, 0.0], "LNICSALL": true, "ORBITALMAG": false, "LMAGBLOCH": false, "LCHIMAG": false, "LGAUGE": true, "MAGATOM": 0, "MAGDIPOL": [0.0, 0.0, 0.0], "AVECCONST": [0.0, 0.0, 0.0], "LFINITE_TEMPERATURE": false, "LADDER": false, "LRPAFORCE": false, "LFXC": false, "LHARTREE": true, "IBSE": 0, "KPOINT": [-1, 0, 0, 0], "LTCTC": false, "LTCTE": false, "LTETE": false, "LTRIPLET": false, "LFXCEPS": false, "LFXHEG": false, "NATURALO": 2, "LHOLEGF": false, "L2ORDER": false, "LDMP1": false, "LMP2LT": false, "LSMP2LT": false, "LGWLF": false, "ENCUTGW": -2.0, "ENCUTGWSOFT": -2.0, "ENCUTLF": -1.0, "LESF_SPLINES": false, "LMAXMP2": -1, "SCISSOR": 0.0, "NOMEGA": 0, "NOMEGAR": 0, "NBANDSGW": -1, "NBANDSO": -1, "NBANDSV": -1, "NELMGW": 1, "NELMHF": 1, "DIM": 3, "IESPILON": 4, "ANTIRES": 0, "OMEGAMIN": -30.0, "OMEGATL": -200.0, "OMEGAGRID": 0, "LSELFENERGY": false, "LSPECTRAL": false, "LSPECTRALGW": false, "LSINGLES": false, "LFERMIGW": false, "ODDONLYGW": false, "EVENONLYGW": false, "NKREDLFX": 1, "NKREDLFY": 1, "NKREDLFZ": 1, "MAXMEM": 2800, "TELESCOPE": 0, "NTAUPAR": -1, "NOMEGAPAR": -1, "DAMP_NEWTON": 0.80000001, "LAMBDA": 1.0, "OFIELD_KAPPA": 0.0, "OFIELD_K": [0.0, 0.0, 0.0], "OFIELD_Q6_NEAR": 0.0, "OFIELD_Q6_FAR": 0.0, "OFIELD_A": 0.0, "KPOINTS_OPT_MODE": 1, "LKPOINTS_OPT": false, "@module": "pymatgen.io.vasp.inputs", "@class": "Incar"}, "relaxed_structures": {"@module": "pymatgen.core.structure", "@class": "Structure", "charge": 0, "lattice": {"matrix": [[9.132688, 0.0, 0.0], [4.435089, 8.143568, 0.0], [0.0, 0.0, 30.37771882]], "a": 9.132688, "b": 9.27295606635473, "c": 30.37771882, "alpha": 90.0, "beta": 90.0, "gamma": 61.42673605530538, "volume": 2259.2719280711603}, "sites": [{"species": [{"element": "Na", "occu": 1}], "abc": [0.29903517, 0.60341208, 0.99609365], "xyz": [5.40718118711208, 4.91392730550144, 30.259052818087493], "label": "Na", "properties": {}}, {"species": [{"element": "Na", "occu": 1}], "abc": [0.88841624, 0.98661167, 0.05892246], "xyz": [12.48933889894175, 8.03453922423856, 1.7899299220626972], "label": "Na", "properties": {}}, {"species": [{"element": "Na", "occu": 1}], "abc": [0.29852365, 0.9941262, 0.15429629], "xyz": [7.135361530302999, 8.0957343102816, 4.687169312589178], "label": "Na", "properties": {}}, {"species": [{"element": "Na", "occu": 1}], "abc": [0.40202974, 0.44797615, 0.11244229], "xyz": [5.65842627726847, 3.6481242399032, 3.4157402690968977], "label": "Na", "properties": {}}, {"species": [{"element": "Na", "occu": 1}], "abc": [0.33797259, 0.83227471, 0.26987538], "xyz": [6.7778106283211095, 6.77768569556528, 8.198198410080652], "label": "Na", "properties": {}}, {"species": [{"element": "Na", "occu": 1}], "abc": [0.71616339, 0.94491491, 0.22607737], "xyz": [10.731278521169308, 7.6949788237988805, 6.867714777425103], "label": "Na", "properties": {}}, {"species": [{"element": "Na", "occu": 1}], "abc": [0.8764198, 0.28651502, 0.1528161], "xyz": [9.27478820395918, 2.33325454839136, 4.642204516969002], "label": "Na", "properties": {}}, {"species": [{"element": "Na", "occu": 1}], "abc": [0.18884726, 0.46320195, 0.34326899], "xyz": [3.7790249784584296, 3.7721165775576, 10.427728857845391], "label": "Na", "properties": {}}, {"species": [{"element": "Na", "occu": 1}], "abc": [0.65340183, 0.29658545, 0.38765789], "xyz": [7.2826979188740895, 2.4152637798856, 11.776162380774489], "label": "Na", "properties": {}}, {"species": [{"element": "Na", "occu": 1}], "abc": [0.76600532, 0.76400059, 0.34579946], "xyz": [10.384098206602669, 6.22169075670512, 10.504598763987836], "label": "Na", "properties": {}}, {"species": [{"element": "Na", "occu": 1}], "abc": [0.69772011, 0.16405478, 0.49390086], "xyz": [7.0996576261311, 1.33599125665504, 15.003581450036185], "label": "Na", "properties": {}}, {"species": [{"element": "Na", "occu": 1}], "abc": [0.2024795, 0.84389442, 0.46643582], "xyz": [5.59192895919938, 6.872311594090561, 14.169256187536131], "label": "Na", "properties": {}}, {"species": [{"element": "Na", "occu": 1}], "abc": [0.15052664, 0.24662427, 0.4959435], "xyz": [2.46851342581835, 2.00840151319536, 15.06563219360667], "label": "Na", "properties": {}}, {"species": [{"element": "Na", "occu": 1}], "abc": [0.5614373, 0.86340815, 0.55897488], "xyz": [8.95672368103775, 7.031222981279201, 16.980381732083238], "label": "Na", "properties": {}}, {"species": [{"element": "Na", "occu": 1}], "abc": [0.15080377, 0.8563618, 0.65426408], "xyz": [5.17528457983396, 6.973840550902399, 19.875050256265986], "label": "Na", "properties": {}}, {"species": [{"element": "Na", "occu": 1}], "abc": [0.04803843, 0.4015009, 0.61227464], "xyz": [2.21941221827994, 3.2696498812112, 18.599506854536724], "label": "Na", "properties": {}}, {"species": [{"element": "Na", "occu": 1}], "abc": [0.11277132, 0.01910873, 0.76977179], "xyz": [1.11465419913513, 0.15561324214864, 23.383910992188085], "label": "Na", "properties": {}}, {"species": [{"element": "Na", "occu": 1}], "abc": [0.73365193, 0.90522975, 0.72615063], "xyz": [10.714988683985588, 7.3718000247480004, 22.058799659105855], "label": "Na", "properties": {}}, {"species": [{"element": "Na", "occu": 1}], "abc": [0.57282719, 0.56364834, 0.6526808], "xyz": [7.73128255678898, 4.59010858487712, 19.826953821612655], "label": "Na", "properties": {}}, {"species": [{"element": "Na", "occu": 1}], "abc": [0.26096089, 0.38610884, 0.84330967], "xyz": [4.09570145765908, 3.14430359394112, 25.61782403344699], "label": "Na", "properties": {}}, {"species": [{"element": "Na", "occu": 1}], "abc": [0.7964288, 0.55380664, 0.88777079], "xyz": [9.72971748180536, 4.50996203169152, 26.968451435229266], "label": "Na", "properties": {}}, {"species": [{"element": "Na", "occu": 1}], "abc": [0.68466153, 0.08557299, 0.84569337], "xyz": [6.632323965738749, 0.69686946302832, 25.690235401798223], "label": "Na", "properties": {}}, {"species": [{"element": "Na", "occu": 1}], "abc": [0.75248509, 0.6860323, 0.99403734], "xyz": [9.91482585899662, 5.5867506852464, 30.196586811100737], "label": "Na", "properties": {}}, {"species": [{"element": "Na", "occu": 1}], "abc": [0.24763712, 0.00588823, 0.96640383], "xyz": [2.2877073782810298, 0.04795120140464, 29.35714381431108], "label": "Na", "properties": {}}, {"species": [{"element": "Zr", "occu": 1}], "abc": [0.39514369, 0.16963174, 0.03775076], "xyz": [4.36105590006358, 1.38140760964832, 1.146781972521303], "label": "Zr", "properties": {}}, {"species": [{"element": "Zr", "occu": 1}], "abc": [0.64438344, 0.60802218, 0.10238471], "xyz": [8.58158539216074, 4.95146996833824, 3.110213931847242], "label": "Zr", "properties": {}}, {"species": [{"element": "Zr", "occu": 1}], "abc": [0.32293463, 0.27784736, 0.21070863], "xyz": [4.18153899020048, 2.2626688697804798, 6.400847515087417], "label": "Zr", "properties": {}}, {"species": [{"element": "Zr", "occu": 1}], "abc": [0.73840447, 0.47694803, 0.29017188], "xyz": [8.858924603740029, 3.88405871477104, 8.814759780110782], "label": "Zr", "properties": {}}, {"species": [{"element": "Zr", "occu": 1}], "abc": [0.06333474, 0.82499812, 0.16037557], "xyz": [4.2373565070138, 6.7184282900921595, 4.871843971057227], "label": "Zr", "properties": {}}, {"species": [{"element": "Zr", "occu": 1}], "abc": [0.00212473, 0.92528123, 0.3382909], "xyz": [4.12310910125371, 7.53509061562864, 10.276505839564738], "label": "Zr", "properties": {}}, {"species": [{"element": "Zr", "occu": 1}], "abc": [0.65480917, 0.58421448, 0.44975624], "xyz": [8.57121106303768, 4.75759034446464, 13.662568596260435], "label": "Zr", "properties": {}}, {"species": [{"element": "Zr", "occu": 1}], "abc": [0.41407568, 0.15353885, 0.40339008], "xyz": [4.46258245853549, 1.2503540656168, 12.254070425017304], "label": "Zr", "properties": {}}, {"species": [{"element": "Zr", "occu": 1}], "abc": [0.05480452, 0.68037534, 0.53783277], "xyz": [3.5180377684550197, 5.54068284681312, 16.33813265924173], "label": "Zr", "properties": {}}, {"species": [{"element": "Zr", "occu": 1}], "abc": [0.80519701, 0.2423156, 0.60231384], "xyz": [8.42830432295128, 1.9733135660607999, 18.29692047291447], "label": "Zr", "properties": {}}, {"species": [{"element": "Zr", "occu": 1}], "abc": [0.12687692, 0.57225638, 0.71061849], "xyz": [3.69673530087878, 4.66020874396384, 21.58696867751298], "label": "Zr", "properties": {}}, {"species": [{"element": "Zr", "occu": 1}], "abc": [0.71172369, 0.37295489, 0.79017686], "xyz": [8.15403853311393, 3.0371835076475198, 24.003770471150503], "label": "Zr", "properties": {}}, {"species": [{"element": "Zr", "occu": 1}], "abc": [0.3864383, 0.0250073, 0.66036023], "xyz": [3.6401300263001004, 0.2036486480464, 20.060237386850527], "label": "Zr", "properties": {}}, {"species": [{"element": "Zr", "occu": 1}], "abc": [0.44833579, 0.92439632, 0.83823577], "xyz": [8.194290839776, 7.5278842908697605, 25.463690525926193], "label": "Zr", "properties": {}}, {"species": [{"element": "Zr", "occu": 1}], "abc": [0.79539863, 0.26544436, 0.94980189], "xyz": [8.44139688456548, 2.16166419587648, 28.85281474912457], "label": "Zr", "properties": {}}, {"species": [{"element": "Zr", "occu": 1}], "abc": [0.03634013, 0.6961015, 0.90334514], "xyz": [3.4191551747029396, 5.668749900152, 27.441564660333533], "label": "Zr", "properties": {}}, {"species": [{"element": "Si", "occu": 1}], "abc": [0.24480793, 0.88075696, 0.06520069], "xyz": [6.14198994958528, 7.17250419523328, 1.980648227689986], "label": "Si", "properties": {}}, {"species": [{"element": "Si", "occu": 1}], "abc": [0.09075981, 0.45236366, 0.1158414], "xyz": [2.8351541201350194, 3.6838542259388802, 3.5189974769151475], "label": "Si", "properties": {}}, {"species": [{"element": "Si", "occu": 1}], "abc": [0.62678463, 0.99227621, 0.12922629], "xyz": [10.12506177291813, 8.08066879091728, 3.9255999017717773], "label": "Si", "properties": {}}, {"species": [{"element": "Si", "occu": 1}], "abc": [0.46672467, 0.57472026, 0.19814096], "xyz": [6.811386296216099, 4.68027351828768, 6.019070369604867], "label": "Si", "properties": {}}, {"species": [{"element": "Si", "occu": 1}], "abc": [0.59543833, 0.17929331, 0.3047522], "xyz": [6.23313427808563, 1.4600872619300802, 9.257676641376403], "label": "Si", "properties": {}}, {"species": [{"element": "Si", "occu": 1}], "abc": [0.43015398, 0.78134382, 0.36721686], "xyz": [7.3937914725982194, 6.36292652954976, 11.155210519043305], "label": "Si", "properties": {}}, {"species": [{"element": "Si", "occu": 1}], "abc": [0.97735003, 0.29100795, 0.38281964], "xyz": [10.21647904873819, 2.3698430293656, 11.629187382693624], "label": "Si", "properties": {}}, {"species": [{"element": "Si", "occu": 1}], "abc": [0.82378342, 0.862004, 0.43582676], "xyz": [11.34642141278896, 7.019788190272, 13.239422769511622], "label": "Si", "properties": {}}, {"species": [{"element": "Si", "occu": 1}], "abc": [0.20506012, 0.96931953, 0.56523293], "xyz": [6.17176848219073, 7.89371950628304, 17.17048701534474], "label": "Si", "properties": {}}, {"species": [{"element": "Si", "occu": 1}], "abc": [0.35909179, 0.39735737, 0.615821], "xyz": [5.04178858218745, 3.23590676289616, 18.707237181451216], "label": "Si", "properties": {}}, {"species": [{"element": "Si", "occu": 1}], "abc": [0.82284366, 0.85816492, 0.62922918], "xyz": [11.320812216435959, 6.98852438123456, 19.114547103379167], "label": "Si", "properties": {}}, {"species": [{"element": "Si", "occu": 1}], "abc": [0.98298462, 0.2758376, 0.69800184], "xyz": [10.20065614880496, 2.2463022525568004, 21.20370363136263], "label": "Si", "properties": {}}, {"species": [{"element": "Si", "occu": 1}], "abc": [0.85469404, 0.67036713, 0.80471518], "xyz": [10.77879188700409, 5.459180308119841, 24.445411468225686], "label": "Si", "properties": {}}, {"species": [{"element": "Si", "occu": 1}], "abc": [0.02055779, 0.06865396, 0.86719719], "xyz": [0.49223430484195996, 0.55908819172928, 26.343472399314113], "label": "Si", "properties": {}}, {"species": [{"element": "Si", "occu": 1}], "abc": [0.47296955, 0.55869111, 0.88283999], "xyz": [6.7973281300091895, 4.5497390452804805, 26.81866497927161], "label": "Si", "properties": {}}, {"species": [{"element": "Si", "occu": 1}], "abc": [0.62667065, 0.98737798, 0.93575366], "xyz": [10.10229674314742, 8.04077972183264, 28.42606156826588], "label": "Si", "properties": {}}, {"species": [{"element": "P", "occu": 1}], "abc": [0.65429263, 0.36307008, 0.04108536], "xyz": [7.58569856852656, 2.9566858852454403, 1.2480795136984753], "label": "P", "properties": {}}, {"species": [{"element": "P", "occu": 1}], "abc": [0.04530545, 0.12514616, 0.23857123], "xyz": [0.96879489715784, 1.0191362638988801, 7.247249743481548], "label": "P", "properties": {}}, {"species": [{"element": "P", "occu": 1}], "abc": [0.00651161, 0.63497607, 0.26008049], "xyz": [2.87564388582791, 5.1709708044177605, 7.900651995787821], "label": "P", "properties": {}}, {"species": [{"element": "P", "occu": 1}], "abc": [0.36743115, 0.4308202, 0.45879048], "xyz": [5.266359984428999, 3.5084135944736, 13.937008198732833], "label": "P", "properties": {}}, {"species": [{"element": "P", "occu": 1}], "abc": [0.79564018, 0.48714873, 0.54102189], "xyz": [9.42688149799081, 3.96712880886864, 16.435010849884968], "label": "P", "properties": {}}, {"species": [{"element": "P", "occu": 1}], "abc": [0.40466509, 0.72460773, 0.7385096], "xyz": [6.90937978409989, 5.90089232258064, 22.43423697467067], "label": "P", "properties": {}}, {"species": [{"element": "P", "occu": 1}], "abc": [0.44322639, 0.21524191, 0.76000649], "xyz": [5.00246536061631, 1.75283713053488, 23.08726345459514], "label": "P", "properties": {}}, {"species": [{"element": "P", "occu": 1}], "abc": [0.08219067, 0.41925875, 0.95883711], "xyz": [2.61007161589971, 3.41426214022, 29.12728412176141], "label": "P", "properties": {}}, {"species": [{"element": "O", "occu": 1}], "abc": [0.39858084, 0.70771779, 0.08408479], "xyz": [6.778905840031229, 5.7633479476747205, 2.554304107658748], "label": "O", "properties": {}}, {"species": [{"element": "O", "occu": 1}], "abc": [0.58905275, 0.08635828, 0.08147676], "xyz": [5.76264163897892, 0.70326452554304, 2.4750781056446227], "label": "O", "properties": {}}, {"species": [{"element": "O", "occu": 1}], "abc": [0.80448034, 0.21875492, 0.01666291], "xyz": [8.3172654867418, 1.7814455663545599, 0.5061811947029662], "label": "O", "properties": {}}, {"species": [{"element": "O", "occu": 1}], "abc": [0.65008881, 0.52846063, 0.02968132], "xyz": [8.280828201067349, 4.30355507572784, 0.9016507931664424], "label": "O", "properties": {}}, {"species": [{"element": "O", "occu": 1}], "abc": [0.49450225, 0.35908232, 0.02548411], "xyz": [6.10869681207448, 2.92421129051776, 0.7741491279579502], "label": "O", "properties": {}}, {"species": [{"element": "O", "occu": 1}], "abc": [0.67991951, 0.34433072, 0.09126689], "xyz": [7.73663013857696, 2.80408063280896, 2.7724799219958696], "label": "O", "properties": {}}, {"species": [{"element": "O", "occu": 1}], "abc": [0.31469273, 0.01581277, 0.057477], "xyz": [2.9441215612447698, 0.12877236776336, 1.74602014461714], "label": "O", "properties": {}}, {"species": [{"element": "O", "occu": 1}], "abc": [0.10594856, 0.62042281, 0.12708605], "xyz": [3.7192255225093698, 5.05245534198608, 3.860584292844461], "label": "O", "properties": {}}, {"species": [{"element": "O", "occu": 1}], "abc": [0.61547887, 0.82402309, 0.12031671], "xyz": [9.27559223250757, 6.7104880669851195, 3.654947185727482], "label": "O", "properties": {}}, {"species": [{"element": "O", "occu": 1}], "abc": [0.23003254, 0.35552591, 0.07679089], "xyz": [3.6776044703235096, 2.89524942384688, 2.3327320643575495], "label": "O", "properties": {}}, {"species": [{"element": "O", "occu": 1}], "abc": [0.10945978, 0.94363087, 0.10722087], "xyz": [5.18474891088607, 7.68452215674416, 3.257125440495773], "label": "O", "properties": {}}, {"species": [{"element": "O", "occu": 1}], "abc": [0.61440538, 0.53402163, 0.16159193], "xyz": [7.97960609803651, 4.3488414573758405, 4.908794213121122], "label": "O", "properties": {}}, {"species": [{"element": "O", "occu": 1}], "abc": [0.1621202, 0.86604991, 0.01966541], "xyz": [5.321601634389589, 7.0527363334788795, 0.5973902954600162], "label": "O", "properties": {}}, {"species": [{"element": "O", "occu": 1}], "abc": [0.81325642, 0.94963385, 0.1456015], "xyz": [11.63892779001961, 7.7334078325768, 4.423041426770229], "label": "O", "properties": {}}, {"species": [{"element": "O", "occu": 1}], "abc": [0.90128261, 0.49652713, 0.10185458], "xyz": [10.43327488942025, 4.04350244699984, 3.0941097917691955], "label": "O", "properties": {}}, {"species": [{"element": "O", "occu": 1}], "abc": [0.30196725, 0.75241146, 0.18749713], "xyz": [6.094784470187941, 6.12731388848928, 5.695735094696986], "label": "O", "properties": {}}, {"species": [{"element": "O", "occu": 1}], "abc": [0.75907895, 0.00087485, 0.31382495], "xyz": [6.936311255329251, 0.0071244004648, 9.533286089800558], "label": "O", "properties": {}}, {"species": [{"element": "O", "occu": 1}], "abc": [0.14788139, 0.33392597, 0.15984155], "xyz": [2.83154599223765, 2.7193488436609603, 4.855621661652971], "label": "O", "properties": {}}, {"species": [{"element": "O", "occu": 1}], "abc": [0.93238016, 0.40901389, 0.33943669], "xyz": [10.329150103056289, 3.33083242615952, 10.311312326011505], "label": "O", "properties": {}}, {"species": [{"element": "O", "occu": 1}], "abc": [0.1474008, 0.45712498, 0.2538268], "xyz": [3.37355548777362, 3.72262835912864, 7.710679159380376], "label": "O", "properties": {}}, {"species": [{"element": "O", "occu": 1}], "abc": [0.9063842, 0.30435391, 0.24416389], "xyz": [9.62756078507759, 2.47852676215088, 7.417141996417409], "label": "O", "properties": {}}, {"species": [{"element": "O", "occu": 1}], "abc": [0.99369183, 0.74483973, 0.22034715], "xyz": [12.37850794482501, 6.06565299035664, 6.693643765488362], "label": "O", "properties": {}}, {"species": [{"element": "O", "occu": 1}], "abc": [0.05229269, 0.01812473, 0.27816066], "xyz": [0.55795761310169, 0.14759997123663998, 8.449886316265621], "label": "O", "properties": {}}, {"species": [{"element": "O", "occu": 1}], "abc": [0.22128896, 0.11307013, 0.233226], "xyz": [2.5224391193160502, 0.92079429242384, 7.084873849513319], "label": "O", "properties": {}}, {"species": [{"element": "O", "occu": 1}], "abc": [0.83303625, 0.64399473, 0.26673575], "xyz": [10.46403410702097, 5.2444148753966395, 8.102823612741814], "label": "O", "properties": {}}, {"species": [{"element": "O", "occu": 1}], "abc": [0.00741832, 0.0567426, 0.19580292], "xyz": [0.31940768313556, 0.4620872215968, 5.9480460478949535], "label": "O", "properties": {}}, {"species": [{"element": "O", "occu": 1}], "abc": [0.04806005, 0.699954, 0.30301715], "xyz": [3.5432757278204, 5.700122995871999, 9.204969780337763], "label": "O", "properties": {}}, {"species": [{"element": "O", "occu": 1}], "abc": [0.40923569, 0.43264439, 0.19240368], "xyz": [5.65623825023543, 3.5232690097835198, 5.844784890973257], "label": "O", "properties": {}}, {"species": [{"element": "O", "occu": 1}], "abc": [0.6574819, 0.31895662, 0.30876125], "xyz": [7.4191780551863795, 2.5974449240201603, 9.379462435011725], "label": "O", "properties": {}}, {"species": [{"element": "O", "occu": 1}], "abc": [0.44877397, 0.94607368, 0.37490089], "xyz": [8.29443362188888, 7.70441534609024, 11.38863382178775], "label": "O", "properties": {}}, {"species": [{"element": "O", "occu": 1}], "abc": [0.95791757, 0.1276348, 0.3722636], "xyz": [9.31443399402536, 1.0394026729663999, 11.30851896772095], "label": "O", "properties": {}}, {"species": [{"element": "O", "occu": 1}], "abc": [0.49237609, 0.09049454, 0.16863169], "xyz": [4.89806854754398, 0.73694844011872, 5.1226460629614055], "label": "O", "properties": {}}, {"species": [{"element": "O", "occu": 1}], "abc": [0.58652305, 0.65611221, 0.33619124], "xyz": [8.266448065795089, 5.34309439776528, 10.212722958467136], "label": "O", "properties": {}}, {"species": [{"element": "O", "occu": 1}], "abc": [0.45937238, 0.22370469, 0.34497235], "xyz": [5.187454832224851, 1.8217543549339201, 10.479473048974626], "label": "O", "properties": {}}, {"species": [{"element": "O", "occu": 1}], "abc": [0.9511984, 0.82552746, 0.39378279], "xyz": [12.34828597034314, 6.72273900637728, 11.962222870775108], "label": "O", "properties": {}}, {"species": [{"element": "O", "occu": 1}], "abc": [0.50744816, 0.17575047, 0.25859786], "xyz": [5.41383469769591, 1.43123590347696, 7.855613078533725], "label": "O", "properties": {}}, {"species": [{"element": "O", "occu": 1}], "abc": [0.54258857, 0.58337432, 0.2460718], "xyz": [7.542609151690641, 4.75074844437376, 7.475099949931276], "label": "O", "properties": {}}, {"species": [{"element": "O", "occu": 1}], "abc": [0.1586477, 0.24311964, 0.40476811], "xyz": [2.52713718706556, 1.97986132047552, 12.29593183288283], "label": "O", "properties": {}}, {"species": [{"element": "O", "occu": 1}], "abc": [0.25623702, 0.81660005, 0.34455759], "xyz": [5.9618266568642095, 6.6500380359784, 10.466873586316844], "label": "O", "properties": {}}, {"species": [{"element": "O", "occu": 1}], "abc": [0.66040408, 0.04686739, 0.42755018], "xyz": [6.23912546241475, 0.38166777744752, 12.987999149480387], "label": "O", "properties": {}}, {"species": [{"element": "O", "occu": 1}], "abc": [0.44130526, 0.70775435, 0.41746378], "xyz": [7.169256784726029, 5.7636456765208, 12.68159732637434], "label": "O", "properties": {}}, {"species": [{"element": "O", "occu": 1}], "abc": [0.22425685, 0.57768007, 0.4822861], "xyz": [4.610130366889029, 4.70437693228976, 14.6507515365944], "label": "O", "properties": {}}, {"species": [{"element": "O", "occu": 1}], "abc": [0.38366148, 0.26217938, 0.47389921], "xyz": [4.66664947872306, 2.1350756092278402, 14.395976950400131], "label": "O", "properties": {}}, {"species": [{"element": "O", "occu": 1}], "abc": [0.53615797, 0.42983094, 0.46672133], "xyz": [6.80290193257702, 3.50035748839392, 14.177929330036429], "label": "O", "properties": {}}, {"species": [{"element": "O", "occu": 1}], "abc": [0.34390404, 0.42717145, 0.40830417], "xyz": [5.03531169826857, 3.4786997507336, 12.403349269293479], "label": "O", "properties": {}}, {"species": [{"element": "O", "occu": 1}], "abc": [0.75292863, 0.72801275, 0.43365399], "xyz": [10.10506360344219, 5.928621334492, 13.17341897339109], "label": "O", "properties": {}}, {"species": [{"element": "O", "occu": 1}], "abc": [0.83010946, 0.38634039, 0.42084855], "xyz": [9.29458471797319, 3.14618923711152, 12.78441891770471], "label": "O", "properties": {}}, {"species": [{"element": "O", "occu": 1}], "abc": [0.9067461, 0.85615444, 0.484398], "xyz": [12.07815036566196, 6.9721519006419195, 14.71490624097036], "label": "O", "properties": {}}, {"species": [{"element": "O", "occu": 1}], "abc": [0.05111268, 0.14242483, 0.58403661], "xyz": [1.09846295614371, 1.1598462879934401, 17.741699919166], "label": "O", "properties": {}}, {"species": [{"element": "O", "occu": 1}], "abc": [0.86065729, 0.76419455, 0.58145994], "xyz": [11.249385347060471, 6.223270283154401, 17.66342656241407], "label": "O", "properties": {}}, {"species": [{"element": "O", "occu": 1}], "abc": [0.64558577, 0.63147259, 0.51656748], "xyz": [8.696570552360269, 5.14243997680112, 15.692141658995972], "label": "O", "properties": {}}, {"species": [{"element": "O", "occu": 1}], "abc": [0.79977937, 0.32182094, 0.52956822], "xyz": [8.73143996601022, 2.6207707087139203, 16.0870744831679], "label": "O", "properties": {}}, {"species": [{"element": "O", "occu": 1}], "abc": [0.95564042, 0.49101561, 0.52552469], "xyz": [10.90526372678825, 3.99861900909648, 15.964241265787665], "label": "O", "properties": {}}, {"species": [{"element": "O", "occu": 1}], "abc": [0.76983036, 0.50590362, 0.59118693], "xyz": [9.274348070929861, 4.11986053091616, 17.95891032959902], "label": "O", "properties": {}}, {"species": [{"element": "O", "occu": 1}], "abc": [0.1355294, 0.83393118, 0.55760859], "xyz": [4.9363067282022195, 6.79117527165024, 16.938876958636662], "label": "O", "properties": {}}, {"species": [{"element": "O", "occu": 1}], "abc": [0.34441144, 0.22905864, 0.62693869], "xyz": [4.16129767976968, 1.86535461082752, 19.044967242199146], "label": "O", "properties": {}}, {"species": [{"element": "O", "occu": 1}], "abc": [0.8340371, 0.0265268, 0.62041157], "xyz": [7.73464933361, 0.2160227996224, 18.84668822613475], "label": "O", "properties": {}}, {"species": [{"element": "O", "occu": 1}], "abc": [0.21969758, 0.49430948, 0.57684], "xyz": [4.1987359898387595, 4.02544286342464, 17.523083324128798], "label": "O", "properties": {}}, {"species": [{"element": "O", "occu": 1}], "abc": [0.34025236, 0.90641802, 0.60727838], "xyz": [7.127463235047459, 7.38147678229536, 18.44773187310511], "label": "O", "properties": {}}, {"species": [{"element": "O", "occu": 1}], "abc": [0.83518839, 0.31637201, 0.66150991], "xyz": [9.030653008551209, 2.57639697673168, 20.095162042623507], "label": "O", "properties": {}}, {"species": [{"element": "O", "occu": 1}], "abc": [0.28747511, 0.9841146, 0.5196777], "xyz": [6.990056324595079, 8.0142041648928, 15.786623047624314], "label": "O", "properties": {}}, {"species": [{"element": "O", "occu": 1}], "abc": [0.63644573, 0.90054921, 0.64555855], "xyz": [9.80647617625193, 7.33368372898128, 19.610596113746908], "label": "O", "properties": {}}, {"species": [{"element": "O", "occu": 1}], "abc": [0.54833463, 0.35397116, 0.60181505], "xyz": [6.577662693418681, 2.88258821149888, 18.281768370544242], "label": "O", "properties": {}}, {"species": [{"element": "O", "occu": 1}], "abc": [0.14768112, 0.09786971, 0.68748092], "xyz": [1.7827864667047497, 0.79700863852528, 20.884102081874914], "label": "O", "properties": {}}, {"species": [{"element": "O", "occu": 1}], "abc": [0.69122808, 0.84902354, 0.81372065], "xyz": [10.0782653544741, 6.91408093159072, 24.71897710372763], "label": "O", "properties": {}}, {"species": [{"element": "O", "occu": 1}], "abc": [0.30199492, 0.51556179, 0.65983602], "xyz": [5.04458780559427, 4.19851249506672, 20.044313082867895], "label": "O", "properties": {}}, {"species": [{"element": "O", "occu": 1}], "abc": [0.51789242, 0.44100331, 0.83939265], "xyz": [6.68563881856955, 3.59134044321008, 25.498833901274672], "label": "O", "properties": {}}, {"species": [{"element": "O", "occu": 1}], "abc": [0.30203311, 0.39301499, 0.7538858], "xyz": [4.5014306182837895, 3.20054429608432, 22.901330854790757], "label": "O", "properties": {}}, {"species": [{"element": "O", "occu": 1}], "abc": [0.54365873, 0.54545455, 0.74408752], "xyz": [7.384205034271189, 4.4419462188344, 22.603681460031126], "label": "O", "properties": {}}, {"species": [{"element": "O", "occu": 1}], "abc": [0.45600197, 0.10555572, 0.72023265], "xyz": [4.6326727320544405, 0.8596001836089601, 21.879024926683474], "label": "O", "properties": {}}, {"species": [{"element": "O", "occu": 1}], "abc": [0.39792192, 0.83151186, 0.77811982], "xyz": [7.3219258473765, 6.77147337471648, 23.63750510022901], "label": "O", "properties": {}}, {"species": [{"element": "O", "occu": 1}], "abc": [0.22860612, 0.73683546, 0.73319826], "xyz": [5.3557192123065, 6.00046967332128, 22.272890581593252], "label": "O", "properties": {}}, {"species": [{"element": "O", "occu": 1}], "abc": [0.61666981, 0.20629575, 0.76666781], "xyz": [6.54679298532103, 1.679983468236, 23.28961916052518], "label": "O", "properties": {}}, {"species": [{"element": "O", "occu": 1}], "abc": [0.44237794, 0.79320197, 0.69573327], "xyz": [7.55802103602805, 6.45949418042896, 21.13478964977914], "label": "O", "properties": {}}, {"species": [{"element": "O", "occu": 1}], "abc": [0.40205776, 0.1497186, 0.80290591], "xyz": [4.33588339601428, 1.2192435999648001, 24.390449972896224], "label": "O", "properties": {}}, {"species": [{"element": "O", "occu": 1}], "abc": [0.04104516, 0.41736743, 0.69205794], "xyz": [2.2259143379413495, 3.3988600471902397, 21.02314150846843], "label": "O", "properties": {}}, {"species": [{"element": "O", "occu": 1}], "abc": [0.79216498, 0.53113963, 0.80899647], "xyz": [9.59024713734331, 4.3253716943998395, 24.575467292032563], "label": "O", "properties": {}}, {"species": [{"element": "O", "occu": 1}], "abc": [0.00275285, 0.90356409, 0.87511924], "xyz": [4.032528076514811, 7.3582356092731205, 26.584126206692094], "label": "O", "properties": {}}, {"species": [{"element": "O", "occu": 1}], "abc": [0.49178437, 0.72253475, 0.87239732], "xyz": [7.69581913632931, 5.884010868988, 26.501440486281563], "label": "O", "properties": {}}, {"species": [{"element": "O", "occu": 1}], "abc": [0.95726519, 0.76001758, 0.66865589], "xyz": [12.11314992239534, 6.18925484392544, 20.31224061375685], "label": "O", "properties": {}}, {"species": [{"element": "O", "occu": 1}], "abc": [0.86454864, 0.19308827, 0.83595489], "xyz": [8.752016652250349, 1.5724274567473602, 25.39440259462403], "label": "O", "properties": {}}, {"species": [{"element": "O", "occu": 1}], "abc": [0.99113897, 0.6265125, 0.84483558], "xyz": [11.83040167476386, 5.1020471466, 25.664177698371613], "label": "O", "properties": {}}, {"species": [{"element": "O", "occu": 1}], "abc": [0.49936378, 0.02428839, 0.8936938], "xyz": [4.66825477255735, 0.19779415557552, 27.148378967577315], "label": "O", "properties": {}}, {"species": [{"element": "O", "occu": 1}], "abc": [0.94210886, 0.67351091, 0.75844288], "xyz": [11.59106710873667, 5.48478189432688, 23.039764549671002], "label": "O", "properties": {}}, {"species": [{"element": "O", "occu": 1}], "abc": [0.90721126, 0.26774341, 0.74597704], "xyz": [9.47274324018037, 2.1803866658868802, 22.661080767295893], "label": "O", "properties": {}}, {"species": [{"element": "O", "occu": 1}], "abc": [0.29189394, 0.60591544, 0.9048392], "xyz": [5.35306518598488, 4.93431358788992, 27.486950794913742], "label": "O", "properties": {}}, {"species": [{"element": "O", "occu": 1}], "abc": [0.19432373, 0.03404433, 0.84456221], "xyz": [1.92568763058161, 0.27724231636943997, 25.65587334137779], "label": "O", "properties": {}}, {"species": [{"element": "O", "occu": 1}], "abc": [0.78975359, 0.80232357, 0.92743807], "xyz": [10.77094957409765, 6.53377655029776, 28.173452913423475], "label": "O", "properties": {}}, {"species": [{"element": "O", "occu": 1}], "abc": [0.0086554, 0.14305312, 0.91737382], "xyz": [0.71350038664288, 1.16496281033216, 27.86772395678929], "label": "O", "properties": {}}, {"species": [{"element": "O", "occu": 1}], "abc": [0.22578668, 0.27229973, 0.98220902], "xyz": [3.2697128402218096, 2.21749136763664, 29.837269432027753], "label": "O", "properties": {}}, {"species": [{"element": "O", "occu": 1}], "abc": [0.06627371, 0.58781137, 0.97391166], "xyz": [3.21225285719441, 4.78688186276816, 29.58521456299944], "label": "O", "properties": {}}, {"species": [{"element": "O", "occu": 1}], "abc": [0.91374143, 0.42002787, 0.96696483], "xyz": [10.20777637879427, 3.4205255212401604, 29.374185714569098], "label": "O", "properties": {}}, {"species": [{"element": "O", "occu": 1}], "abc": [0.10504845, 0.42312728, 0.90830699], "xyz": [2.83598186386152, 3.44576577733504, 27.59229434446055], "label": "O", "properties": {}}, {"species": [{"element": "O", "occu": 1}], "abc": [0.6980032, 0.1210325, 0.93367784], "xyz": [6.9114353579941, 0.98563639396, 28.363002891984948], "label": "O", "properties": {}}, {"species": [{"element": "O", "occu": 1}], "abc": [0.62057557, 0.46308883, 0.92073627], "xyz": [7.721363237188029, 3.7711953771454403, 27.9698675174356], "label": "O", "properties": {}}, {"species": [{"element": "O", "occu": 1}], "abc": [0.54349359, 0.99361291, 0.98434083], "xyz": [9.37031907486891, 8.09155429826288, 29.902028956785422], "label": "O", "properties": {}}]}, "formula": "(Na3Zr2Si2PO12)8.0", "bandgap": 4.292}