{"miller": "100_0.23", "final_energy": -1207.66375604, "sigma": 0.05786234090922975, "incar_parameters": {"SYSTEM": "unknown system", "LCOMPAT": false, "PREC": "normal", "ENMAX": 520.0, "ENAUG": 605.392, "EDIFF": 1e-05, "IALGO": 38, "IWAVPR": 11, "NBANDS": 624, "NBANDSLOW": -1, "NBANDSHIGH": -1, "NELECT": 1040.0, "TURBO": 0, "IRESTART": 0, "NREBOOT": 0, "NMIN": 0, "EREF": 0.0, "ISMEAR": 0, "SIGMA": 0.05, "KSPACING": 0.5, "KGAMMA": true, "KBLOWUP": true, "LREAL": true, "ROPT": [-0.0005, -0.0005, -0.0005, -0.0005, -0.0005], "LMAXPAW": -100, "LMAXMIX": 4, "NLSPLINE": false, "ISTART": 0, "ICHARG": 2, "INIWAV": 1, "ISPIN": 1, "LNONCOLLINEAR": false, "MAGMOM": [0.6, 0.6, 0.6, 0.6, 0.6, 0.6, 0.6, 0.6, 0.6, 0.6, 0.6, 0.6, 0.6, 0.6, 0.6, 0.6, 0.6, 0.6, 0.6, 0.6, 0.6, 0.6, 0.6, 0.6, 0.6, 0.6, 0.6, 0.6, 0.6, 0.6, 0.6, 0.6, 0.6, 0.6, 0.6, 0.6, 0.6, 0.6, 0.6, 0.6, 0.6, 0.6, 0.6, 0.6, 0.6, 0.6, 0.6, 0.6, 0.6, 0.6, 0.6, 0.6, 0.6, 0.6, 0.6, 0.6, 0.6, 0.6, 0.6, 0.6, 0.6, 0.6, 0.6, 0.6, 0.6, 0.6, 0.6, 0.6, 0.6, 0.6, 0.6, 0.6, 0.6, 0.6, 0.6, 0.6, 0.6, 0.6, 0.6, 0.6, 0.6, 0.6, 0.6, 0.6, 0.6, 0.6, 0.6, 0.6, 0.6, 0.6, 0.6, 0.6, 0.6, 0.6, 0.6, 0.6, 0.6, 0.6, 0.6, 0.6, 0.6, 0.6, 0.6, 0.6, 0.6, 0.6, 0.6, 0.6, 0.6, 0.6, 0.6, 0.6, 0.6, 0.6, 0.6, 0.6, 0.6, 0.6, 0.6, 0.6, 0.6, 0.6, 0.6, 0.6, 0.6, 0.6, 0.6, 0.6, 0.6, 0.6, 0.6, 0.6, 0.6, 0.6, 0.6, 0.6, 0.6, 0.6, 0.6, 0.6, 0.6, 0.6, 0.6, 0.6, 0.6, 0.6, 0.6, 0.6, 0.6, 0.6, 0.6, 0.6, 0.6, 0.6, 0.6, 0.6, 0.6, 0.6, 0.6, 0.6], "NUPDOWN": -1.0, "LSORBIT": false, "SAXIS": [0.0, 0.0, 1.0], "LSPIRAL": false, "QSPIRAL": [0.0, 0.0, 0.0], "LZEROZ": false, "LASPH": false, "LMETAGGA": false, "NELM": 100, "NELMDL": -5, "NELMIN": 6, "ENINI": 520.0, "LDIAG": true, "LSUBROT": false, "WEIMIN": 0.001, "EBREAK": 0.0, "DEPER": 0.3, "NRMM": 4, "TIME": 0.4, "AMIX": 0.4, "BMIX": 1.0, "AMIN": 0.1, "AMIX_MAG": 1.6, "BMIX_MAG": 1.0, "IMIX": 4, "MIXFIRST": false, "MAXMIX": -45, "WC": 100.0, "INIMIX": 1, "MIXPRE": 1, "MREMOVE": 5, "LDIPOL": false, "LMONO": false, "IDIPOL": 0, "EPSILON": 1.0, "DIPOL": [-100.0, -100.0, -100.0], "EFIELD": 0.0, "NGX": 54, "NGY": 54, "NGZ": 180, "NGXF": 108, "NGYF": 108, "NGZF": 360, "ADDGRID": false, "NSW": 150, "IBRION": 2, "MDALGO": 0, "ISIF": 3, "PSTRESS": 0.0, "EDIFFG": -0.01, "NFREE": 1, "POTIM": 0.5, "SMASS": -3.0, "SCALEE": 1.0, "TEBEG": 0.0001, "TEEND": 0.0001, "NBLOCK": 1, "KBLOCK": 150, "NPACO": 256, "APACO": 10.0, "ISYM": 0, "SYMPREC": 1e-05, "LORBIT": 11, "RWIGS": [-1.0, -1.0, -1.0, -1.0, -1.0], "NEDOS": 301, "EMIN": 10.0, "EMAX": -10.0, "EFERMI": 0.0, "NWRITE": 2, "LWAVE": false, "LDOWNSAMPLE": false, "LCHARG": false, "LPARD": false, "LVTOT": false, "LVHAR": false, "LELF": false, "LOPTICS": false, "STM": [0.0, 0.0, 0.0, 0.0, 0.0, 0.0, 0.0], "NPAR": 2, "NSIM": 4, "NBLK": -1, "LPLANE": true, "LSCALAPACK": true, "LSCAAWARE": false, "LSCALU": false, "LASYNC": false, "LORBITALREAL": false, "IDIOT": 3, "PHON_NSTRUCT": -1, "LMUSIC": false, "POMASS": [22.99, 91.224, 28.085, 30.974, 16.0], "DARWINR": [0.0, 0.0, 0.0, 0.0, 0.0], "DARWINV": [1.0, 1.0, 1.0, 1.0, 1.0], "LCORR": true, "GGA_COMPAT": true, "LBERRY": false, "ICORELEVEL": 0, "LDAU": false, "I_CONSTRAINED_M": 0, "GGA": "--", "VOSKOWN": 0, "LHFCALC": false, "PRECFOCK": "", "LSYMGRAD": false, "LHFONE": false, "LRHFCALC": false, "LTHOMAS": false, "LMODELHF": false, "LFOCKACE": false, "ENCUT4O": -1.0, "EXXOEP": 0, "FOURORBIT": 0, "AEXX": 0.0, "HFALPHA": 0.0, "MCALPHA": 0.0, "ALDAX": 1.0, "AGGAX": 1.0, "ALDAC": 1.0, "AGGAC": 1.0, "NKREDX": 1, "NKREDY": 1, "NKREDZ": 1, "SHIFTRED": false, "ODDONLY": false, "EVENONLY": false, "LMAXFOCK": 0, "NMAXFOCKAE": 0, "LFOCKAEDFT": false, "HFSCREEN": 0.0, "HFSCREENC": 0.0, "NBANDSGWLOW": 0, "LUSE_VDW": false, "Zab_VDW": -0.8491, "PARAM1": 0.1234, "PARAM2": 1.0, "PARAM3": 0.0, "MODEL_GW": 0, "MODEL_EPS0": 8.47414523, "MODEL_ALPHA": 1.0, "LEPSILON": false, "LRPA": false, "LNABLA": false, "LVEL": false, "CSHIFT": 0.1, "OMEGAMAX": -1.0, "DEG_THRESHOLD": 0.002, "RTIME": -0.1, "WPLASMAI": 0.0, "DFIELD": [0.0, 0.0, 0.0], "WPLASMA": [0.0, 0.0, 0.0, 0.0, 0.0, 0.0, 0.0, 0.0, 0.0], "NUCIND": false, "MAGPOS": [0.0, 0.0, 0.0], "LNICSALL": true, "ORBITALMAG": false, "LMAGBLOCH": false, "LCHIMAG": false, "LGAUGE": true, "MAGATOM": 0, "MAGDIPOL": [0.0, 0.0, 0.0], "AVECCONST": [0.0, 0.0, 0.0], "LFINITE_TEMPERATURE": false, "LADDER": false, "LRPAFORCE": false, "LFXC": false, "LHARTREE": true, "IBSE": 0, "KPOINT": [-1, 0, 0, 0], "LTCTC": false, "LTCTE": false, "LTETE": false, "LTRIPLET": false, "LFXCEPS": false, "LFXHEG": false, "NATURALO": 2, "LHOLEGF": false, "L2ORDER": false, "LDMP1": false, "LMP2LT": false, "LSMP2LT": false, "LGWLF": false, "ENCUTGW": -2.0, "ENCUTGWSOFT": -2.0, "ENCUTLF": -1.0, "LESF_SPLINES": false, "LMAXMP2": -1, "SCISSOR": 0.0, "NOMEGA": 0, "NOMEGAR": 0, "NBANDSGW": -1, "NBANDSO": -1, "NBANDSV": -1, "NELMGW": 1, "NELMHF": 1, "DIM": 3, "IESPILON": 4, "ANTIRES": 0, "OMEGAMIN": -30.0, "OMEGATL": -200.0, "OMEGAGRID": 0, "LSELFENERGY": false, "LSPECTRAL": false, "LSPECTRALGW": false, "LSINGLES": false, "LFERMIGW": false, "ODDONLYGW": false, "EVENONLYGW": false, "NKREDLFX": 1, "NKREDLFY": 1, "NKREDLFZ": 1, "MAXMEM": 2800, "TELESCOPE": 0, "NTAUPAR": -1, "NOMEGAPAR": -1, "DAMP_NEWTON": 0.80000001, "LAMBDA": 1.0, "OFIELD_KAPPA": 0.0, "OFIELD_K": [0.0, 0.0, 0.0], "OFIELD_Q6_NEAR": 0.0, "OFIELD_Q6_FAR": 0.0, "OFIELD_A": 0.0, "KPOINTS_OPT_MODE": 1, "LKPOINTS_OPT": false, "@module": "pymatgen.io.vasp.inputs", "@class": "Incar"}, "relaxed_structures": {"@module": "pymatgen.core.structure", "@class": "Structure", "charge": 0, "lattice": {"matrix": [[9.132688, 0.0, 0.0], [4.435089, 8.143568, 0.0], [0.0, 0.0, 30.38489183]], "a": 9.132688, "b": 9.27295606635473, "c": 30.38489183, "alpha": 90.0, "beta": 90.0, "gamma": 61.42673605530538, "volume": 2259.8054039463173}, "sites": [{"species": [{"element": "Na", "occu": 1}], "abc": [0.26090101, 0.57934411, 0.99586491], "xyz": [4.952170212690669, 4.71792815518448, 30.259247567642685], "label": "Na", "properties": {}}, {"species": [{"element": "Na", "occu": 1}], "abc": [0.84019543, 0.26061838, 0.1527156], "xyz": [8.82910843155166, 2.1223634995798397, 4.6402469867535485], "label": "Na", "properties": {}}, {"species": [{"element": "Na", "occu": 1}], "abc": [0.85158774, 0.9631331, 0.05917136], "xyz": [12.04886615139102, 7.8433398929008, 1.7979153730339887], "label": "Na", "properties": {}}, {"species": [{"element": "Na", "occu": 1}], "abc": [0.26290712, 0.96789823, 0.15446752], "xyz": [6.693763492931029, 7.88214505308464, 4.693478886448362], "label": "Na", "properties": {}}, {"species": [{"element": "Na", "occu": 1}], "abc": [0.36473039, 0.42423903, 0.1122111], "xyz": [5.21250671131199, 3.45481938905904, 3.4095221356253127], "label": "Na", "properties": {}}, {"species": [{"element": "Na", "occu": 1}], "abc": [0.30068436, 0.8053765, 0.26975491], "xyz": [6.317972902368179, 6.558638293352001, 8.196473760961386], "label": "Na", "properties": {}}, {"species": [{"element": "Na", "occu": 1}], "abc": [0.67943584, 0.92022271, 0.22605936], "xyz": [10.286345161409109, 7.49389621402928, 6.8687892007590285], "label": "Na", "properties": {}}, {"species": [{"element": "Na", "occu": 1}], "abc": [0.16624956, 0.81745375, 0.46669229], "xyz": [5.143785496251029, 6.65699019998, 14.180394749544991], "label": "Na", "properties": {}}, {"species": [{"element": "Na", "occu": 1}], "abc": [0.15214315, 0.43803405, 0.34329667], "xyz": [3.33219591706765, 3.5671600724904002, 10.431032183549208], "label": "Na", "properties": {}}, {"species": [{"element": "Na", "occu": 1}], "abc": [0.61727678, 0.26966404, 0.3878224], "xyz": [6.833380258884199, 2.19602744689472, 11.783941673250993], "label": "Na", "properties": {}}, {"species": [{"element": "Na", "occu": 1}], "abc": [0.7286872, 0.7384592, 0.34571236], "xyz": [9.930005122062399, 6.0136927104256, 10.504432662894018], "label": "Na", "properties": {}}, {"species": [{"element": "Na", "occu": 1}], "abc": [0.66064279, 0.13781702, 0.49387686], "xyz": [6.6446752299343, 1.1223222739273602, 15.006394968440054], "label": "Na", "properties": {}}, {"species": [{"element": "Na", "occu": 1}], "abc": [0.11433661, 0.22059154, 0.49605161], "xyz": [2.02254369865474, 1.79640220621472, 15.072474511947346], "label": "Na", "properties": {}}, {"species": [{"element": "Na", "occu": 1}], "abc": [0.53434792, 0.53900734, 0.65285909], "xyz": [7.270578361362219, 4.38944292578912, 19.837052829882236], "label": "Na", "properties": {}}, {"species": [{"element": "Na", "occu": 1}], "abc": [0.5234064, 0.8365321, 0.55929846], "xyz": [8.4902016632601, 6.8123560405328005, 16.994223207785584], "label": "Na", "properties": {}}, {"species": [{"element": "Na", "occu": 1}], "abc": [0.11180549, 0.83227521, 0.65447931], "xyz": [4.71229928570081, 6.777689767349281, 19.88628303932304], "label": "Na", "properties": {}}, {"species": [{"element": "Na", "occu": 1}], "abc": [0.00941084, 0.37701327, 0.61247747], "xyz": [1.7580336721689498, 3.07023320114736, 18.61006167426207], "label": "Na", "properties": {}}, {"species": [{"element": "Na", "occu": 1}], "abc": [0.07393164, 0.99474962, 0.76991946], "xyz": [5.0869976988645, 8.10081117344416, 23.393919509912013], "label": "Na", "properties": {}}, {"species": [{"element": "Na", "occu": 1}], "abc": [0.69580676, 0.88139632, 0.72601733], "xyz": [10.26365717084336, 7.17771086686976, 22.059958038755415], "label": "Na", "properties": {}}, {"species": [{"element": "Na", "occu": 1}], "abc": [0.20962402, 0.98164415, 0.96660652], "xyz": [6.2681099435451095, 7.9940858873272, 29.370234552372732], "label": "Na", "properties": {}}, {"species": [{"element": "Na", "occu": 1}], "abc": [0.22268713, 0.36241023, 0.8431054], "xyz": [3.64105370446591, 2.95131235190064, 25.61766638028888], "label": "Na", "properties": {}}, {"species": [{"element": "Na", "occu": 1}], "abc": [0.75873497, 0.52902459, 0.88756858], "xyz": [9.27556089553787, 4.30814772233712, 26.968675295006705], "label": "Na", "properties": {}}, {"species": [{"element": "Na", "occu": 1}], "abc": [0.64608651, 0.06176051, 0.84582108], "xyz": [6.174419875374269, 0.50295091289968, 25.700182023333777], "label": "Na", "properties": {}}, {"species": [{"element": "Na", "occu": 1}], "abc": [0.71495578, 0.66160513, 0.99387265], "xyz": [9.463745706943211, 5.38782636530384, 30.198712963045452], "label": "Na", "properties": {}}, {"species": [{"element": "Zr", "occu": 1}], "abc": [0.35819149, 0.14511345, 0.03770588], "xyz": [3.91484218827217, 1.1817412477896, 1.1456890851549604], "label": "Zr", "properties": {}}, {"species": [{"element": "Zr", "occu": 1}], "abc": [0.02678338, 0.7998091, 0.16039112], "xyz": [3.79182879463534, 6.513299792868801, 4.87346683169255], "label": "Zr", "properties": {}}, {"species": [{"element": "Zr", "occu": 1}], "abc": [0.60837875, 0.58276575, 0.10236964], "xyz": [8.14075127698175, 4.745792513196, 3.110490438076041], "label": "Zr", "properties": {}}, {"species": [{"element": "Zr", "occu": 1}], "abc": [0.2868184, 0.25228612, 0.21056251], "xyz": [3.7383343555238797, 2.05450917367616, 6.397919089803294], "label": "Zr", "properties": {}}, {"species": [{"element": "Zr", "occu": 1}], "abc": [0.70191313, 0.45101754, 0.29028828], "xyz": [8.410656549854501, 3.67289200618272, 8.820377987316753], "label": "Zr", "properties": {}}, {"species": [{"element": "Zr", "occu": 1}], "abc": [0.37717986, 0.12760836, 0.40331972], "xyz": [4.01062041500772, 1.03918735702848, 12.254826065105888], "label": "Zr", "properties": {}}, {"species": [{"element": "Zr", "occu": 1}], "abc": [0.96519289, 0.8993769, 0.33819367], "xyz": [12.803622120232419, 7.324136942779201, 10.275978080540716], "label": "Zr", "properties": {}}, {"species": [{"element": "Zr", "occu": 1}], "abc": [0.6177967, 0.55853028, 0.44955957], "xyz": [8.119276009524519, 4.548429315239041, 13.659818905591314], "label": "Zr", "properties": {}}, {"species": [{"element": "Zr", "occu": 1}], "abc": [0.0168793, 0.6546888, 0.53777391], "xyz": [3.0577564758615994, 5.3315027616384, 16.340202084346156], "label": "Zr", "properties": {}}, {"species": [{"element": "Zr", "occu": 1}], "abc": [0.3481406, 6.821e-05, 0.66049463], "xyz": [3.17976199735349, 0.00055547277328, 20.069057886845872], "label": "Zr", "properties": {}}, {"species": [{"element": "Zr", "occu": 1}], "abc": [0.76663913, 0.21744524, 0.60237063], "xyz": [7.9658649749078, 1.7707800982163202, 18.302966434118954], "label": "Zr", "properties": {}}, {"species": [{"element": "Zr", "occu": 1}], "abc": [0.08814966, 0.54786293, 0.71064157], "xyz": [3.23486419643685, 4.46155902513424, 21.59276723435137], "label": "Zr", "properties": {}}, {"species": [{"element": "Zr", "occu": 1}], "abc": [0.67277733, 0.34911562, 0.7902978], "xyz": [7.6926242943532195, 2.84304679133216, 24.013113166486978], "label": "Zr", "properties": {}}, {"species": [{"element": "Zr", "occu": 1}], "abc": [0.99796373, 0.67219067, 0.90322826], "xyz": [12.095316827825869, 5.4740304301105605, 27.444492977899117], "label": "Zr", "properties": {}}, {"species": [{"element": "Zr", "occu": 1}], "abc": [0.40967674, 0.90066422, 0.83829911], "xyz": [7.7359758220926995, 7.334620320736961, 25.47162777853527], "label": "Zr", "properties": {}}, {"species": [{"element": "Zr", "occu": 1}], "abc": [0.75744515, 0.24142071, 0.94968375], "xyz": [7.988232567356389, 1.9660259684932802, 28.856038016458765], "label": "Zr", "properties": {}}, {"species": [{"element": "Si", "occu": 1}], "abc": [0.20832098, 0.8560846, 0.06533792], "xyz": [5.69934190672364, 6.9715831538528, 1.9852856315971934], "label": "Si", "properties": {}}, {"species": [{"element": "Si", "occu": 1}], "abc": [0.05450976, 0.42710974, 0.11578076], "xyz": [2.3920903407017398, 3.4781972111523203, 3.517985868595191], "label": "Si", "properties": {}}, {"species": [{"element": "Si", "occu": 1}], "abc": [0.59057968, 0.96723075, 0.12912164], "xyz": [9.68333441636659, 7.876709384316, 3.9233470643122015], "label": "Si", "properties": {}}, {"species": [{"element": "Si", "occu": 1}], "abc": [0.43079138, 0.54859024, 0.19807169], "xyz": [6.3673298055608, 4.467481923576321, 6.018386875235293], "label": "Si", "properties": {}}, {"species": [{"element": "Si", "occu": 1}], "abc": [0.5587904, 0.15370643, 0.30477391], "xyz": [5.78496007751747, 1.25171876474224, 9.260522287956155], "label": "Si", "properties": {}}, {"species": [{"element": "Si", "occu": 1}], "abc": [0.39272218, 0.75541987, 0.36713546], "xyz": [6.93696349643827, 6.15181307989616, 11.155371239057294], "label": "Si", "properties": {}}, {"species": [{"element": "Si", "occu": 1}], "abc": [0.9408207, 0.26465374, 0.38294866], "xyz": [9.765984808124461, 2.15522572814432, 11.635853610543448], "label": "Si", "properties": {}}, {"species": [{"element": "Si", "occu": 1}], "abc": [0.78691681, 0.83619978, 0.43564241], "xyz": [10.8952861537657, 6.80964977001504, 13.23694750441051], "label": "Si", "properties": {}}, {"species": [{"element": "Si", "occu": 1}], "abc": [0.1666146, 0.94385463, 0.56538537], "xyz": [5.707718445156869, 7.686344361519841, 17.17917330971453], "label": "Si", "properties": {}}, {"species": [{"element": "Si", "occu": 1}], "abc": [0.32065906, 0.37267166, 0.61594628], "xyz": [4.58131112923102, 3.03487700488288, 18.71546109089089], "label": "Si", "properties": {}}, {"species": [{"element": "Si", "occu": 1}], "abc": [0.7842339, 0.83306497, 0.62913558], "xyz": [10.856880812455529, 6.784121231612961, 19.11621654470431], "label": "Si", "properties": {}}, {"species": [{"element": "Si", "occu": 1}], "abc": [0.94423616, 0.25118985, 0.69811406], "xyz": [9.73746358824473, 2.0455816243848, 21.21212019810213], "label": "Si", "properties": {}}, {"species": [{"element": "Si", "occu": 1}], "abc": [0.81595184, 0.64674134, 0.8046403], "xyz": [10.32018898062518, 5.2667820807011205, 24.44890847755875], "label": "Si", "properties": {}}, {"species": [{"element": "Si", "occu": 1}], "abc": [0.98207652, 0.04471921, 0.86727925], "xyz": [9.16733212564545, 0.36417392754128003, 26.352186197653527], "label": "Si", "properties": {}}, {"species": [{"element": "Si", "occu": 1}], "abc": [0.43433384, 0.53520813, 0.88297071], "xyz": [6.34033113863549, 4.35850380080784, 26.828969512408303], "label": "Si", "properties": {}}, {"species": [{"element": "Si", "occu": 1}], "abc": [0.58879271, 0.96329006, 0.93571825], "xyz": [9.64953726601982, 7.84461810733408, 28.4316978096069], "label": "Si", "properties": {}}, {"species": [{"element": "P", "occu": 1}], "abc": [0.61661318, 0.3390314, 0.04094346], "xyz": [7.13497022242244, 2.7609252600352, 1.2440626032459319], "label": "P", "properties": {}}, {"species": [{"element": "P", "occu": 1}], "abc": [0.00871736, 0.099751, 0.23863092], "xyz": [0.52201749190268, 0.8123290515680001, 7.250774691493383], "label": "P", "properties": {}}, {"species": [{"element": "P", "occu": 1}], "abc": [0.9697245, 0.60930511, 0.25990152], "xyz": [11.558513695460789, 4.96191759603248, 7.897079571652582], "label": "P", "properties": {}}, {"species": [{"element": "P", "occu": 1}], "abc": [0.33083885, 0.40479696, 0.45880829], "xyz": [4.81675853985824, 3.2964915699532797, 13.940840262357272], "label": "P", "properties": {}}, {"species": [{"element": "P", "occu": 1}], "abc": [0.75807938, 0.46125726, 0.54090173], "xyz": [8.96901945676958, 3.75627986230368, 16.435240556709864], "label": "P", "properties": {}}, {"species": [{"element": "P", "occu": 1}], "abc": [0.36576533, 0.7005331, 0.73869274], "xyz": [6.44734728605294, 5.7048389361008, 22.445099000506314], "label": "P", "properties": {}}, {"species": [{"element": "P", "occu": 1}], "abc": [0.40494391, 0.19067221, 0.75999707], "xyz": [4.54387460870677, 1.5527521078452802, 23.09242876306694], "label": "P", "properties": {}}, {"species": [{"element": "P", "occu": 1}], "abc": [0.04484039, 0.39474948, 0.95869719], "xyz": [2.16026236817204, 3.21466923334464, 29.129910415874956], "label": "P", "properties": {}}, {"species": [{"element": "O", "occu": 1}], "abc": [0.36216275, 0.68316514, 0.08427137], "xyz": [6.337417598569459, 5.563401772819519, 2.560576461815907], "label": "O", "properties": {}}, {"species": [{"element": "O", "occu": 1}], "abc": [0.11262287, 0.30799203, 0.15961466], "xyz": [2.3945215977152303, 2.50815403976304, 4.849874178582228], "label": "O", "properties": {}}, {"species": [{"element": "O", "occu": 1}], "abc": [0.55170413, 0.0621327, 0.08148703], "xyz": [5.314105741911739, 0.5059818674736, 2.475974592097965], "label": "O", "properties": {}}, {"species": [{"element": "O", "occu": 1}], "abc": [0.76652663, 0.19464669, 0.01645933], "xyz": [7.86372394918685, 1.5851185559899201, 0.5001149616442739], "label": "O", "properties": {}}, {"species": [{"element": "O", "occu": 1}], "abc": [0.61279382, 0.50426289, 0.02957987], "xyz": [7.8329055629353705, 4.1064991345915205, 0.8987811502954621], "label": "O", "properties": {}}, {"species": [{"element": "O", "occu": 1}], "abc": [0.45661132, 0.3353394, 0.02542387], "xyz": [5.65734880703476, 2.7308592069792, 0.7725015398499822], "label": "O", "properties": {}}, {"species": [{"element": "O", "occu": 1}], "abc": [0.64281591, 0.31981783, 0.09108789], "xyz": [7.28905768730295, 2.6044582462174404, 2.767695684672939], "label": "O", "properties": {}}, {"species": [{"element": "O", "occu": 1}], "abc": [0.27774582, 0.99144643, 0.05757467], "xyz": [6.933719073146429, 8.07391142106224, 1.749400120097946], "label": "O", "properties": {}}, {"species": [{"element": "O", "occu": 1}], "abc": [0.06901761, 0.59543094, 0.12712276], "xyz": [3.2711055108893397, 4.84893234919392, 3.862611311731051], "label": "O", "properties": {}}, {"species": [{"element": "O", "occu": 1}], "abc": [0.58029372, 0.79856268, 0.12006347], "xyz": [8.84133805099788, 6.50314948684224, 3.6481155486844505], "label": "O", "properties": {}}, {"species": [{"element": "O", "occu": 1}], "abc": [0.45687378, 0.063993, 0.16877535], "xyz": [4.45630033849764, 0.521131347024, 5.128220753320391], "label": "O", "properties": {}}, {"species": [{"element": "O", "occu": 1}], "abc": [0.19319261, 0.33138372, 0.0765895], "xyz": [3.2340841223867596, 2.69864585791296, 2.3271636728137852], "label": "O", "properties": {}}, {"species": [{"element": "O", "occu": 1}], "abc": [0.07315139, 0.91884195, 0.10740258], "xyz": [4.74321464681987, 7.482651901077601, 3.2634157755629216], "label": "O", "properties": {}}, {"species": [{"element": "O", "occu": 1}], "abc": [0.57846823, 0.50901336, 0.16161856], "xyz": [7.54048941629128, 4.14518491006848, 4.910762463320364], "label": "O", "properties": {}}, {"species": [{"element": "O", "occu": 1}], "abc": [0.1253576, 0.84150306, 0.0198568], "xyz": [4.87699281410114, 6.85283739131808, 0.603346720089944], "label": "O", "properties": {}}, {"species": [{"element": "O", "occu": 1}], "abc": [0.77711415, 0.92516501, 0.14524127], "xyz": [11.20033023137109, 7.53414417015568, 4.4131402782018245], "label": "O", "properties": {}}, {"species": [{"element": "O", "occu": 1}], "abc": [0.8651941, 0.47042259, 0.10194085], "xyz": [9.98791382900131, 3.8309183504011197, 3.0974617003082554], "label": "O", "properties": {}}, {"species": [{"element": "O", "occu": 1}], "abc": [0.26566469, 0.72635911, 0.18759812], "xyz": [5.647700025197509, 5.91515480470448, 5.70014858371136], "label": "O", "properties": {}}, {"species": [{"element": "O", "occu": 1}], "abc": [0.72216143, 0.97484317, 0.31369194], "xyz": [10.91879124581597, 7.93870164423056, 9.53149566484285], "label": "O", "properties": {}}, {"species": [{"element": "O", "occu": 1}], "abc": [0.40403725, 0.68201165, 0.41740191], "xyz": [6.714728511414849, 5.5540082485672, 12.682711884985395], "label": "O", "properties": {}}, {"species": [{"element": "O", "occu": 1}], "abc": [0.89594014, 0.3826989, 0.33956538], "xyz": [9.87964544699842, 3.1165345156752, 10.317657340512847], "label": "O", "properties": {}}, {"species": [{"element": "O", "occu": 1}], "abc": [0.1108617, 0.43170094, 0.25350676], "xyz": [2.9270974075332594, 3.5155859605539197, 7.702775480773771], "label": "O", "properties": {}}, {"species": [{"element": "O", "occu": 1}], "abc": [0.86975767, 0.27896763, 0.24418326], "xyz": [9.180471702886031, 2.2717918647038404, 7.419481941796766], "label": "O", "properties": {}}, {"species": [{"element": "O", "occu": 1}], "abc": [0.95619474, 0.7195768, 0.22020866], "xyz": [11.92401537799632, 5.8599226020224, 6.691016314129248], "label": "O", "properties": {}}, {"species": [{"element": "O", "occu": 1}], "abc": [0.01548082, 0.99290283, 0.27823481], "xyz": [4.544993918446029, 8.08577171349744, 8.454134605190603], "label": "O", "properties": {}}, {"species": [{"element": "O", "occu": 1}], "abc": [0.18468056, 0.08763192, 0.23324548], "xyz": [2.07528529858616, 0.7136364994905601, 7.087138679636428], "label": "O", "properties": {}}, {"species": [{"element": "O", "occu": 1}], "abc": [0.79659747, 0.61777884, 0.2667505], "xyz": [10.01498029281612, 5.030923992501121, 8.105185088098414], "label": "O", "properties": {}}, {"species": [{"element": "O", "occu": 1}], "abc": [0.97069023, 0.03114719, 0.19591959], "xyz": [9.00315157498815, 0.25364925977392, 5.95299554952795], "label": "O", "properties": {}}, {"species": [{"element": "O", "occu": 1}], "abc": [0.01169592, 0.67415451, 0.3027841], "xyz": [3.09675043983435, 5.49002309469168, 9.200062126343903], "label": "O", "properties": {}}, {"species": [{"element": "O", "occu": 1}], "abc": [0.37352697, 0.40648634, 0.19201086], "xyz": [5.21410837177962, 3.3102491508611203, 5.834229211285274], "label": "O", "properties": {}}, {"species": [{"element": "O", "occu": 1}], "abc": [0.62151754, 0.29271714, 0.30903885], "xyz": [6.974352347072981, 2.38376193435552, 9.390112028517596], "label": "O", "properties": {}}, {"species": [{"element": "O", "occu": 1}], "abc": [0.41070387, 0.92057699, 0.37477877], "xyz": [7.83367118710467, 7.496781317300321, 11.38761238663045], "label": "O", "properties": {}}, {"species": [{"element": "O", "occu": 1}], "abc": [0.92156266, 0.10110534, 0.37240107], "xyz": [8.86475542750534, 0.82335821145312, 11.315366229326258], "label": "O", "properties": {}}, {"species": [{"element": "O", "occu": 1}], "abc": [0.79320575, 0.36024421, 0.42085445], "xyz": [8.84181576764069, 2.93367322074128, 12.787616939424144], "label": "O", "properties": {}}, {"species": [{"element": "O", "occu": 1}], "abc": [0.54935027, 0.63036997, 0.33616956], "xyz": [7.81279153850309, 5.1334607158529595, 10.214475717138695], "label": "O", "properties": {}}, {"species": [{"element": "O", "occu": 1}], "abc": [0.42240613, 0.19776722, 0.3449143], "xyz": [4.73481861656002, 1.61053080424096, 10.48018369612017], "label": "O", "properties": {}}, {"species": [{"element": "O", "occu": 1}], "abc": [0.91426953, 0.79918265, 0.39358316], "xyz": [11.894184545402489, 6.5081982546952, 11.958981742709582], "label": "O", "properties": {}}, {"species": [{"element": "O", "occu": 1}], "abc": [0.47094263, 0.15130338, 0.25852593], "xyz": [4.97201606199026, 1.23214936365984, 7.855282418300153], "label": "O", "properties": {}}, {"species": [{"element": "O", "occu": 1}], "abc": [0.50634081, 0.55655731, 0.24609744], "xyz": [7.092633842847869, 4.53236229988208, 7.477644094039915], "label": "O", "properties": {}}, {"species": [{"element": "O", "occu": 1}], "abc": [0.12182627, 0.21703767, 0.40503211], "xyz": [2.07518269691639, 1.76746102420656, 12.306856850026662], "label": "O", "properties": {}}, {"species": [{"element": "O", "occu": 1}], "abc": [0.21923067, 0.78970354, 0.34442668], "xyz": [5.504570792656019, 6.43100447783072, 10.465367415166025], "label": "O", "properties": {}}, {"species": [{"element": "O", "occu": 1}], "abc": [0.62379604, 0.02127167, 0.42736869], "xyz": [5.79127635858415, 0.17322729111856, 12.985551417178803], "label": "O", "properties": {}}, {"species": [{"element": "O", "occu": 1}], "abc": [0.18774201, 0.55137411, 0.48242653], "xyz": [4.15998245196867, 4.49015255822448, 14.658477929972252], "label": "O", "properties": {}}, {"species": [{"element": "O", "occu": 1}], "abc": [0.34754028, 0.23591717, 0.47389599], "xyz": [4.2202905902507695, 1.9212075162625601, 14.399278394820762], "label": "O", "properties": {}}, {"species": [{"element": "O", "occu": 1}], "abc": [0.49943932, 0.40414053, 0.46664267], "xyz": [6.3536227035493305, 3.29114588761104, 14.178887051212387], "label": "O", "properties": {}}, {"species": [{"element": "O", "occu": 1}], "abc": [0.30708198, 0.4011474, 0.40833376], "xyz": [4.583608334880839, 3.2667711299232, 12.407177128137182], "label": "O", "properties": {}}, {"species": [{"element": "O", "occu": 1}], "abc": [0.71560039, 0.7025623, 0.4334324], "xyz": [9.65128142309302, 5.7213638642864, 13.169796589617292], "label": "O", "properties": {}}, {"species": [{"element": "O", "occu": 1}], "abc": [0.86978684, 0.83001116, 0.48422892], "xyz": [11.624665201819159, 6.75925232221888, 14.713243355157724], "label": "O", "properties": {}}, {"species": [{"element": "O", "occu": 1}], "abc": [0.01270105, 0.11682648, 0.58423057], "xyz": [0.6341305632791199, 0.95138438408064, 17.751782673229243], "label": "O", "properties": {}}, {"species": [{"element": "O", "occu": 1}], "abc": [0.26298997, 0.49150182, 0.65983101], "xyz": [4.58165965850134, 4.00257849329376, 20.04889386492965], "label": "O", "properties": {}}, {"species": [{"element": "O", "occu": 1}], "abc": [0.82258234, 0.73887266, 0.58139126], "xyz": [10.789353872296658, 6.01705975005088, 17.665510546007404], "label": "O", "properties": {}}, {"species": [{"element": "O", "occu": 1}], "abc": [0.60836232, 0.60555472, 0.51633663], "xyz": [8.24167233708624, 4.93137604004096, 15.688832650416732], "label": "O", "properties": {}}, {"species": [{"element": "O", "occu": 1}], "abc": [0.76198203, 0.29591932, 0.52962711], "xyz": [8.27137266261612, 2.4098391049337597, 16.09266244758551], "label": "O", "properties": {}}, {"species": [{"element": "O", "occu": 1}], "abc": [0.91822315, 0.46484293, 0.5254427], "xyz": [10.44746530889797, 3.78548000977424, 15.965519602363143], "label": "O", "properties": {}}, {"species": [{"element": "O", "occu": 1}], "abc": [0.73170834, 0.48080609, 0.59104106], "xyz": [8.814881777109928, 3.91547708872912, 17.95871867518854], "label": "O", "properties": {}}, {"species": [{"element": "O", "occu": 1}], "abc": [0.09724801, 0.80842248, 0.55764253], "xyz": [4.4735613823516, 6.583443438608641, 16.94390795385753], "label": "O", "properties": {}}, {"species": [{"element": "O", "occu": 1}], "abc": [0.30598569, 0.20440519, 0.62718395], "xyz": [3.7010270489466297, 1.66458756431792, 19.05691647826213], "label": "O", "properties": {}}, {"species": [{"element": "O", "occu": 1}], "abc": [0.79439207, 0.00194336, 0.62033112], "xyz": [7.2635538995432, 0.01582588430848, 18.84869397998275], "label": "O", "properties": {}}, {"species": [{"element": "O", "occu": 1}], "abc": [0.91865305, 0.73546431, 0.66859391], "xyz": [11.651621357071988, 5.98930362005808, 20.315153633546757], "label": "O", "properties": {}}, {"species": [{"element": "O", "occu": 1}], "abc": [0.18153041, 0.46887444, 0.57684809], "xyz": [3.73736046826724, 3.81831088560192, 17.527466816992106], "label": "O", "properties": {}}, {"species": [{"element": "O", "occu": 1}], "abc": [0.30147353, 0.88118291, 0.60753536], "xyz": [6.66138832087763, 7.17597294802288, 18.459896196500107], "label": "O", "properties": {}}, {"species": [{"element": "O", "occu": 1}], "abc": [0.79681263, 0.29178242, 0.66151376], "xyz": [8.57112214558482, 2.37614997847456, 20.100024041656578], "label": "O", "properties": {}}, {"species": [{"element": "O", "occu": 1}], "abc": [0.24989079, 0.95829101, 0.51994523], "xyz": [6.53228053639341, 7.803908003723681, 15.798479571074472], "label": "O", "properties": {}}, {"species": [{"element": "O", "occu": 1}], "abc": [0.59801738, 0.87485732, 0.64548925], "xyz": [9.341576226618919, 7.124460075717761, 19.61312103867783], "label": "O", "properties": {}}, {"species": [{"element": "O", "occu": 1}], "abc": [0.50984581, 0.32958809, 0.60198368], "xyz": [6.11801522332729, 2.68402302290512, 18.291209000225336], "label": "O", "properties": {}}, {"species": [{"element": "O", "occu": 1}], "abc": [0.10926134, 0.07338898, 0.68772827], "xyz": [1.32333638660114, 0.59764814908064, 20.896549092383037], "label": "O", "properties": {}}, {"species": [{"element": "O", "occu": 1}], "abc": [0.65249802, 0.8252736, 0.81369802], "xyz": [9.61922270262816, 6.7206716802048, 24.724126319985178], "label": "O", "properties": {}}, {"species": [{"element": "O", "occu": 1}], "abc": [0.97134104, 0.11745107, 0.91760106], "xyz": [9.39186060851075, 0.95647077521776, 27.88120895119334], "label": "O", "properties": {}}, {"species": [{"element": "O", "occu": 1}], "abc": [0.47873216, 0.41744169, 0.83953871], "xyz": [6.223502500306489, 3.39946478854992, 25.50929289044774], "label": "O", "properties": {}}, {"species": [{"element": "O", "occu": 1}], "abc": [0.26363881, 0.36828591, 0.75372473], "xyz": [4.04111178471727, 2.99916135152688, 22.901844390645955], "label": "O", "properties": {}}, {"species": [{"element": "O", "occu": 1}], "abc": [0.50432228, 0.5211986, 0.74430819], "xyz": [6.917380212364039, 4.244416240604799, 22.61572384133309], "label": "O", "properties": {}}, {"species": [{"element": "O", "occu": 1}], "abc": [0.41831086, 0.08049632, 0.7203065], "xyz": [4.17731091476416, 0.65552725566976, 21.886435086945895], "label": "O", "properties": {}}, {"species": [{"element": "O", "occu": 1}], "abc": [0.35880299, 0.80739762, 0.77831568], "xyz": [6.8577160642253, 6.57509742150816, 23.649037746392892], "label": "O", "properties": {}}, {"species": [{"element": "O", "occu": 1}], "abc": [0.18971863, 0.71290295, 0.73318452], "xyz": [4.89442908718999, 5.8055736507256, 22.27773233163047], "label": "O", "properties": {}}, {"species": [{"element": "O", "occu": 1}], "abc": [0.57811262, 0.18217192, 0.76676232], "xyz": [6.08767086582344, 1.4835294182105598, 23.297990152519848], "label": "O", "properties": {}}, {"species": [{"element": "O", "occu": 1}], "abc": [0.40434432, 0.7687433, 0.69599619], "xyz": [7.102195472785859, 6.2603133380944005, 21.147768947242128], "label": "O", "properties": {}}, {"species": [{"element": "O", "occu": 1}], "abc": [0.36348567, 0.12552745, 0.80290536], "xyz": [3.87632662927401, 1.0222413249416, 24.39619251332721], "label": "O", "properties": {}}, {"species": [{"element": "O", "occu": 1}], "abc": [0.00188547, 0.39313455, 0.69230942], "xyz": [1.76080612746831, 3.2015179410744, 21.035746839590036], "label": "O", "properties": {}}, {"species": [{"element": "O", "occu": 1}], "abc": [0.75383083, 0.50719884, 0.80876881], "xyz": [9.133973771267799, 4.130408243061121, 24.574352807327823], "label": "O", "properties": {}}, {"species": [{"element": "O", "occu": 1}], "abc": [0.9641269, 0.87947529, 0.87474841], "xyz": [12.70562135455801, 7.16206682843472, 26.57913581631449], "label": "O", "properties": {}}, {"species": [{"element": "O", "occu": 1}], "abc": [0.45349621, 0.69873612, 0.87240434], "xyz": [7.24059627482716, 5.69020510727616, 26.507911502922543], "label": "O", "properties": {}}, {"species": [{"element": "O", "occu": 1}], "abc": [0.58219448, 0.43946129, 0.92080433], "xyz": [7.2660504743670495, 3.57878289848272, 27.978539963645623], "label": "O", "properties": {}}, {"species": [{"element": "O", "occu": 1}], "abc": [0.82520094, 0.17039775, 0.83642597], "xyz": [8.29203190897647, 1.3876456641719999, 25.414712622252825], "label": "O", "properties": {}}, {"species": [{"element": "O", "occu": 1}], "abc": [0.95244807, 0.60238787, 0.84478819], "xyz": [11.37005487548259, 4.9055865817201605, 25.66879777241149], "label": "O", "properties": {}}, {"species": [{"element": "O", "occu": 1}], "abc": [0.46116966, 0.00024817, 0.89373926], "xyz": [4.212819275883209, 0.0020209892705599997, 27.15617073932425], "label": "O", "properties": {}}, {"species": [{"element": "O", "occu": 1}], "abc": [0.90354136, 0.65012121, 0.75843928], "xyz": [11.13510676311337, 5.29430628187728, 23.045095482423086], "label": "O", "properties": {}}, {"species": [{"element": "O", "occu": 1}], "abc": [0.86791939, 0.24305549, 0.74601224], "xyz": [9.004409728108929, 1.9793389105883201, 22.667501216256], "label": "O", "properties": {}}, {"species": [{"element": "O", "occu": 1}], "abc": [0.25332816, 0.58295793, 0.90507161], "xyz": [4.899037349699849, 4.74735754409424, 27.500502968253947], "label": "O", "properties": {}}, {"species": [{"element": "O", "occu": 1}], "abc": [0.15548179, 0.01062495, 0.84452736], "xyz": [1.46708927662207, 0.0865250028216, 25.66087248107547], "label": "O", "properties": {}}, {"species": [{"element": "O", "occu": 1}], "abc": [0.75185783, 0.77833161, 0.92738736], "xyz": [10.318452943610328, 6.33839639258448, 28.17856461810927], "label": "O", "properties": {}}, {"species": [{"element": "O", "occu": 1}], "abc": [0.18823525, 0.24796813, 0.98216569], "xyz": [2.81885453456557, 2.01934532848784, 29.842998249787314], "label": "O", "properties": {}}, {"species": [{"element": "O", "occu": 1}], "abc": [0.02816534, 0.56357551, 0.97379043], "xyz": [2.7567328077043096, 4.589515488819679, 29.588516880639187], "label": "O", "properties": {}}, {"species": [{"element": "O", "occu": 1}], "abc": [0.87629424, 0.39537442, 0.96666325], "xyz": [9.7564426311405, 3.21975847473056, 29.371958287286247], "label": "O", "properties": {}}, {"species": [{"element": "O", "occu": 1}], "abc": [0.06813579, 0.39862818, 0.90819851], "xyz": [2.3902143679115397, 3.24625569054624, 27.595513486517174], "label": "O", "properties": {}}, {"species": [{"element": "O", "occu": 1}], "abc": [0.65991109, 0.09711313, 0.93352527], "xyz": [6.45746746732849, 0.7908473778478401, 28.365064349521543], "label": "O", "properties": {}}, {"species": [{"element": "O", "occu": 1}], "abc": [0.50615569, 0.96936011, 0.98435347], "xyz": [8.92176035709451, 7.89404997227248, 29.90947370843515], "label": "O", "properties": {}}]}, "formula": "(Na3Zr2Si2PO12)8.0", "bandgap": 4.2905999999999995}