{"miller": "02-1_0.22", "final_energy": -245.08462829, "gamma": 0.018028149332359085, "work_function": 5.030782243021499, "ionization_potentail": -5.4075822430214995, "electron_affinity": -2.742682243021499, "is_stochiometric": false, "incar_parameters": {"SYSTEM": "unknown system", "LCOMPAT": false, "PREC": "normal", "ENMAX": 520.0, "ENAUG": 628.945, "EDIFF": 1e-05, "IALGO": 38, "IWAVPR": 11, "NBANDS": 168, "NBANDSLOW": -1, "NBANDSHIGH": -1, "NELECT": 276.0, "TURBO": 0, "IRESTART": 0, "NREBOOT": 0, "NMIN": 0, "EREF": 0.0, "ISMEAR": 0, "SIGMA": 0.05, "KSPACING": 0.5, "KGAMMA": true, "KBLOWUP": false, "LREAL": true, "ROPT": [-0.0005, -0.0005, -0.0005, -0.0005], "LMAXPAW": -100, "LMAXMIX": 2, "NLSPLINE": false, "ISTART": 0, "ICHARG": 2, "INIWAV": 1, "ISPIN": 1, "LNONCOLLINEAR": false, "MAGMOM": [0.6, 0.6, 0.6, 0.6, 0.6, 0.6, 0.6, 0.6, 0.6, 0.6, 0.6, 0.6, 0.6, 0.6, 0.6, 0.6, 0.6, 0.6, 0.6, 0.6, 0.6, 0.6, 0.6, 0.6, 0.6, 0.6, 0.6, 0.6, 0.6, 0.6, 0.6, 0.6, 0.6, 0.6, 0.6, 0.6, 0.6, 0.6, 0.6, 0.6, 0.6, 0.6, 0.6, 0.6, 0.6, 0.6, 0.6, 0.6, 0.6, 0.6, 0.6, 0.6, 0.6, 0.6, 0.6, 0.6, 0.6, 0.6, 0.6], "NUPDOWN": -1.0, "LSORBIT": false, "SAXIS": [0.0, 0.0, 1.0], "LSPIRAL": false, "QSPIRAL": [0.0, 0.0, 0.0], "LZEROZ": false, "LASPH": false, "LMETAGGA": false, "NELM": 100, "NELMDL": -5, "NELMIN": 6, "ENINI": 520.0, "LDIAG": true, "LSUBROT": false, "WEIMIN": 0.001, "EBREAK": 1e-08, "DEPER": 0.3, "NRMM": 4, "TIME": 0.4, "AMIX": 0.4, "BMIX": 1.0, "AMIN": 0.1, "AMIX_MAG": 1.6, "BMIX_MAG": 1.0, "IMIX": 4, "MIXFIRST": false, "MAXMIX": -45, "WC": 100.0, "INIMIX": 1, "MIXPRE": 1, "MREMOVE": 5, "LDIPOL": false, "LMONO": false, "IDIPOL": 0, "EPSILON": 1.0, "DIPOL": [-100.0, -100.0, -100.0], "EFIELD": 0.0, "NGX": 40, "NGY": 70, "NGZ": 240, "NGXF": 80, "NGYF": 140, "NGZF": 480, "ADDGRID": false, "NSW": 150, "IBRION": 2, "MDALGO": 0, "ISIF": 2, "PSTRESS": 0.0, "EDIFFG": -0.01, "NFREE": 1, "POTIM": 0.5, "SMASS": -3.0, "SCALEE": 1.0, "TEBEG": 0.0001, "TEEND": 0.0001, "NBLOCK": 1, "KBLOCK": 150, "NPACO": 256, "APACO": 10.0, "ISYM": 0, "SYMPREC": 1e-05, "LORBIT": 11, "RWIGS": [-1.0, -1.0, -1.0, -1.0], "NEDOS": 301, "EMIN": 10.0, "EMAX": -10.0, "EFERMI": 0.0, "NWRITE": 2, "LWAVE": false, "LDOWNSAMPLE": false, "LCHARG": false, "LPARD": false, "LVTOT": false, "LVHAR": false, "LELF": false, "LOPTICS": false, "STM": [0.0, 0.0, 0.0, 0.0, 0.0, 0.0, 0.0], "NPAR": 1, "NSIM": 4, "NBLK": -1, "LPLANE": true, "LSCALAPACK": true, "LSCAAWARE": false, "LSCALU": false, "LASYNC": false, "LORBITALREAL": false, "IDIOT": 3, "PHON_NSTRUCT": -1, "LMUSIC": false, "POMASS": [7.01, 30.974, 32.066, 35.453], "DARWINR": [0.0, 0.0, 0.0, 0.0], "DARWINV": [1.0, 1.0, 1.0, 1.0], "LCORR": true, "GGA_COMPAT": true, "LBERRY": false, "ICORELEVEL": 0, "LDAU": false, "I_CONSTRAINED_M": 0, "GGA": "--", "VOSKOWN": 0, "LHFCALC": false, "PRECFOCK": "", "LSYMGRAD": false, "LHFONE": false, "LRHFCALC": false, "LTHOMAS": false, "LMODELHF": false, "LFOCKACE": false, "ENCUT4O": -1.0, "EXXOEP": 0, "FOURORBIT": 0, "AEXX": 0.0, "HFALPHA": 0.0, "MCALPHA": 0.0, "ALDAX": 1.0, "AGGAX": 1.0, "ALDAC": 1.0, "AGGAC": 1.0, "NKREDX": 1, "NKREDY": 1, "NKREDZ": 1, "SHIFTRED": false, "ODDONLY": false, "EVENONLY": false, "LMAXFOCK": 0, "NMAXFOCKAE": 0, "LFOCKAEDFT": false, "HFSCREEN": 0.0, "HFSCREENC": 0.0, "NBANDSGWLOW": 0, "LUSE_VDW": false, "Zab_VDW": -0.8491, "PARAM1": 0.1234, "PARAM2": 1.0, "PARAM3": 0.0, "MODEL_GW": 0, "MODEL_EPS0": 31.06316631, "MODEL_ALPHA": 1.0, "LEPSILON": false, "LRPA": false, "LNABLA": false, "LVEL": false, "CSHIFT": 0.1, "OMEGAMAX": -1.0, "DEG_THRESHOLD": 0.002, "RTIME": -0.1, "WPLASMAI": 0.0, "DFIELD": [0.0, 0.0, 0.0], "WPLASMA": [0.0, 0.0, 0.0, 0.0, 0.0, 0.0, 0.0, 0.0, 0.0], "NUCIND": false, "MAGPOS": [0.0, 0.0, 0.0], "LNICSALL": true, "ORBITALMAG": false, "LMAGBLOCH": false, "LCHIMAG": false, "LGAUGE": true, "MAGATOM": 0, "MAGDIPOL": [0.0, 0.0, 0.0], "AVECCONST": [0.0, 0.0, 0.0], "LFINITE_TEMPERATURE": false, "LADDER": false, "LRPAFORCE": false, "LFXC": false, "LHARTREE": true, "IBSE": 0, "KPOINT": [-1, 0, 0, 0], "LTCTC": false, "LTCTE": false, "LTETE": false, "LTRIPLET": false, "LFXCEPS": false, "LFXHEG": false, "NATURALO": 2, "LHOLEGF": false, "L2ORDER": false, "LDMP1": false, "LMP2LT": false, "LSMP2LT": false, "LGWLF": false, "ENCUTGW": -2.0, "ENCUTGWSOFT": -2.0, "ENCUTLF": -1.0, "LESF_SPLINES": false, "LMAXMP2": -1, "SCISSOR": 0.0, "NOMEGA": 0, "NOMEGAR": 0, "NBANDSGW": -1, "NBANDSO": -1, "NBANDSV": -1, "NELMGW": 1, "NELMHF": 1, "DIM": 3, "IESPILON": 4, "ANTIRES": 0, "OMEGAMIN": -30.0, "OMEGATL": -200.0, "OMEGAGRID": 0, "LSELFENERGY": false, "LSPECTRAL": false, "LSPECTRALGW": false, "LSINGLES": false, "LFERMIGW": false, "ODDONLYGW": false, "EVENONLYGW": false, "NKREDLFX": 1, "NKREDLFY": 1, "NKREDLFZ": 1, "MAXMEM": 2800, "TELESCOPE": 0, "NTAUPAR": -1, "NOMEGAPAR": -1, "DAMP_NEWTON": 0.80000001, "LAMBDA": 1.0, "OFIELD_KAPPA": 0.0, "OFIELD_K": [0.0, 0.0, 0.0], "OFIELD_Q6_NEAR": 0.0, "OFIELD_Q6_FAR": 0.0, "OFIELD_A": 0.0, "KPOINTS_OPT_MODE": 1, "LKPOINTS_OPT": false, "@module": "pymatgen.io.vasp.inputs", "@class": "Incar"}, "relaxed_structures": {"@module": "pymatgen.core.structure", "@class": "Structure", "charge": 0, "lattice": {"matrix": [[6.772882, 0.0, 0.0], [-6.772882, 10.601215, 0.0], [0.0, 0.0, 42.541944]], "a": 6.772882, "b": 12.580051274225752, "c": 42.541944, "alpha": 90.0, "beta": 90.0, "gamma": 122.57361010768133, "volume": 3054.5446875372613}, "sites": [{"species": [{"element": "Li", "occu": 1}], "abc": [0.57704085, 0.41421228, 0.13358079], "xyz": [1.1028186908387405, 4.3911534359202, 5.68278648765576], "label": "Li", "properties": {}}, {"species": [{"element": "Li", "occu": 1}], "abc": [0.71717457, 0.77654531, 0.08330802000000001], "xyz": [-0.40211101627268064, 8.23232378855165, 3.5440851215908804], "label": "Li", "properties": {}}, {"species": [{"element": "Li", "occu": 1}], "abc": [0.20268726, 0.39207133, 0.09113482], "xyz": [-1.28267595878974, 4.15643246466595, 3.8770524088900804], "label": "Li", "properties": {}}, {"species": [{"element": "Li", "occu": 1}], "abc": [0.93138381, 0.25498136, 0.14305012], "xyz": [4.581193978360901, 2.7031122183523997, 6.08563019423328], "label": "Li", "properties": {}}, {"species": [{"element": "Li", "occu": 1}], "abc": [0.17256261, 0.86224611, 0.057932599999999994], "xyz": [-4.671144962847, 9.140856395023649, 2.4645654249743996], "label": "Li", "properties": {}}, {"species": [{"element": "Li", "occu": 1}], "abc": [0.53848363, 0.25869871, 0.08176934999999999], "xyz": [1.8949502485394398, 2.74252064493265, 3.4786271086164], "label": "Li", "properties": {}}, {"species": [{"element": "Li", "occu": 1}], "abc": [0.7871738, 0.76552482, 0.00500138], "xyz": [0.14662598696036078, 8.1154932046563, 0.21276842788272], "label": "Li", "properties": {}}, {"species": [{"element": "Li", "occu": 1}], "abc": [0.9140158, 0.05589051, 0.0862522], "xyz": [5.81198133038578, 0.59250731296965, 3.6693362622768], "label": "Li", "properties": {}}, {"species": [{"element": "Li", "occu": 1}], "abc": [0.25342055, 0.14613069, 0.16212221000000002], "xyz": [0.7266615615765201, 1.54916286278835, 6.896993978976241], "label": "Li", "properties": {}}, {"species": [{"element": "Li", "occu": 1}], "abc": [0.08425536, 0.51196836, 0.01854836], "xyz": [-2.8968496788660003, 5.4274866575574, 0.78908329241184], "label": "Li", "properties": {}}, {"species": [{"element": "Li", "occu": 1}], "abc": [0.5794776, 0.45567773, 0.28504927999999996], "xyz": [0.8384819111253403, 4.83073758644195, 12.126550507000319], "label": "Li", "properties": {}}, {"species": [{"element": "Li", "occu": 1}], "abc": [0.38729081, 0.70833098, 0.24404177000000002], "xyz": [-2.1743671886699407, 7.509169010140701, 10.38201131300088], "label": "Li", "properties": {}}, {"species": [{"element": "Li", "occu": 1}], "abc": [0.14766535, 0.36786511, 0.25168902], "xyz": [-1.49138699090832, 3.89981712210865, 10.70734019425488], "label": "Li", "properties": {}}, {"species": [{"element": "Li", "occu": 1}], "abc": [0.9418052, 0.75855325, 0.16939456], "xyz": [1.2411438336199003, 8.041586092198749, 7.20637388542464], "label": "Li", "properties": {}}, {"species": [{"element": "Li", "occu": 1}], "abc": [0.01234478, 0.29862791, 0.31512059], "xyz": [-1.9389618580806602, 3.1658186789106497, 13.40584249302696], "label": "Li", "properties": {}}, {"species": [{"element": "Li", "occu": 1}], "abc": [0.19042335, 0.89678185, 0.22486091], "xyz": [-4.784082770197, 9.50697719994775, 9.56602024100904], "label": "Li", "properties": {}}, {"species": [{"element": "Li", "occu": 1}], "abc": [0.56539994, 0.23455376, 0.26910901], "xyz": [2.2407821372907604, 2.4865548388184, 11.44842043331544], "label": "Li", "properties": {}}, {"species": [{"element": "Li", "occu": 1}], "abc": [0.5882914, 0.91826668, 0.18478463], "xyz": [-2.2348836343569602, 9.7347425020162, 7.861097381520721], "label": "Li", "properties": {}}, {"species": [{"element": "Li", "occu": 1}], "abc": [0.99407597, 0.07462833, 0.25104596999999995], "xyz": [6.22731037089848, 0.79115097142095, 10.679983597165679], "label": "Li", "properties": {}}, {"species": [{"element": "Li", "occu": 1}], "abc": [0.299412, 0.67892941, 0.15029524], "xyz": [-2.57042663487562, 7.19747664523315, 6.39385168354656], "label": "Li", "properties": {}}, {"species": [{"element": "Li", "occu": 1}], "abc": [0.20478916, 0.09179028, 0.32058362999999995], "xyz": [0.7653280803721599, 0.9730884931902, 13.638250834776718], "label": "Li", "properties": {}}, {"species": [{"element": "Li", "occu": 1}], "abc": [0.9413493, 0.51023089, 0.21117555000000002], "xyz": [2.9199141189576205, 5.409067364531349, 8.9838184222692], "label": "Li", "properties": {}}, {"species": [{"element": "Li", "occu": 1}], "abc": [0.04927315, 0.78367216, 0.32632217999999996], "xyz": [-4.97399783564682, 8.3078770576744, 13.882379907517919], "label": "Li", "properties": {}}, {"species": [{"element": "Li", "occu": 1}], "abc": [0.80264848, 0.77269016, 0.40131278], "xyz": [0.20290416627824026, 8.1914545145444, 17.07262581324432], "label": "Li", "properties": {}}, {"species": [{"element": "Li", "occu": 1}], "abc": [0.64728706, 0.81168368, 0.33918971], "xyz": [-1.11343890845884, 8.6048332036712, 14.42978964819624], "label": "Li", "properties": {}}, {"species": [{"element": "Li", "occu": 1}], "abc": [0.99750647, 0.51610696, 0.38100070999999996], "xyz": [3.26046207608782, 5.4713608459564, 16.208510868780238], "label": "Li", "properties": {}}, {"species": [{"element": "P", "occu": 1}], "abc": [0.44430405, 0.95656392, 0.11785732000000002], "xyz": [-3.46947565284534, 10.1407397771628, 5.01387950743008], "label": "P", "properties": {}}, {"species": [{"element": "P", "occu": 1}], "abc": [0.67158218, 0.53524852, 0.032421359999999996], "xyz": [0.9233717918081203, 5.6742846389518, 1.3792676815238398], "label": "P", "properties": {}}, {"species": [{"element": "P", "occu": 1}], "abc": [0.44036376, 0.97964186, 0.28517459], "xyz": [-3.6524669364842, 10.385393980859899, 12.13188143800296], "label": "P", "properties": {}}, {"species": [{"element": "P", "occu": 1}], "abc": [0.42221593, 0.46838218, 0.19606775], "xyz": [-0.3126785636324998, 4.9654201923487, 8.341103240706001], "label": "P", "properties": {}}, {"species": [{"element": "P", "occu": 1}], "abc": [0.46866193, 0.55277785, 0.36836123], "xyz": [-0.5697072004814401, 5.86011683508775, 15.67080281843112], "label": "P", "properties": {}}, {"species": [{"element": "S", "occu": 1}], "abc": [0.58625743, 0.56019489, 0.07725839000000001], "xyz": [0.1765185080402798, 5.93874647079135, 3.2867221009101604], "label": "S", "properties": {}}, {"species": [{"element": "S", "occu": 1}], "abc": [0.54230506, 0.05255903, 0.07591872], "xyz": [3.31699207115846, 0.55718957722145, 3.22972993479168], "label": "S", "properties": {}}, {"species": [{"element": "S", "occu": 1}], "abc": [0.01678035, 0.68084313, 0.021548659999999997], "xyz": [-4.49761884953196, 7.21776440240295, 0.9167218869950399], "label": "S", "properties": {}}, {"species": [{"element": "S", "occu": 1}], "abc": [0.46391251, 0.55346369, 9.99999999999994e-05], "xyz": [-0.6065195751007599, 5.8673875723833495, 0.004254194399999974], "label": "S", "properties": {}}, {"species": [{"element": "S", "occu": 1}], "abc": [0.0994483, 0.80922107, 0.11486802000000002], "xyz": [-4.80720721802314, 8.57872654560005, 4.886708874230881], "label": "S", "properties": {}}, {"species": [{"element": "S", "occu": 1}], "abc": [0.66073445, 0.37076584, 0.028204929999999996], "xyz": [1.9639231792340195, 3.9305683844956, 1.19989255258392], "label": "S", "properties": {}}, {"species": [{"element": "S", "occu": 1}], "abc": [0.64093948, 0.87689603, 0.12548910000000002], "xyz": [-1.5981058702771005, 9.296163346676451, 5.338550264810401], "label": "S", "properties": {}}, {"species": [{"element": "S", "occu": 1}], "abc": [0.21427926, 0.22940366, 0.11396764000000001], "xyz": [-0.10243577652080016, 2.4319575214469, 4.848404958692161], "label": "S", "properties": {}}, {"species": [{"element": "S", "occu": 1}], "abc": [0.52460851, 0.07195261, 0.15625148], "xyz": [3.0657849973038, 0.76278508842115, 6.64724171207712], "label": "S", "properties": {}}, {"species": [{"element": "S", "occu": 1}], "abc": [0.53795717, 0.56924475, 0.23758973000000003], "xyz": [-0.21190708740555975, 6.03468598237125, 10.10752898863512], "label": "S", "properties": {}}, {"species": [{"element": "S", "occu": 1}], "abc": [0.6021627, 0.06146147, 0.24324530000000003], "xyz": [3.66210562804486, 0.6515662576860499, 10.348127930863201], "label": "S", "properties": {}}, {"species": [{"element": "S", "occu": 1}], "abc": [0.53981583, 0.5860463, 0.1573117], "xyz": [-0.31311351811454013, 6.2128028262545, 6.6923455319448], "label": "S", "properties": {}}, {"species": [{"element": "S", "occu": 1}], "abc": [0.06288019, 0.35986771, 0.19634239], "xyz": [-2.01146142843264, 3.81503496526765, 8.35278696020616], "label": "S", "properties": {}}, {"species": [{"element": "S", "occu": 1}], "abc": [0.08679672, 0.91499944, 0.28041887], "xyz": [-5.60931929463904, 9.7001057883196, 11.92956386408328], "label": "S", "properties": {}}, {"species": [{"element": "S", "occu": 1}], "abc": [0.55140432, 0.35423918, 0.19265821], "xyz": [1.3353762277334797, 3.7553657086037, 8.19605478096024], "label": "S", "properties": {}}, {"species": [{"element": "S", "occu": 1}], "abc": [0.43603298, 0.81813366, 0.29513348], "xyz": [-2.58792281775976, 8.6732108283969, 12.55555197868512], "label": "S", "properties": {}}, {"species": [{"element": "S", "occu": 1}], "abc": [0.24006465, 0.24858558, 0.28429357], "xyz": [-0.057711253420259956, 2.6353091794797, 12.09440113450008], "label": "S", "properties": {}}, {"species": [{"element": "S", "occu": 1}], "abc": [0.20700627, 0.73183218, 0.19982223000000002], "xyz": [-3.5545839589726205, 7.758310284098701, 8.500826118615121], "label": "S", "properties": {}}, {"species": [{"element": "S", "occu": 1}], "abc": [0.58537073, 0.11001352, 0.32038985], "xyz": [3.2195382911792194, 1.1662769784268001, 13.630007056868399], "label": "S", "properties": {}}, {"species": [{"element": "S", "occu": 1}], "abc": [0.40505376, 0.68960395, 0.38387284], "xyz": [-1.92722485994758, 7.310639738799249, 16.33069686240096], "label": "S", "properties": {}}, {"species": [{"element": "S", "occu": 1}], "abc": [0.62374177, 0.61132411, 0.32428569999999995], "xyz": [0.08410334589611956, 6.48077832479365, 13.795744089400799], "label": "S", "properties": {}}, {"species": [{"element": "S", "occu": 1}], "abc": [0.15213486, 0.3856107, 0.36812548], "xyz": [-1.5813043141708796, 4.087941937000499, 15.66077355513312], "label": "S", "properties": {}}, {"species": [{"element": "S", "occu": 1}], "abc": [0.7040658, 0.55793555, 0.39991685], "xyz": [0.9897229398804996, 5.91479472169325, 17.0132402373564], "label": "S", "properties": {}}, {"species": [{"element": "Cl", "occu": 1}], "abc": [0.90160088, 0.40690968, 0.11245518000000002], "xyz": [3.3504851240384004, 4.3137370032612, 4.784061970069921], "label": "Cl", "properties": {}}, {"species": [{"element": "Cl", "occu": 1}], "abc": [0.90375302, 0.92359057, 0.04265843], "xyz": [-0.1343573853190998, 9.79118220454255, 1.81477254018792], "label": "Cl", "properties": {}}, {"species": [{"element": "Cl", "occu": 1}], "abc": [0.91551668, 0.43386397, 0.27636658], "xyz": [3.26217696981022, 4.59948522672355, 11.757171569831518], "label": "Cl", "properties": {}}, {"species": [{"element": "Cl", "occu": 1}], "abc": [0.97810013, 0.97530082, 0.19960962000000002], "xyz": [0.01895939631141985, 10.3393736824963, 8.49178127590128], "label": "Cl", "properties": {}}, {"species": [{"element": "Cl", "occu": 1}], "abc": [0.02153809, 0.92549198, 0.36389033], "xyz": [-6.12237303041098, 9.8113394607557, 15.48060204100152], "label": "Cl", "properties": {}}]}, "formula": "(Li3PS4)5.0(Li2S)3.0(LiCl)5.0", "bandgap": 2.6649, "slab_thickness": 17.068371618844317}