{"miller": "11-1_0.03", "final_energy": -257.51579916, "gamma": 0.02072161250353386, "work_function": "Not calculated", "ionization_potentail": "Not calculated", "electron_affinity": "Not calculated", "is_stochiometric": false, "incar_parameters": {"SYSTEM": "unknown system", "LCOMPAT": false, "PREC": "normal", "ENMAX": 520.0, "ENAUG": 628.945, "EDIFF": 1e-05, "IALGO": 38, "IWAVPR": 11, "NBANDS": 176, "NBANDSLOW": -1, "NBANDSHIGH": -1, "NELECT": 288.0, "TURBO": 0, "IRESTART": 0, "NREBOOT": 0, "NMIN": 0, "EREF": 0.0, "ISMEAR": 0, "SIGMA": 0.05, "KSPACING": 0.5, "KGAMMA": true, "KBLOWUP": false, "LREAL": true, "ROPT": [-0.0005, -0.0005, -0.0005, -0.0005], "LMAXPAW": -100, "LMAXMIX": 2, "NLSPLINE": false, "ISTART": 0, "ICHARG": 2, "INIWAV": 1, "ISPIN": 1, "LNONCOLLINEAR": false, "MAGMOM": [0.6, 0.6, 0.6, 0.6, 0.6, 0.6, 0.6, 0.6, 0.6, 0.6, 0.6, 0.6, 0.6, 0.6, 0.6, 0.6, 0.6, 0.6, 0.6, 0.6, 0.6, 0.6, 0.6, 0.6, 0.6, 0.6, 0.6, 0.6, 0.6, 0.6, 0.6, 0.6, 0.6, 0.6, 0.6, 0.6, 0.6, 0.6, 0.6, 0.6, 0.6, 0.6, 0.6, 0.6, 0.6, 0.6, 0.6, 0.6, 0.6, 0.6, 0.6, 0.6, 0.6, 0.6, 0.6, 0.6, 0.6, 0.6, 0.6, 0.6, 0.6, 0.6], "NUPDOWN": -1.0, "LSORBIT": false, "SAXIS": [0.0, 0.0, 1.0], "LSPIRAL": false, "QSPIRAL": [0.0, 0.0, 0.0], "LZEROZ": false, "LASPH": false, "LMETAGGA": false, "NELM": 100, "NELMDL": -5, "NELMIN": 6, "ENINI": 520.0, "LDIAG": true, "LSUBROT": false, "WEIMIN": 0.001, "EBREAK": 1e-08, "DEPER": 0.3, "NRMM": 4, "TIME": 0.4, "AMIX": 0.4, "BMIX": 1.0, "AMIN": 0.1, "AMIX_MAG": 1.6, "BMIX_MAG": 1.0, "IMIX": 4, "MIXFIRST": false, "MAXMIX": -45, "WC": 100.0, "INIMIX": 1, "MIXPRE": 1, "MREMOVE": 5, "LDIPOL": false, "LMONO": false, "IDIPOL": 0, "EPSILON": 1.0, "DIPOL": [-100.0, -100.0, -100.0], "EFIELD": 0.0, "NGX": 56, "NGY": 40, "NGZ": 250, "NGXF": 112, "NGYF": 80, "NGZF": 500, "ADDGRID": false, "NSW": 150, "IBRION": 2, "MDALGO": 0, "ISIF": 2, "PSTRESS": 0.0, "EDIFFG": -0.01, "NFREE": 1, "POTIM": 0.5, "SMASS": -3.0, "SCALEE": 1.0, "TEBEG": 0.0001, "TEEND": 0.0001, "NBLOCK": 1, "KBLOCK": 150, "NPACO": 256, "APACO": 10.0, "ISYM": 0, "SYMPREC": 1e-05, "LORBIT": 11, "RWIGS": [-1.0, -1.0, -1.0, -1.0], "NEDOS": 301, "EMIN": 10.0, "EMAX": -10.0, "EFERMI": 0.0, "NWRITE": 2, "LWAVE": false, "LDOWNSAMPLE": false, "LCHARG": false, "LPARD": false, "LVTOT": false, "LVHAR": false, "LELF": false, "LOPTICS": false, "STM": [0.0, 0.0, 0.0, 0.0, 0.0, 0.0, 0.0], "NPAR": 1, "NSIM": 4, "NBLK": -1, "LPLANE": true, "LSCALAPACK": true, "LSCAAWARE": false, "LSCALU": false, "LASYNC": false, "LORBITALREAL": false, "IDIOT": 3, "PHON_NSTRUCT": -1, "LMUSIC": false, "POMASS": [7.01, 30.974, 32.066, 35.453], "DARWINR": [0.0, 0.0, 0.0, 0.0], "DARWINV": [1.0, 1.0, 1.0, 1.0], "LCORR": true, "GGA_COMPAT": true, "LBERRY": false, "ICORELEVEL": 0, "LDAU": false, "I_CONSTRAINED_M": 0, "GGA": "--", "VOSKOWN": 0, "LHFCALC": false, "PRECFOCK": "", "LSYMGRAD": false, "LHFONE": false, "LRHFCALC": false, "LTHOMAS": false, "LMODELHF": false, "LFOCKACE": false, "ENCUT4O": -1.0, "EXXOEP": 0, "FOURORBIT": 0, "AEXX": 0.0, "HFALPHA": 0.0, "MCALPHA": 0.0, "ALDAX": 1.0, "AGGAX": 1.0, "ALDAC": 1.0, "AGGAC": 1.0, "NKREDX": 1, "NKREDY": 1, "NKREDZ": 1, "SHIFTRED": false, "ODDONLY": false, "EVENONLY": false, "LMAXFOCK": 0, "NMAXFOCKAE": 0, "LFOCKAEDFT": false, "HFSCREEN": 0.0, "HFSCREENC": 0.0, "NBANDSGWLOW": 0, "LUSE_VDW": false, "Zab_VDW": -0.8491, "PARAM1": 0.1234, "PARAM2": 1.0, "PARAM3": 0.0, "MODEL_GW": 0, "MODEL_EPS0": 22.17008131, "MODEL_ALPHA": 1.0, "LEPSILON": false, "LRPA": false, "LNABLA": false, "LVEL": false, "CSHIFT": 0.1, "OMEGAMAX": -1.0, "DEG_THRESHOLD": 0.002, "RTIME": -0.1, "WPLASMAI": 0.0, "DFIELD": [0.0, 0.0, 0.0], "WPLASMA": [0.0, 0.0, 0.0, 0.0, 0.0, 0.0, 0.0, 0.0, 0.0], "NUCIND": false, "MAGPOS": [0.0, 0.0, 0.0], "LNICSALL": true, "ORBITALMAG": false, "LMAGBLOCH": false, "LCHIMAG": false, "LGAUGE": true, "MAGATOM": 0, "MAGDIPOL": [0.0, 0.0, 0.0], "AVECCONST": [0.0, 0.0, 0.0], "LFINITE_TEMPERATURE": false, "LADDER": false, "LRPAFORCE": false, "LFXC": false, "LHARTREE": true, "IBSE": 0, "KPOINT": [-1, 0, 0, 0], "LTCTC": false, "LTCTE": false, "LTETE": false, "LTRIPLET": false, "LFXCEPS": false, "LFXHEG": false, "NATURALO": 2, "LHOLEGF": false, "L2ORDER": false, "LDMP1": false, "LMP2LT": false, "LSMP2LT": false, "LGWLF": false, "ENCUTGW": -2.0, "ENCUTGWSOFT": -2.0, "ENCUTLF": -1.0, "LESF_SPLINES": false, "LMAXMP2": -1, "SCISSOR": 0.0, "NOMEGA": 0, "NOMEGAR": 0, "NBANDSGW": -1, "NBANDSO": -1, "NBANDSV": -1, "NELMGW": 1, "NELMHF": 1, "DIM": 3, "IESPILON": 4, "ANTIRES": 0, "OMEGAMIN": -30.0, "OMEGATL": -200.0, "OMEGAGRID": 0, "LSELFENERGY": false, "LSPECTRAL": false, "LSPECTRALGW": false, "LSINGLES": false, "LFERMIGW": false, "ODDONLYGW": false, "EVENONLYGW": false, "NKREDLFX": 1, "NKREDLFY": 1, "NKREDLFZ": 1, "MAXMEM": 2800, "TELESCOPE": 0, "NTAUPAR": -1, "NOMEGAPAR": -1, "DAMP_NEWTON": 0.80000001, "LAMBDA": 1.0, "OFIELD_KAPPA": 0.0, "OFIELD_K": [0.0, 0.0, 0.0], "OFIELD_Q6_NEAR": 0.0, "OFIELD_Q6_FAR": 0.0, "OFIELD_A": 0.0, "KPOINTS_OPT_MODE": 1, "LKPOINTS_OPT": false, "@module": "pymatgen.io.vasp.inputs", "@class": "Incar"}, "relaxed_structures": {"@module": "pymatgen.core.structure", "@class": "Structure", "charge": 0, "lattice": {"matrix": [[9.805337, 0.0, 0.0], [4.902668, 5.300607, 0.0], [0.0, 0.0, 44.077768]], "a": 9.805337, "b": 7.220290027877897, "c": 44.077768, "alpha": 90.0, "beta": 90.0, "gamma": 47.23346674215265, "volume": 2290.90840187668}, "sites": [{"species": [{"element": "Li", "occu": 1}], "abc": [0.59081138, 0.81867836, 0.018851710000000004], "xyz": [9.80681288219954, 4.339492245764521, 0.8309412997832801], "label": "Li", "properties": {}}, {"species": [{"element": "Li", "occu": 1}], "abc": [0.30504762, 0.42778407, 0.031162730000000003], "xyz": [5.0883779860467, 2.26751523593049, 1.37358358318664], "label": "Li", "properties": {}}, {"species": [{"element": "Li", "occu": 1}], "abc": [0.90152567, 0.65508593, 0.07393361], "xyz": [12.05143183476203, 3.4723530661595103, 3.25882850898248], "label": "Li", "properties": {}}, {"species": [{"element": "Li", "occu": 1}], "abc": [0.49328637, 0.08406499, 0.07875164], "xyz": [5.24898183175001, 0.44559547444893005, 3.4711965175395196], "label": "Li", "properties": {}}, {"species": [{"element": "Li", "occu": 1}], "abc": [0.96824769, 0.94875352, 0.051674399999999995], "xyz": [14.14541842231289, 5.02896954938664, 2.2776922147392], "label": "Li", "properties": {}}, {"species": [{"element": "Li", "occu": 1}], "abc": [0.17552198, 0.59408837, 0.13668668], "xyz": [4.6336702055784205, 3.1490289726405902, 6.02484376973024], "label": "Li", "properties": {}}, {"species": [{"element": "Li", "occu": 1}], "abc": [0.59689388, 0.62438609, 0.14832188999999998], "xyz": [8.91390334972568, 3.3096252793566303, 6.537697856741519], "label": "Li", "properties": {}}, {"species": [{"element": "Li", "occu": 1}], "abc": [0.40818468, 0.59889842, 0.19200862999999999], "xyz": [6.938588464621721, 3.1745251573409403, 8.46331184713784], "label": "Li", "properties": {}}, {"species": [{"element": "Li", "occu": 1}], "abc": [0.39631902, 0.58173529, 0.09456885999999999], "xyz": [6.73809654136346, 3.08355015032103, 4.16838427110448], "label": "Li", "properties": {}}, {"species": [{"element": "Li", "occu": 1}], "abc": [0.98237455, 0.10367648, 0.17726427], "xyz": [10.140804883821989, 0.5495482756233601, 7.81341336774936], "label": "Li", "properties": {}}, {"species": [{"element": "Li", "occu": 1}], "abc": [0.18363549, 0.16591812, 0.09639349], "xyz": [2.61404932215429, 0.8794667482988401, 4.24880988893032], "label": "Li", "properties": {}}, {"species": [{"element": "Li", "occu": 1}], "abc": [0.65454096, 0.60944771, 0.24899470999999998], "xyz": [9.4059144785938, 3.23044279775997, 10.975131060607278], "label": "Li", "properties": {}}, {"species": [{"element": "Li", "occu": 1}], "abc": [0.0976846, 0.60257161, 0.25876592000000004], "xyz": [3.9120389727656804, 3.19399529396727, 11.405824188066562], "label": "Li", "properties": {}}, {"species": [{"element": "Li", "occu": 1}], "abc": [0.88971539, 0.60893148, 0.30228186], "xyz": [11.70934811422507, 3.22770646540836, 13.32390969568848], "label": "Li", "properties": {}}, {"species": [{"element": "Li", "occu": 1}], "abc": [0.86207169, 0.60462672, 0.20557983], "xyz": [11.41718751069849, 3.20488862441904, 9.06150005221944], "label": "Li", "properties": {}}, {"species": [{"element": "Li", "occu": 1}], "abc": [0.46161425, 0.0952654, 0.28813813000000005], "xyz": [4.99333791333945, 0.5049644460978, 12.700485646093842], "label": "Li", "properties": {}}, {"species": [{"element": "Li", "occu": 1}], "abc": [0.79169564, 0.09951773, 0.21973663], "xyz": [8.25074494193432, 0.52750437626211, 9.68550019824184], "label": "Li", "properties": {}}, {"species": [{"element": "Li", "occu": 1}], "abc": [0.13958433, 0.62192057, 0.35997137], "xyz": [4.41774147264997, 3.29655652678599, 15.86673453350216], "label": "Li", "properties": {}}, {"species": [{"element": "Li", "occu": 1}], "abc": [0.59736595, 0.57616932, 0.37084372000000004], "xyz": [8.682141339820909, 3.05404713077724, 16.34596345441696], "label": "Li", "properties": {}}, {"species": [{"element": "Li", "occu": 1}], "abc": [0.3838135, 0.57493124, 0.41326059000000004], "xyz": [6.58211770519782, 3.04748455526268, 18.21560440956312], "label": "Li", "properties": {}}, {"species": [{"element": "Li", "occu": 1}], "abc": [0.36014978, 0.57976726, 0.31516885], "xyz": [6.37379635642554, 3.0731183967268203, 13.891939451126799], "label": "Li", "properties": {}}, {"species": [{"element": "Li", "occu": 1}], "abc": [0.01329415, 0.15204768, 0.4119042], "xyz": [0.87579291608879, 0.80594499694176, 18.1558177658256], "label": "Li", "properties": {}}, {"species": [{"element": "Li", "occu": 1}], "abc": [0.27173779, 0.09865115, 0.33149732000000004], "xyz": [3.1481344428534297, 0.52291097624805, 14.611661963581762], "label": "Li", "properties": {}}, {"species": [{"element": "Li", "occu": 1}], "abc": [0.63107703, 0.41188219, 0.47712935], "xyz": [8.20724458479203, 2.18322561948933, 21.0307967952908], "label": "Li", "properties": {}}, {"species": [{"element": "Li", "occu": 1}], "abc": [0.95418388, 0.80506638, 0.48935864], "xyz": [13.3030676824694, 4.26734048929266, 21.56983660271552], "label": "Li", "properties": {}}, {"species": [{"element": "Li", "occu": 1}], "abc": [0.80857859, 0.63943223, 0.43446508], "xyz": [11.06330949812447, 3.3893789543636106, 19.15025100034144], "label": "Li", "properties": {}}, {"species": [{"element": "Li", "occu": 1}], "abc": [0.44910771, 0.92798022, 0.45616399], "xyz": [8.95323137507523, 4.91885844999354, 20.106690521174322], "label": "Li", "properties": {}}, {"species": [{"element": "Li", "occu": 1}], "abc": [0.781893, 0.07290413, 0.42900302], "xyz": [8.02414910815984, 0.38643614180691, 18.90949558685936], "label": "Li", "properties": {}}, {"species": [{"element": "P", "occu": 1}], "abc": [0.20761089, 0.02856714, 0.02915875], "xyz": [2.17574994444945, 0.15142318225398002, 1.28525261767], "label": "P", "properties": {}}, {"species": [{"element": "P", "occu": 1}], "abc": [0.67934577, 0.04787744, 0.14354399], "xyz": [6.895941407384409, 0.25377949360608004, 6.327098689014321], "label": "P", "properties": {}}, {"species": [{"element": "P", "occu": 1}], "abc": [0.1446196, 0.06542239, 0.25402313000000004], "xyz": [1.7387881727417198, 0.34677837839073, 11.196772590773842], "label": "P", "properties": {}}, {"species": [{"element": "P", "occu": 1}], "abc": [0.6342076, 0.03694182, 0.3645374], "xyz": [6.3997327247369595, 0.19581406968474002, 16.0679949445232], "label": "P", "properties": {}}, {"species": [{"element": "P", "occu": 1}], "abc": [0.12774553, 0.01342455, 0.47897328], "xyz": [1.31840408359301, 0.07115826370185001, 21.11207311403904], "label": "P", "properties": {}}, {"species": [{"element": "S", "occu": 1}], "abc": [0.96445278, 0.28881663, 0.05445039], "xyz": [10.8727565782557, 1.5309034506944101, 2.40005165792952], "label": "S", "properties": {}}, {"species": [{"element": "S", "occu": 1}], "abc": [0.27425677, 0.17532481, 9.99999999999994e-05], "xyz": [3.54873938997457, 0.9293279151596701, 0.004407776799999973], "label": "S", "properties": {}}, {"species": [{"element": "S", "occu": 1}], "abc": [0.17378971, 0.8169569, 0.006876880000000002], "xyz": [5.70933512469147, 4.3303674628383, 0.30311752120384006], "label": "S", "properties": {}}, {"species": [{"element": "S", "occu": 1}], "abc": [0.42712588, 0.81646844, 0.060946799999999995], "xyz": [8.19098688861948, 4.32777832834308, 2.6863989107424], "label": "S", "properties": {}}, {"species": [{"element": "S", "occu": 1}], "abc": [0.19987024, 0.50531631, 0.08367039999999999], "xyz": [4.4371931623859595, 2.67848317000017, 3.6880044796671996], "label": "S", "properties": {}}, {"species": [{"element": "S", "occu": 1}], "abc": [0.44486013, 0.25360538, 0.16927356999999998], "xyz": [5.60534647366765, 1.3442624524656601, 7.461201146991759], "label": "S", "properties": {}}, {"species": [{"element": "S", "occu": 1}], "abc": [0.70674224, 0.24840134, 0.11582928], "xyz": [8.14767513611, 1.31667788161338, 5.10549613144704], "label": "S", "properties": {}}, {"species": [{"element": "S", "occu": 1}], "abc": [0.69715917, 0.79145731, 0.11767812], "xyz": [10.71613303159337, 4.19520415758717, 5.18698887203616], "label": "S", "properties": {}}, {"species": [{"element": "S", "occu": 1}], "abc": [0.91074109, 0.82674474, 0.17214643], "xyz": [12.983378288163651, 4.38224895605718, 7.58783040356824], "label": "S", "properties": {}}, {"species": [{"element": "S", "occu": 1}], "abc": [0.69603815, 0.4798153, 0.19850944], "xyz": [9.17726374282695, 2.5433123378871003, 8.74985304212992], "label": "S", "properties": {}}, {"species": [{"element": "S", "occu": 1}], "abc": [0.91733297, 0.26367049, 0.28136354], "xyz": [10.28744778592821, 1.39761364498743, 12.401876839778721], "label": "S", "properties": {}}, {"species": [{"element": "S", "occu": 1}], "abc": [0.17765059, 0.25930933, 0.22652574], "xyz": [3.01323145749127, 1.37449684976331, 9.98474901374832], "label": "S", "properties": {}}, {"species": [{"element": "S", "occu": 1}], "abc": [0.14207613, 0.83262759, 0.22629148999999998], "xyz": [5.4752009757159295, 4.41343163194713, 9.97442379659432], "label": "S", "properties": {}}, {"species": [{"element": "S", "occu": 1}], "abc": [0.38047831, 0.82971158, 0.28166065], "xyz": [7.79851846323591, 4.39797500892906, 12.4149727854292], "label": "S", "properties": {}}, {"species": [{"element": "S", "occu": 1}], "abc": [0.18294724, 0.47518394, 0.30962476], "xyz": [4.1235284381718005, 2.51876331865158, 13.64756833833568], "label": "S", "properties": {}}, {"species": [{"element": "S", "occu": 1}], "abc": [0.40687193, 0.24020278, 0.39232232], "xyz": [5.16715087250745, 1.27322053708746, 17.292692202181758], "label": "S", "properties": {}}, {"species": [{"element": "S", "occu": 1}], "abc": [0.66612288, 0.23903485, 0.33863511], "xyz": [7.703467831790359, 1.26702979915395, 14.92627981523448], "label": "S", "properties": {}}, {"species": [{"element": "S", "occu": 1}], "abc": [0.62076373, 0.81979664, 0.33578117], "xyz": [10.10598832346253, 4.3454198085604805, 14.80048451002856], "label": "S", "properties": {}}, {"species": [{"element": "S", "occu": 1}], "abc": [0.87318158, 0.77843606, 0.39023722000000005], "xyz": [12.37825321550054, 4.126183628688421, 17.200785648124963], "label": "S", "properties": {}}, {"species": [{"element": "S", "occu": 1}], "abc": [0.65823043, 0.49281558, 0.42437666], "xyz": [8.87028236377235, 2.61222171305706, 18.70557596409488], "label": "S", "properties": {}}, {"species": [{"element": "S", "occu": 1}], "abc": [0.91445221, 0.1608686, 0.5081148099999999], "xyz": [9.75519742686957, 0.8527012272402, 22.396566712544075], "label": "S", "properties": {}}, {"species": [{"element": "S", "occu": 1}], "abc": [0.11201507, 0.27263778, 0.45371725], "xyz": [2.43499803002563, 1.44514572513246, 19.998843683098], "label": "S", "properties": {}}, {"species": [{"element": "S", "occu": 1}], "abc": [0.11901418, 0.8027061, 0.44716953000000004], "xyz": [5.1023756525534605, 4.2548295726027, 19.71023480000904], "label": "S", "properties": {}}, {"species": [{"element": "S", "occu": 1}], "abc": [0.37333854, 0.80045399, 0.50121774], "xyz": [7.585070362033299, 4.2428920225719295, 22.09255926120432], "label": "S", "properties": {}}, {"species": [{"element": "Cl", "occu": 1}], "abc": [0.69532854, 0.00496902, 0.039267739999999995], "xyz": [6.84229211576334, 0.026338822195140003, 1.7308343336043197], "label": "Cl", "properties": {}}, {"species": [{"element": "Cl", "occu": 1}], "abc": [0.24527902, 0.8923623, 0.14059048999999998], "xyz": [6.779999542746141, 4.730061853916101, 6.196915001226319], "label": "Cl", "properties": {}}, {"species": [{"element": "Cl", "occu": 1}], "abc": [0.73307723, 0.88953386, 0.25407896], "xyz": [11.54915847751499, 4.71506940505302, 11.19923345256128], "label": "Cl", "properties": {}}, {"species": [{"element": "Cl", "occu": 1}], "abc": [0.2241026, 0.88261588, 0.36783341], "xyz": [6.52457414674404, 4.67839991183916, 16.21327570862888], "label": "Cl", "properties": {}}, {"species": [{"element": "Cl", "occu": 1}], "abc": [0.66307675, 0.99061446, 0.46890117000000003], "xyz": [11.35834480399403, 5.2508579409772205, 20.66811698618856], "label": "Cl", "properties": {}}]}, "formula": "(Li3PS4)5.0(Li2S)4.0(LiCl)5.0", "bandgap": 2.3506, "slab_thickness": 22.392158935744074}