{"miller": "11-1_0.35", "final_energy": -209.63611829, "gamma": 0.0322982105471584, "work_function": "Not calculated", "ionization_potentail": "Not calculated", "electron_affinity": "Not calculated", "is_stochiometric": false, "incar_parameters": {"SYSTEM": "unknown system", "LCOMPAT": false, "PREC": "normal", "ENMAX": 520.0, "ENAUG": 628.945, "EDIFF": 1e-05, "IALGO": 38, "IWAVPR": 11, "NBANDS": 145, "NBANDSLOW": -1, "NBANDSHIGH": -1, "NELECT": 236.0, "TURBO": 0, "IRESTART": 0, "NREBOOT": 0, "NMIN": 0, "EREF": 0.0, "ISMEAR": 0, "SIGMA": 0.05, "KSPACING": 0.5, "KGAMMA": true, "KBLOWUP": false, "LREAL": true, "ROPT": [-0.0005, -0.0005, -0.0005, -0.0005], "LMAXPAW": -100, "LMAXMIX": 2, "NLSPLINE": false, "ISTART": 0, "ICHARG": 2, "INIWAV": 1, "ISPIN": 1, "LNONCOLLINEAR": false, "MAGMOM": [0.6, 0.6, 0.6, 0.6, 0.6, 0.6, 0.6, 0.6, 0.6, 0.6, 0.6, 0.6, 0.6, 0.6, 0.6, 0.6, 0.6, 0.6, 0.6, 0.6, 0.6, 0.6, 0.6, 0.6, 0.6, 0.6, 0.6, 0.6, 0.6, 0.6, 0.6, 0.6, 0.6, 0.6, 0.6, 0.6, 0.6, 0.6, 0.6, 0.6, 0.6, 0.6, 0.6, 0.6, 0.6, 0.6, 0.6, 0.6, 0.6, 0.6, 0.6, 0.6], "NUPDOWN": -1.0, "LSORBIT": false, "SAXIS": [0.0, 0.0, 1.0], "LSPIRAL": false, "QSPIRAL": [0.0, 0.0, 0.0], "LZEROZ": false, "LASPH": false, "LMETAGGA": false, "NELM": 100, "NELMDL": -5, "NELMIN": 6, "ENINI": 520.0, "LDIAG": true, "LSUBROT": false, "WEIMIN": 0.001, "EBREAK": 2e-08, "DEPER": 0.3, "NRMM": 4, "TIME": 0.4, "AMIX": 0.4, "BMIX": 1.0, "AMIN": 0.1, "AMIX_MAG": 1.6, "BMIX_MAG": 1.0, "IMIX": 4, "MIXFIRST": false, "MAXMIX": -45, "WC": 100.0, "INIMIX": 1, "MIXPRE": 1, "MREMOVE": 5, "LDIPOL": false, "LMONO": false, "IDIPOL": 0, "EPSILON": 1.0, "DIPOL": [-100.0, -100.0, -100.0], "EFIELD": 0.0, "NGX": 56, "NGY": 40, "NGZ": 250, "NGXF": 112, "NGYF": 80, "NGZF": 500, "ADDGRID": false, "NSW": 150, "IBRION": 2, "MDALGO": 0, "ISIF": 2, "PSTRESS": 0.0, "EDIFFG": -0.01, "NFREE": 1, "POTIM": 0.5, "SMASS": -3.0, "SCALEE": 1.0, "TEBEG": 0.0001, "TEEND": 0.0001, "NBLOCK": 1, "KBLOCK": 150, "NPACO": 256, "APACO": 10.0, "ISYM": 0, "SYMPREC": 1e-05, "LORBIT": 11, "RWIGS": [-1.0, -1.0, -1.0, -1.0], "NEDOS": 301, "EMIN": 10.0, "EMAX": -10.0, "EFERMI": 0.0, "NWRITE": 2, "LWAVE": false, "LDOWNSAMPLE": false, "LCHARG": false, "LPARD": false, "LVTOT": false, "LVHAR": false, "LELF": false, "LOPTICS": false, "STM": [0.0, 0.0, 0.0, 0.0, 0.0, 0.0, 0.0], "NPAR": 1, "NSIM": 4, "NBLK": -1, "LPLANE": true, "LSCALAPACK": true, "LSCAAWARE": false, "LSCALU": false, "LASYNC": false, "LORBITALREAL": false, "IDIOT": 3, "PHON_NSTRUCT": -1, "LMUSIC": false, "POMASS": [7.01, 30.974, 32.066, 35.453], "DARWINR": [0.0, 0.0, 0.0, 0.0], "DARWINV": [1.0, 1.0, 1.0, 1.0], "LCORR": true, "GGA_COMPAT": true, "LBERRY": false, "ICORELEVEL": 0, "LDAU": false, "I_CONSTRAINED_M": 0, "GGA": "--", "VOSKOWN": 0, "LHFCALC": false, "PRECFOCK": "", "LSYMGRAD": false, "LHFONE": false, "LRHFCALC": false, "LTHOMAS": false, "LMODELHF": false, "LFOCKACE": false, "ENCUT4O": -1.0, "EXXOEP": 0, "FOURORBIT": 0, "AEXX": 0.0, "HFALPHA": 0.0, "MCALPHA": 0.0, "ALDAX": 1.0, "AGGAX": 1.0, "ALDAC": 1.0, "AGGAC": 1.0, "NKREDX": 1, "NKREDY": 1, "NKREDZ": 1, "SHIFTRED": false, "ODDONLY": false, "EVENONLY": false, "LMAXFOCK": 0, "NMAXFOCKAE": 0, "LFOCKAEDFT": false, "HFSCREEN": 0.0, "HFSCREENC": 0.0, "NBANDSGWLOW": 0, "LUSE_VDW": false, "Zab_VDW": -0.8491, "PARAM1": 0.1234, "PARAM2": 1.0, "PARAM3": 0.0, "MODEL_GW": 0, "MODEL_EPS0": 26.43355848, "MODEL_ALPHA": 1.0, "LEPSILON": false, "LRPA": false, "LNABLA": false, "LVEL": false, "CSHIFT": 0.1, "OMEGAMAX": -1.0, "DEG_THRESHOLD": 0.002, "RTIME": -0.1, "WPLASMAI": 0.0, "DFIELD": [0.0, 0.0, 0.0], "WPLASMA": [0.0, 0.0, 0.0, 0.0, 0.0, 0.0, 0.0, 0.0, 0.0], "NUCIND": false, "MAGPOS": [0.0, 0.0, 0.0], "LNICSALL": true, "ORBITALMAG": false, "LMAGBLOCH": false, "LCHIMAG": false, "LGAUGE": true, "MAGATOM": 0, "MAGDIPOL": [0.0, 0.0, 0.0], "AVECCONST": [0.0, 0.0, 0.0], "LFINITE_TEMPERATURE": false, "LADDER": false, "LRPAFORCE": false, "LFXC": false, "LHARTREE": true, "IBSE": 0, "KPOINT": [-1, 0, 0, 0], "LTCTC": false, "LTCTE": false, "LTETE": false, "LTRIPLET": false, "LFXCEPS": false, "LFXHEG": false, "NATURALO": 2, "LHOLEGF": false, "L2ORDER": false, "LDMP1": false, "LMP2LT": false, "LSMP2LT": false, "LGWLF": false, "ENCUTGW": -2.0, "ENCUTGWSOFT": -2.0, "ENCUTLF": -1.0, "LESF_SPLINES": false, "LMAXMP2": -1, "SCISSOR": 0.0, "NOMEGA": 0, "NOMEGAR": 0, "NBANDSGW": -1, "NBANDSO": -1, "NBANDSV": -1, "NELMGW": 1, "NELMHF": 1, "DIM": 3, "IESPILON": 4, "ANTIRES": 0, "OMEGAMIN": -30.0, "OMEGATL": -200.0, "OMEGAGRID": 0, "LSELFENERGY": false, "LSPECTRAL": false, "LSPECTRALGW": false, "LSINGLES": false, "LFERMIGW": false, "ODDONLYGW": false, "EVENONLYGW": false, "NKREDLFX": 1, "NKREDLFY": 1, "NKREDLFZ": 1, "MAXMEM": 2800, "TELESCOPE": 0, "NTAUPAR": -1, "NOMEGAPAR": -1, "DAMP_NEWTON": 0.80000001, "LAMBDA": 1.0, "OFIELD_KAPPA": 0.0, "OFIELD_K": [0.0, 0.0, 0.0], "OFIELD_Q6_NEAR": 0.0, "OFIELD_Q6_FAR": 0.0, "OFIELD_A": 0.0, "KPOINTS_OPT_MODE": 1, "LKPOINTS_OPT": false, "@module": "pymatgen.io.vasp.inputs", "@class": "Incar"}, "relaxed_structures": {"@module": "pymatgen.core.structure", "@class": "Structure", "charge": 0, "lattice": {"matrix": [[9.805337, 0.0, 0.0], [4.902668, 5.300607, 0.0], [0.0, 0.0, 44.077768]], "a": 9.805337, "b": 7.220290027877897, "c": 44.077768, "alpha": 90.0, "beta": 90.0, "gamma": 47.23346674215265, "volume": 2290.90840187668}, "sites": [{"species": [{"element": "Li", "occu": 1}], "abc": [0.45015519, 0.64989079, 9.99999999999994e-05], "xyz": [7.600122119876749, 3.4448156707095303, 0.004407776799999973], "label": "Li", "properties": {}}, {"species": [{"element": "Li", "occu": 1}], "abc": [0.95112178, 0.33046731, 0.01799716], "xyz": [10.94624108672294, 1.75167733665717, 0.7932746431388801], "label": "Li", "properties": {}}, {"species": [{"element": "Li", "occu": 1}], "abc": [0.7243119, 0.79025824, 0.05225009], "xyz": [10.97649605759462, 4.18884835875168, 2.30306734499912], "label": "Li", "properties": {}}, {"species": [{"element": "Li", "occu": 1}], "abc": [0.19969011, 0.59786866, 0.051677139999999996], "xyz": [4.889180371701951, 3.1690668042766204, 2.27781298782352], "label": "Li", "properties": {}}, {"species": [{"element": "Li", "occu": 1}], "abc": [0.3269046, 0.05063595, 0.036844489999999994], "xyz": [3.4536610215648, 0.26840127102165, 1.6240228822983196], "label": "Li", "properties": {}}, {"species": [{"element": "Li", "occu": 1}], "abc": [0.12817362, 0.07400204, 0.07550345], "xyz": [1.6195929720526598, 0.39225573123828006, 3.3280235522996], "label": "Li", "properties": {}}, {"species": [{"element": "Li", "occu": 1}], "abc": [0.02705934, 0.5828951, 0.10620017], "xyz": [3.12306710182438, 3.0896978473257, 4.681066454820559], "label": "Li", "properties": {}}, {"species": [{"element": "Li", "occu": 1}], "abc": [0.44744658, 0.55532199, 0.11367184999999999], "xyz": [7.10992385646678, 2.9435436274479305, 5.0104014324307995], "label": "Li", "properties": {}}, {"species": [{"element": "Li", "occu": 1}], "abc": [0.2009129, 0.79818898, 0.16370479999999998], "xyz": [5.883274262345941, 4.23088609471086, 7.215742194886399], "label": "Li", "properties": {}}, {"species": [{"element": "Li", "occu": 1}], "abc": [0.73308543, 0.5301343, 0.16744016], "xyz": [9.787222159252309, 2.8100335815201, 7.38038852636288], "label": "Li", "properties": {}}, {"species": [{"element": "Li", "occu": 1}], "abc": [0.8070347, 0.06404112, 0.15021995], "xyz": [8.22721955390206, 0.33945680895984004, 6.6213601050715996], "label": "Li", "properties": {}}, {"species": [{"element": "Li", "occu": 1}], "abc": [0.49978366, 0.16836568, 0.17762814], "xyz": [5.72598824502766, 0.89244030196776, 7.829451945191519], "label": "Li", "properties": {}}, {"species": [{"element": "Li", "occu": 1}], "abc": [0.48519688, 0.61488495, 0.21702172], "xyz": [7.77209568779516, 3.25926347016465, 9.56583302512096], "label": "Li", "properties": {}}, {"species": [{"element": "Li", "occu": 1}], "abc": [0.11139376, 0.40155703, 0.22423136], "xyz": [3.06095415765316, 2.12849600411721, 9.88361786440448], "label": "Li", "properties": {}}, {"species": [{"element": "Li", "occu": 1}], "abc": [0.72562067, 0.66647913, 0.25965887], "xyz": [10.382481106834629, 3.53274394183191, 11.445183431002159], "label": "Li", "properties": {}}, {"species": [{"element": "Li", "occu": 1}], "abc": [0.09469255, 0.70428227, 0.29763948], "xyz": [4.38135451223571, 3.73312353033789, 13.11928394708064], "label": "Li", "properties": {}}, {"species": [{"element": "Li", "occu": 1}], "abc": [0.35072223, 0.16823424, 0.27780032], "xyz": [4.2637462834938304, 0.8917435901836801, 12.244818055285759], "label": "Li", "properties": {}}, {"species": [{"element": "Li", "occu": 1}], "abc": [0.03400799, 0.15029772, 0.27936809], "xyz": [1.07031962495959, 0.79666914671604, 12.31392185762312], "label": "Li", "properties": {}}, {"species": [{"element": "Li", "occu": 1}], "abc": [0.8896759, 0.49753841, 0.32255111999999997], "xyz": [11.162837661756178, 2.63725557881487, 14.217333435500159], "label": "Li", "properties": {}}, {"species": [{"element": "Li", "occu": 1}], "abc": [0.60355973, 0.43601402, 0.34076462], "xyz": [8.05573853568437, 2.31113896651014, 15.02014386296816], "label": "Li", "properties": {}}, {"species": [{"element": "Li", "occu": 1}], "abc": [0.40887952, 0.37673463, 0.40822641], "xyz": [5.85620630099108, 1.9969222169204102, 17.99370899145288], "label": "Li", "properties": {}}, {"species": [{"element": "Li", "occu": 1}], "abc": [0.61638793, 0.76968584, 0.40152565], "xyz": [9.81740551420353, 4.07980215130488, 17.6983544467492], "label": "Li", "properties": {}}, {"species": [{"element": "Li", "occu": 1}], "abc": [0.89643607, 0.03804591, 0.37545911], "xyz": [8.976384230793471, 0.20166641686737002, 16.54939954406648], "label": "Li", "properties": {}}, {"species": [{"element": "Li", "occu": 1}], "abc": [0.79978482, 0.13527924, 0.43307777], "xyz": [8.50538888859666, 0.71706208649868, 19.089101472017358], "label": "Li", "properties": {}}, {"species": [{"element": "Li", "occu": 1}], "abc": [0.30216751, 0.82771296, 0.39155296], "xyz": [7.020856108178151, 4.387381109766721, 17.25878053059328], "label": "Li", "properties": {}}, {"species": [{"element": "Li", "occu": 1}], "abc": [0.95085917, 0.67172887, 0.41458708], "xyz": [12.61675823701545, 3.56057075042409, 18.27407312803744], "label": "Li", "properties": {}}, {"species": [{"element": "P", "occu": 1}], "abc": [0.49771908, 0.02653202, 0.10964336], "xyz": [5.01038099615932, 0.14063581093614, 4.83283458482048], "label": "P", "properties": {}}, {"species": [{"element": "P", "occu": 1}], "abc": [0.99106807, 0.01766328, 0.22162349], "xyz": [9.804353613920629, 0.09362610561096, 9.76866877557032], "label": "P", "properties": {}}, {"species": [{"element": "P", "occu": 1}], "abc": [0.51962878, 0.02285235, 0.34138572], "xyz": [5.20717278786866, 0.12113132637645001, 15.04752056467296], "label": "P", "properties": {}}, {"species": [{"element": "S", "occu": 1}], "abc": [0.52459806, 0.21979689, 0.07931703], "xyz": [6.22145194694874, 1.16505693371223, 3.4961176467890396], "label": "S", "properties": {}}, {"species": [{"element": "S", "occu": 1}], "abc": [0.49703657, 0.79206114, 0.08287776], "xyz": [8.756823875295611, 4.19840482311198, 3.65306667763968], "label": "S", "properties": {}}, {"species": [{"element": "S", "occu": 1}], "abc": [0.17916881, 0.89222714, 0.024370689999999997], "xyz": [6.131104009948491, 4.729345423873981, 1.07420561981992], "label": "S", "properties": {}}, {"species": [{"element": "S", "occu": 1}], "abc": [0.04453665, 0.45711278, 0.055872019999999994], "xyz": [2.67776906099809, 2.42297520145746, 2.46271393525136], "label": "S", "properties": {}}, {"species": [{"element": "S", "occu": 1}], "abc": [0.27983922, 0.23907764, 0.13852234], "xyz": [3.9160361530606598, 1.2672566121274802, 6.10575556533712], "label": "S", "properties": {}}, {"species": [{"element": "S", "occu": 1}], "abc": [0.03375203, 0.19722059, 0.19188848], "xyz": [1.29785710411823, 1.0453888398981301, 8.45801590331264], "label": "S", "properties": {}}, {"species": [{"element": "S", "occu": 1}], "abc": [0.98352856, 0.79177565, 0.19449812], "xyz": [13.52564212235892, 4.196891552819551, 8.57304300979616], "label": "S", "properties": {}}, {"species": [{"element": "S", "occu": 1}], "abc": [0.73507303, 0.80674388, 0.13708423], "xyz": [11.162836183432951, 4.27623225753516, 6.04236688639864], "label": "S", "properties": {}}, {"species": [{"element": "S", "occu": 1}], "abc": [0.52807753, 0.4707605, 0.1657795], "xyz": [7.48596058279161, 2.4953164016235, 7.307190340156], "label": "S", "properties": {}}, {"species": [{"element": "S", "occu": 1}], "abc": [0.76273889, 0.2704408, 0.24849213999999997], "xyz": [8.804793315510329, 1.4335003975656, 10.952978896743518], "label": "S", "properties": {}}, {"species": [{"element": "S", "occu": 1}], "abc": [0.44964573, 0.31460575, 0.31590528], "xyz": [5.951335456402011, 1.6676014406902502, 13.92439964181504], "label": "S", "properties": {}}, {"species": [{"element": "S", "occu": 1}], "abc": [0.53082636, 0.78987161, 0.3111545], "xyz": [9.077409614738801, 4.18679898506727, 13.714995863156], "label": "S", "properties": {}}, {"species": [{"element": "S", "occu": 1}], "abc": [0.21875441, 0.77942078, 0.24992537999999997], "xyz": [5.96620202692721, 4.131403242413461, 11.016152916951839], "label": "S", "properties": {}}, {"species": [{"element": "S", "occu": 1}], "abc": [0.02289121, 0.47944379, 0.27612133], "xyz": [2.5750097554194897, 2.54134310938053, 12.17081192359144], "label": "S", "properties": {}}, {"species": [{"element": "S", "occu": 1}], "abc": [0.33150695, 0.1486504, 0.37551568], "xyz": [3.97932092185935, 0.7879373507928, 16.55189302340224], "label": "S", "properties": {}}, {"species": [{"element": "S", "occu": 1}], "abc": [0.10577306, 0.80040082, 0.41537775], "xyz": [4.96123998620898, 4.24261018929774, 18.308924096862], "label": "S", "properties": {}}, {"species": [{"element": "S", "occu": 1}], "abc": [0.78461206, 0.80627829, 0.35973451], "xyz": [11.64630043404194, 4.27376434792203, 15.85629427337368], "label": "S", "properties": {}}, {"species": [{"element": "S", "occu": 1}], "abc": [0.61584195, 0.44390094, 0.39436899999999997], "xyz": [8.21483679219507, 2.3529444298705804, 17.382905288392], "label": "S", "properties": {}}, {"species": [{"element": "Cl", "occu": 1}], "abc": [0.64126267, 0.72076796, 0.0031268900000000002], "xyz": [9.821482597787071, 3.82050769415172, 0.13782633198152], "label": "Cl", "properties": {}}, {"species": [{"element": "Cl", "occu": 1}], "abc": [0.07322432, 0.88750161, 0.11295776999999999], "xyz": [5.069114877491321, 4.70429724647727, 4.978926379857359], "label": "Cl", "properties": {}}, {"species": [{"element": "Cl", "occu": 1}], "abc": [0.48073895, 0.99193857, 0.22531211], "xyz": [9.57695289888091, 5.25787652771199, 9.93125491217048], "label": "Cl", "properties": {}}, {"species": [{"element": "Cl", "occu": 1}], "abc": [0.96749461, 0.09395008, 0.32729857], "xyz": [9.94721674754701, 0.49799245169856005, 14.42659043519176], "label": "Cl", "properties": {}}, {"species": [{"element": "Cl", "occu": 1}], "abc": [0.6708899, 0.94106339, 0.44056246], "xyz": [11.19202292752082, 4.988207192477731, 19.41900990138928], "label": "Cl", "properties": {}}]}, "formula": "(Li3PS4)3.0(Li2S)6.0(LiCl)5.0", "bandgap": 2.0008, "slab_thickness": 19.41460212458928}