{"miller": "110_0.28", "final_energy": -429.85204179, "gamma": 0.02315503375913669, "work_function": "Not calculated", "ionization_potentail": "Not calculated", "electron_affinity": "Not calculated", "is_stochiometric": true, "incar_parameters": {"SYSTEM": "unknown system", "LCOMPAT": false, "PREC": "normal", "ENMAX": 520.0, "ENAUG": 628.945, "EDIFF": 1e-05, "IALGO": 38, "IWAVPR": 11, "NBANDS": 293, "NBANDSLOW": -1, "NBANDSHIGH": -1, "NELECT": 480.0, "TURBO": 0, "IRESTART": 0, "NREBOOT": 0, "NMIN": 0, "EREF": 0.0, "ISMEAR": 0, "SIGMA": 0.05, "KSPACING": 0.5, "KGAMMA": true, "KBLOWUP": true, "LREAL": true, "ROPT": [-0.0005, -0.0005, -0.0005, -0.0005], "LMAXPAW": -100, "LMAXMIX": 2, "NLSPLINE": false, "ISTART": 0, "ICHARG": 2, "INIWAV": 1, "ISPIN": 1, "LNONCOLLINEAR": false, "MAGMOM": [0.6, 0.6, 0.6, 0.6, 0.6, 0.6, 0.6, 0.6, 0.6, 0.6, 0.6, 0.6, 0.6, 0.6, 0.6, 0.6, 0.6, 0.6, 0.6, 0.6, 0.6, 0.6, 0.6, 0.6, 0.6, 0.6, 0.6, 0.6, 0.6, 0.6, 0.6, 0.6, 0.6, 0.6, 0.6, 0.6, 0.6, 0.6, 0.6, 0.6, 0.6, 0.6, 0.6, 0.6, 0.6, 0.6, 0.6, 0.6, 0.6, 0.6, 0.6, 0.6, 0.6, 0.6, 0.6, 0.6, 0.6, 0.6, 0.6, 0.6, 0.6, 0.6, 0.6, 0.6, 0.6, 0.6, 0.6, 0.6, 0.6, 0.6, 0.6, 0.6, 0.6, 0.6, 0.6, 0.6, 0.6, 0.6, 0.6, 0.6, 0.6, 0.6, 0.6, 0.6, 0.6, 0.6, 0.6, 0.6, 0.6, 0.6, 0.6, 0.6, 0.6, 0.6, 0.6, 0.6, 0.6, 0.6, 0.6, 0.6, 0.6, 0.6, 0.6, 0.6], "NUPDOWN": -1.0, "LSORBIT": false, "SAXIS": [0.0, 0.0, 1.0], "LSPIRAL": false, "QSPIRAL": [0.0, 0.0, 0.0], "LZEROZ": false, "LASPH": false, "LMETAGGA": false, "NELM": 100, "NELMDL": -5, "NELMIN": 6, "ENINI": 520.0, "LDIAG": true, "LSUBROT": false, "WEIMIN": 0.001, "EBREAK": 1e-08, "DEPER": 0.3, "NRMM": 4, "TIME": 0.4, "AMIX": 0.4, "BMIX": 1.0, "AMIN": 0.1, "AMIX_MAG": 1.6, "BMIX_MAG": 1.0, "IMIX": 4, "MIXFIRST": false, "MAXMIX": -45, "WC": 100.0, "INIMIX": 1, "MIXPRE": 1, "MREMOVE": 5, "LDIPOL": false, "LMONO": false, "IDIPOL": 0, "EPSILON": 1.0, "DIPOL": [-100.0, -100.0, -100.0], "EFIELD": 0.0, "NGX": 60, "NGY": 56, "NGZ": 250, "NGXF": 120, "NGYF": 112, "NGZF": 500, "ADDGRID": false, "NSW": 150, "IBRION": 2, "MDALGO": 0, "ISIF": 2, "PSTRESS": 0.0, "EDIFFG": -0.01, "NFREE": 1, "POTIM": 0.5, "SMASS": -3.0, "SCALEE": 1.0, "TEBEG": 0.0001, "TEEND": 0.0001, "NBLOCK": 1, "KBLOCK": 150, "NPACO": 256, "APACO": 10.0, "ISYM": 0, "SYMPREC": 1e-05, "LORBIT": 11, "RWIGS": [-1.0, -1.0, -1.0, -1.0], "NEDOS": 301, "EMIN": 10.0, "EMAX": -10.0, "EFERMI": 0.0, "NWRITE": 2, "LWAVE": false, "LDOWNSAMPLE": false, "LCHARG": false, "LPARD": false, "LVTOT": false, "LVHAR": false, "LELF": false, "LOPTICS": false, "STM": [0.0, 0.0, 0.0, 0.0, 0.0, 0.0, 0.0], "NPAR": 1, "NSIM": 1, "NBLK": -1, "LPLANE": true, "LSCALAPACK": true, "LSCAAWARE": false, "LSCALU": false, "LASYNC": false, "LORBITALREAL": false, "IDIOT": 3, "PHON_NSTRUCT": -1, "LMUSIC": false, "POMASS": [7.01, 30.974, 32.066, 35.453], "DARWINR": [0.0, 0.0, 0.0, 0.0], "DARWINV": [1.0, 1.0, 1.0, 1.0], "LCORR": true, "GGA_COMPAT": true, "LBERRY": false, "ICORELEVEL": 0, "LDAU": false, "I_CONSTRAINED_M": 0, "GGA": "--", "VOSKOWN": 0, "LHFCALC": false, "PRECFOCK": "", "LSYMGRAD": false, "LHFONE": false, "LRHFCALC": false, "LTHOMAS": false, "LMODELHF": false, "LFOCKACE": false, "ENCUT4O": -1.0, "EXXOEP": 0, "FOURORBIT": 0, "AEXX": 0.0, "HFALPHA": 0.0, "MCALPHA": 0.0, "ALDAX": 1.0, "AGGAX": 1.0, "ALDAC": 1.0, "AGGAC": 1.0, "NKREDX": 1, "NKREDY": 1, "NKREDZ": 1, "SHIFTRED": false, "ODDONLY": false, "EVENONLY": false, "LMAXFOCK": 0, "NMAXFOCKAE": 0, "LFOCKAEDFT": false, "HFSCREEN": 0.0, "HFSCREENC": 0.0, "NBANDSGWLOW": 0, "LUSE_VDW": false, "Zab_VDW": -0.8491, "PARAM1": 0.1234, "PARAM2": 1.0, "PARAM3": 0.0, "MODEL_GW": 0, "MODEL_EPS0": 26.42375803, "MODEL_ALPHA": 1.0, "LEPSILON": false, "LRPA": false, "LNABLA": false, "LVEL": false, "CSHIFT": 0.1, "OMEGAMAX": -1.0, "DEG_THRESHOLD": 0.002, "RTIME": -0.1, "WPLASMAI": 0.0, "DFIELD": [0.0, 0.0, 0.0], "WPLASMA": [0.0, 0.0, 0.0, 0.0, 0.0, 0.0, 0.0, 0.0, 0.0], "NUCIND": false, "MAGPOS": [0.0, 0.0, 0.0], "LNICSALL": true, "ORBITALMAG": false, "LMAGBLOCH": false, "LCHIMAG": false, "LGAUGE": true, "MAGATOM": 0, "MAGDIPOL": [0.0, 0.0, 0.0], "AVECCONST": [0.0, 0.0, 0.0], "LFINITE_TEMPERATURE": false, "LADDER": false, "LRPAFORCE": false, "LFXC": false, "LHARTREE": true, "IBSE": 0, "KPOINT": [-1, 0, 0, 0], "LTCTC": false, "LTCTE": false, "LTETE": false, "LTRIPLET": false, "LFXCEPS": false, "LFXHEG": false, "NATURALO": 2, "LHOLEGF": false, "L2ORDER": false, "LDMP1": false, "LMP2LT": false, "LSMP2LT": false, "LGWLF": false, "ENCUTGW": -2.0, "ENCUTGWSOFT": -2.0, "ENCUTLF": -1.0, "LESF_SPLINES": false, "LMAXMP2": -1, "SCISSOR": 0.0, "NOMEGA": 0, "NOMEGAR": 0, "NBANDSGW": -1, "NBANDSO": -1, "NBANDSV": -1, "NELMGW": 1, "NELMHF": 1, "DIM": 3, "IESPILON": 4, "ANTIRES": 0, "OMEGAMIN": -30.0, "OMEGATL": -200.0, "OMEGAGRID": 0, "LSELFENERGY": false, "LSPECTRAL": false, "LSPECTRALGW": false, "LSINGLES": false, "LFERMIGW": false, "ODDONLYGW": false, "EVENONLYGW": false, "NKREDLFX": 1, "NKREDLFY": 1, "NKREDLFZ": 1, "MAXMEM": 2800, "TELESCOPE": 0, "NTAUPAR": -1, "NOMEGAPAR": -1, "DAMP_NEWTON": 0.80000001, "LAMBDA": 1.0, "OFIELD_KAPPA": 0.0, "OFIELD_K": [0.0, 0.0, 0.0], "OFIELD_Q6_NEAR": 0.0, "OFIELD_Q6_FAR": 0.0, "OFIELD_A": 0.0, "KPOINTS_OPT_MODE": 1, "LKPOINTS_OPT": false, "@module": "pymatgen.io.vasp.inputs", "@class": "Incar"}, "relaxed_structures": {"@module": "pymatgen.core.structure", "@class": "Structure", "charge": 0, "lattice": {"matrix": [[10.604103, 0.0, 0.0], [0.0, 9.802244, 0.0], [0.0, 0.0, 44.063321]], "a": 10.604103, "b": 9.802244, "c": 44.063321, "alpha": 90.0, "beta": 90.0, "gamma": 90.0, "volume": 4580.118058654865}, "sites": [{"species": [{"element": "Li", "occu": 1}], "abc": [0.60501709, 0.74110341, 9.99999999999994e-05], "xyz": [6.4156635391202705, 7.264476454052041, 0.004406332099999973], "label": "Li", "properties": {}}, {"species": [{"element": "Li", "occu": 1}], "abc": [0.77797861, 0.45566224, 0.06061448999999999], "xyz": [8.24976531223683, 4.46651245806656, 2.6708757301212898], "label": "Li", "properties": {}}, {"species": [{"element": "Li", "occu": 1}], "abc": [0.89141968, 0.06863553, 0.0059900399999999986], "xyz": [9.45270610294704, 0.67278221212932, 0.26394105532283996], "label": "Li", "properties": {}}, {"species": [{"element": "Li", "occu": 1}], "abc": [0.55805768, 0.97703286, 0.037403240000000004], "xyz": [5.91770111866104, 9.57711448973784, 1.6481109705600403], "label": "Li", "properties": {}}, {"species": [{"element": "Li", "occu": 1}], "abc": [0.27610943, 0.9333828, 0.0638704], "xyz": [2.92789283499129, 9.1492459510032, 2.8143419375984], "label": "Li", "properties": {}}, {"species": [{"element": "Li", "occu": 1}], "abc": [0.30288084, 0.34174117, 0.05849027], "xyz": [3.2117796240865197, 3.34983033318548, 2.57727554238667], "label": "Li", "properties": {}}, {"species": [{"element": "Li", "occu": 1}], "abc": [0.97999563, 0.46206175, 0.10517512], "xyz": [10.39197460006989, 4.529242016567, 4.6343650737735205], "label": "Li", "properties": {}}, {"species": [{"element": "Li", "occu": 1}], "abc": [0.79808789, 0.83968588, 0.052096359999999994], "xyz": [8.46300618861267, 8.23080587911472, 2.2955386336115597], "label": "Li", "properties": {}}, {"species": [{"element": "Li", "occu": 1}], "abc": [0.80923455, 0.19549118, 0.12685402], "xyz": [8.58120651935865, 1.91625224620792, 5.589609403400421], "label": "Li", "properties": {}}, {"species": [{"element": "Li", "occu": 1}], "abc": [0.78346215, 0.65738098, 0.10865892], "xyz": [8.30791333520145, 6.44380876691912, 4.78787287147332], "label": "Li", "properties": {}}, {"species": [{"element": "Li", "occu": 1}], "abc": [0.80523817, 0.97024286, 0.17826006], "xyz": [8.53882849421151, 9.51055725297784, 7.85473024525926], "label": "Li", "properties": {}}, {"species": [{"element": "Li", "occu": 1}], "abc": [0.77630901, 0.41297439, 0.16880972], "xyz": [8.23206070186803, 4.04807573653116, 7.43831688028012], "label": "Li", "properties": {}}, {"species": [{"element": "Li", "occu": 1}], "abc": [0.28411255, 0.6959142, 0.12188866], "xyz": [3.0127587437926504, 6.8215207914648, 5.37081915183986], "label": "Li", "properties": {}}, {"species": [{"element": "Li", "occu": 1}], "abc": [0.31690793, 0.13445361, 0.11005453999999999], "xyz": [3.3605243312367903, 1.31794709190084, 4.84936852352734], "label": "Li", "properties": {}}, {"species": [{"element": "Li", "occu": 1}], "abc": [0.30065353, 0.46474779, 0.17790398000000002], "xyz": [3.18816099943359, 4.55557123604076, 7.839040177917581], "label": "Li", "properties": {}}, {"species": [{"element": "Li", "occu": 1}], "abc": [0.28467252, 0.89773687, 0.16740485000000002], "xyz": [3.01869672334956, 8.799835847536281, 7.376413642506852], "label": "Li", "properties": {}}, {"species": [{"element": "Li", "occu": 1}], "abc": [0.06139032, 0.07917763, 0.12880799], "xyz": [0.65098927648296, 0.77611844860172, 5.6757078107347905], "label": "Li", "properties": {}}, {"species": [{"element": "Li", "occu": 1}], "abc": [0.02680066, 0.83416347, 0.10004792], "xyz": [0.28419695910798, 8.176673868826681, 4.40844361434232], "label": "Li", "properties": {}}, {"species": [{"element": "Li", "occu": 1}], "abc": [0.54032808, 0.5407923, 0.1263051], "xyz": [5.7296946141122405, 5.3009780779212, 5.5654221652371], "label": "Li", "properties": {}}, {"species": [{"element": "Li", "occu": 1}], "abc": [0.5727421, 0.25943336, 0.10404543], "xyz": [6.0734162208363, 2.54302909645984, 4.58458718067303], "label": "Li", "properties": {}}, {"species": [{"element": "Li", "occu": 1}], "abc": [0.79451928, 0.71612391, 0.23579680000000003], "xyz": [8.425164280605841, 7.019621300054039, 10.389990089172802], "label": "Li", "properties": {}}, {"species": [{"element": "Li", "occu": 1}], "abc": [0.79358451, 0.16980312, 0.22278620000000002], "xyz": [8.41525188324453, 1.66445161420128, 9.816699844970202], "label": "Li", "properties": {}}, {"species": [{"element": "Li", "occu": 1}], "abc": [0.78605649, 0.48695135, 0.28984396], "xyz": [8.33542398377847, 4.7732159488294, 12.771487449391161], "label": "Li", "properties": {}}, {"species": [{"element": "Li", "occu": 1}], "abc": [0.80324817, 0.91683731, 0.27885909000000003], "xyz": [8.51772632924151, 8.98706302092364, 12.287457596437893], "label": "Li", "properties": {}}, {"species": [{"element": "Li", "occu": 1}], "abc": [0.2921634, 0.21298297, 0.23383817], "xyz": [3.0981307864302003, 2.08771103978468, 10.303686346762571], "label": "Li", "properties": {}}, {"species": [{"element": "Li", "occu": 1}], "abc": [0.2940635, 0.6662038, 0.22103623], "xyz": [3.1182796425404997, 6.5302922013272005, 9.73959035511983], "label": "Li", "properties": {}}, {"species": [{"element": "Li", "occu": 1}], "abc": [0.27808193, 0.97102692, 0.28785639], "xyz": [2.94880942815879, 9.51824280040848, 12.683908514471192], "label": "Li", "properties": {}}, {"species": [{"element": "Li", "occu": 1}], "abc": [0.30456858, 0.41358914, 0.27878972], "xyz": [3.22967659288374, 4.05410166603016, 12.28440092386012], "label": "Li", "properties": {}}, {"species": [{"element": "Li", "occu": 1}], "abc": [0.04266626, 0.54139466, 0.25020954], "xyz": [0.45243741566477996, 5.30688255761704, 11.02506327828234], "label": "Li", "properties": {}}, {"species": [{"element": "Li", "occu": 1}], "abc": [0.03906176, 0.34610241, 0.20822707000000001], "xyz": [0.41421492640128005, 3.3925802718080402, 9.17517622629947], "label": "Li", "properties": {}}, {"species": [{"element": "Li", "occu": 1}], "abc": [0.53994762, 0.03750514, 0.24857074], "xyz": [5.72566017708486, 0.36763453353416, 10.952852307827541], "label": "Li", "properties": {}}, {"species": [{"element": "Li", "occu": 1}], "abc": [0.542492, 0.84014724, 0.2064907], "xyz": [5.7526410446759995, 8.23532824240656, 9.0986659976147], "label": "Li", "properties": {}}, {"species": [{"element": "Li", "occu": 1}], "abc": [0.81905556, 0.25009213, 0.34721956], "xyz": [8.68534952096268, 2.4514640807397203, 15.29964692975876], "label": "Li", "properties": {}}, {"species": [{"element": "Li", "occu": 1}], "abc": [0.78451186, 0.68915148, 0.33506187], "xyz": [8.31904456816158, 6.75523095992112, 14.76393873267027], "label": "Li", "properties": {}}, {"species": [{"element": "Li", "occu": 1}], "abc": [0.80400781, 0.04169463, 0.39866198], "xyz": [8.52578163004443, 0.40870093674972, 17.56637079523558], "label": "Li", "properties": {}}, {"species": [{"element": "Li", "occu": 1}], "abc": [0.77461006, 0.45158114, 0.39338208], "xyz": [8.21404486107618, 4.42650852007816, 17.33372086668768], "label": "Li", "properties": {}}, {"species": [{"element": "Li", "occu": 1}], "abc": [0.28438611, 0.72600288, 0.34771264], "xyz": [3.0156596022093303, 7.11645737446272, 15.321373672077442], "label": "Li", "properties": {}}, {"species": [{"element": "Li", "occu": 1}], "abc": [0.30742511, 0.18907567, 0.330007], "xyz": [3.25996753122633, 1.85336585180348, 14.541204373247], "label": "Li", "properties": {}}, {"species": [{"element": "Li", "occu": 1}], "abc": [0.3902395, 0.31402254, 0.45049476], "xyz": [4.1381398526685, 3.0781255585797602, 19.850295218697962], "label": "Li", "properties": {}}, {"species": [{"element": "Li", "occu": 1}], "abc": [0.2785867, 0.92680378, 0.39587672], "xyz": [2.9541620612301003, 9.08475679168232, 17.443642989787122], "label": "Li", "properties": {}}, {"species": [{"element": "Li", "occu": 1}], "abc": [0.07128176, 0.12001358, 0.35297897], "xyz": [0.75587912506128, 1.17640239447352, 15.553425661359372], "label": "Li", "properties": {}}, {"species": [{"element": "Li", "occu": 1}], "abc": [0.04186868, 0.83965136, 0.33043402], "xyz": [0.44397979519404, 8.23046750565184, 14.56002029258042], "label": "Li", "properties": {}}, {"species": [{"element": "Li", "occu": 1}], "abc": [0.52678876, 0.5502167, 0.35675947], "xyz": [5.58612227028228, 5.3933583462748, 15.720007046399871], "label": "Li", "properties": {}}, {"species": [{"element": "Li", "occu": 1}], "abc": [0.56208429, 0.30377726, 0.32822797000000004], "xyz": [5.960399705841871, 2.9776988241714397, 14.462814403288371], "label": "Li", "properties": {}}, {"species": [{"element": "Li", "occu": 1}], "abc": [0.05640899, 0.4053912, 0.42022303], "xyz": [0.59816674008597, 3.9737434578528, 18.51642226248263], "label": "Li", "properties": {}}, {"species": [{"element": "Li", "occu": 1}], "abc": [0.10646448, 0.64310263, 0.45676972], "xyz": [1.12896031176144, 6.30384889630172, 20.12679079544012], "label": "Li", "properties": {}}, {"species": [{"element": "Li", "occu": 1}], "abc": [0.29640619, 0.54158467, 0.40462697000000003], "xyz": [3.1431217685975703, 5.30874508199948, 17.82920806436737], "label": "Li", "properties": {}}, {"species": [{"element": "Li", "occu": 1}], "abc": [0.48009048, 0.92188565, 0.35143168], "xyz": [5.09092889923944, 9.0365480813986, 15.485246925409282], "label": "Li", "properties": {}}, {"species": [{"element": "P", "occu": 1}], "abc": [0.49931035, 0.65840508, 0.05871870999999999], "xyz": [5.29473838036605, 6.45384724499952, 2.58734136743591], "label": "P", "properties": {}}, {"species": [{"element": "P", "occu": 1}], "abc": [0.00871331, 0.16128074, 0.06092494], "xyz": [0.09239683671093, 1.58091316598056, 2.68455518812574], "label": "P", "properties": {}}, {"species": [{"element": "P", "occu": 1}], "abc": [0.52365389, 0.18491178, 0.1730626], "xyz": [5.55287978591067, 1.81255038603432, 7.6257128968946], "label": "P", "properties": {}}, {"species": [{"element": "P", "occu": 1}], "abc": [0.01425757, 0.67981228, 0.17360718], "xyz": [0.15118874080971, 6.663685842756321, 7.6497089002447805], "label": "P", "properties": {}}, {"species": [{"element": "P", "occu": 1}], "abc": [0.51511728, 0.70335923, 0.28296435000000003], "xyz": [5.4623566941998405, 6.89449879211212, 12.468348985606353], "label": "P", "properties": {}}, {"species": [{"element": "P", "occu": 1}], "abc": [0.02311973, 0.19823347, 0.2839301], "xyz": [0.24516399825219, 1.94313284190668, 12.510903137862101], "label": "P", "properties": {}}, {"species": [{"element": "P", "occu": 1}], "abc": [0.5094377, 0.22131251, 0.39590817], "xyz": [5.4021298428831, 2.1693592232724397, 17.445028781232573], "label": "P", "properties": {}}, {"species": [{"element": "P", "occu": 1}], "abc": [0.00051879, 0.72478364, 0.39813871], "xyz": [0.00550130259537, 7.1045060864881595, 17.54331378125591], "label": "P", "properties": {}}, {"species": [{"element": "S", "occu": 1}], "abc": [0.59971715, 0.53186523, 0.031094], "xyz": [6.359462429466451, 5.21347275957612, 1.370104903174], "label": "S", "properties": {}}, {"species": [{"element": "S", "occu": 1}], "abc": [0.60308929, 0.77563868, 0.08865511999999999], "xyz": [6.395220949356871, 7.60299959719792, 3.9064390108535196], "label": "S", "properties": {}}, {"species": [{"element": "S", "occu": 1}], "abc": [0.10948835, 0.0380806, 0.03321375], "xyz": [1.16102574070005, 0.37327533286639997, 1.46350812786375], "label": "S", "properties": {}}, {"species": [{"element": "S", "occu": 1}], "abc": [0.12154128, 0.27356832, 0.09137692], "xyz": [1.2888362518718401, 2.6815834233100797, 4.02637055795132], "label": "S", "properties": {}}, {"species": [{"element": "S", "occu": 1}], "abc": [0.39789464, 0.78494468, 0.03078188], "xyz": [4.21931574570792, 7.69421927986192, 1.35635185942348], "label": "S", "properties": {}}, {"species": [{"element": "S", "occu": 1}], "abc": [0.37981276, 0.5403155, 0.08586421], "xyz": [4.02757362775428, 5.296304367982, 3.78346224764141], "label": "S", "properties": {}}, {"species": [{"element": "S", "occu": 1}], "abc": [0.90645331, 0.28761505, 0.03438909999999999], "xyz": [9.61212426393093, 2.8192728981722, 1.5152979522010996], "label": "S", "properties": {}}, {"species": [{"element": "S", "occu": 1}], "abc": [0.89451866, 0.04119417, 0.08948062], "xyz": [9.48556800606198, 0.40379530571748, 3.94281328233902], "label": "S", "properties": {}}, {"species": [{"element": "S", "occu": 1}], "abc": [0.72625439, 0.9257639, 0.007178089999999998], "xyz": [7.701276355762171, 9.0745636341916, 0.3162904838368899], "label": "S", "properties": {}}, {"species": [{"element": "S", "occu": 1}], "abc": [0.62650527, 0.06288119, 0.14451867000000002], "xyz": [6.64352641312281, 0.6163767673903601, 6.367972546703071], "label": "S", "properties": {}}, {"species": [{"element": "S", "occu": 1}], "abc": [0.61956989, 0.30895692, 0.20196357], "xyz": [6.56998292925867, 3.0284711153284802, 8.899185615215972], "label": "S", "properties": {}}, {"species": [{"element": "S", "occu": 1}], "abc": [0.11746168, 0.5496458, 0.14632419000000002], "xyz": [1.24557575327304, 5.3877622451752, 6.447529754034991], "label": "S", "properties": {}}, {"species": [{"element": "S", "occu": 1}], "abc": [0.11731643, 0.80420164, 0.20079908000000002], "xyz": [1.24403550731229, 7.882980700480161, 8.847874318544681], "label": "S", "properties": {}}, {"species": [{"element": "S", "occu": 1}], "abc": [0.411962, 0.30487536, 0.14479782000000002], "xyz": [4.368487480086, 2.98846266830784, 6.3802728227602215], "label": "S", "properties": {}}, {"species": [{"element": "S", "occu": 1}], "abc": [0.40658743, 0.06017675, 0.19919682], "xyz": [4.3114949862252905, 0.589867186627, 8.77727342183922], "label": "S", "properties": {}}, {"species": [{"element": "S", "occu": 1}], "abc": [0.89508102, 0.79409352, 0.14679891], "xyz": [9.49153132942506, 7.78389844185888, 6.46844749378011], "label": "S", "properties": {}}, {"species": [{"element": "S", "occu": 1}], "abc": [0.90288094, 0.55773334, 0.20187377], "xyz": [9.57424248449682, 5.46703828561496, 8.89522872899017], "label": "S", "properties": {}}, {"species": [{"element": "S", "occu": 1}], "abc": [0.22456552, 0.92226018, 0.11671068999999999], "xyz": [2.38131590432856, 9.04021931584392, 5.14266059760149], "label": "S", "properties": {}}, {"species": [{"element": "S", "occu": 1}], "abc": [0.74512844, 0.42099776, 0.11560594], "xyz": [7.90141872598932, 4.12672276697344, 5.093981643726741], "label": "S", "properties": {}}, {"species": [{"element": "S", "occu": 1}], "abc": [0.6184108, 0.57842946, 0.25595754], "xyz": [6.5576918195124, 5.669906703708239, 11.27833924739034], "label": "S", "properties": {}}, {"species": [{"element": "S", "occu": 1}], "abc": [0.61786333, 0.83369921, 0.31027645], "xyz": [6.5518863912429905, 8.17212307902724, 13.67181081509045], "label": "S", "properties": {}}, {"species": [{"element": "S", "occu": 1}], "abc": [0.11942919, 0.07430215, 0.25505981], "xyz": [1.2664394319665702, 0.7283278040246, 11.23878228222901], "label": "S", "properties": {}}, {"species": [{"element": "S", "occu": 1}], "abc": [0.12485806, 0.32104477, 0.31255247], "xyz": [1.3240077286201801, 3.1469591704638797, 13.772099814952872], "label": "S", "properties": {}}, {"species": [{"element": "S", "occu": 1}], "abc": [0.40353112, 0.82522675, 0.2546947], "xyz": [4.279085560185361, 8.089073958827, 11.2226943230987], "label": "S", "properties": {}}, {"species": [{"element": "S", "occu": 1}], "abc": [0.39548206, 0.58939225, 0.30981383], "xyz": [4.193732498892181, 5.777366646209, 13.651426241529432], "label": "S", "properties": {}}, {"species": [{"element": "S", "occu": 1}], "abc": [0.90619135, 0.32264563, 0.25767915], "xyz": [9.60934641310905, 3.1626511907937203, 11.354199101457151], "label": "S", "properties": {}}, {"species": [{"element": "S", "occu": 1}], "abc": [0.91152618, 0.07819693, 0.31217288], "xyz": [9.66591749991654, 0.7665053879109199, 13.75537381893448], "label": "S", "properties": {}}, {"species": [{"element": "S", "occu": 1}], "abc": [0.22992573, 0.44014501, 0.22856848000000002], "xyz": [2.43815612327019, 4.31440878340244, 10.07148630472208], "label": "S", "properties": {}}, {"species": [{"element": "S", "occu": 1}], "abc": [0.73058384, 0.94255969, 0.22830159], "xyz": [7.74718628949552, 9.23920006594436, 10.059726244980391], "label": "S", "properties": {}}, {"species": [{"element": "S", "occu": 1}], "abc": [0.62288808, 0.10938055, 0.36551755], "xyz": [6.6051693577922395, 1.0721748399542002, 16.105917136783553], "label": "S", "properties": {}}, {"species": [{"element": "S", "occu": 1}], "abc": [0.61018332, 0.34322312, 0.42391957], "xyz": [6.47044677416196, 3.36435676868128, 18.67930409109197], "label": "S", "properties": {}}, {"species": [{"element": "S", "occu": 1}], "abc": [0.10339786, 0.60766773, 0.36801972], "xyz": [1.09644155741958, 5.956507360386119, 16.216171056690122], "label": "S", "properties": {}}, {"species": [{"element": "S", "occu": 1}], "abc": [0.10156368, 0.85095464, 0.42573381], "xyz": [1.07699172377904, 8.34126501421216, 18.759245530583012], "label": "S", "properties": {}}, {"species": [{"element": "S", "occu": 1}], "abc": [0.39552721, 0.34204471, 0.36741976], "xyz": [4.1942112741426305, 3.3528057063292396, 16.18973482662296], "label": "S", "properties": {}}, {"species": [{"element": "S", "occu": 1}], "abc": [0.40636019, 0.09478017, 0.4222421], "xyz": [4.3090853098595705, 0.92905835270148, 18.6053891920141], "label": "S", "properties": {}}, {"species": [{"element": "S", "occu": 1}], "abc": [0.88143586, 0.84375883, 0.37106252], "xyz": [9.34683664733358, 8.27072992881452, 16.35024692982892], "label": "S", "properties": {}}, {"species": [{"element": "S", "occu": 1}], "abc": [0.89892545, 0.59873564, 0.42615507], "xyz": [9.53229806112135, 5.86895283477616, 18.777807645187472], "label": "S", "properties": {}}, {"species": [{"element": "S", "occu": 1}], "abc": [0.2451751, 0.96211118, 0.34097845], "xyz": [2.5998620134353003, 9.43084854148792, 15.02464289643245], "label": "S", "properties": {}}, {"species": [{"element": "S", "occu": 1}], "abc": [0.72515852, 0.46222553, 0.34048268], "xyz": [7.689655637407561, 4.53084742808932, 15.00279762378028], "label": "S", "properties": {}}, {"species": [{"element": "S", "occu": 1}], "abc": [0.22572935, 0.45712938, 0.44982538], "xyz": [2.39365727752305, 4.4808937223287195, 19.82080011288698], "label": "S", "properties": {}}, {"species": [{"element": "Cl", "occu": 1}], "abc": [0.9397742, 0.65196656, 0.06986714999999999], "xyz": [9.9654624135426, 6.39073530096064, 3.0785786578051497], "label": "Cl", "properties": {}}, {"species": [{"element": "Cl", "occu": 1}], "abc": [0.44502837, 0.15635861, 0.06537646], "xyz": [4.71912667340211, 1.5326652467208401, 2.88070394282366], "label": "Cl", "properties": {}}, {"species": [{"element": "Cl", "occu": 1}], "abc": [0.94134502, 0.18372171, 0.17263142], "xyz": [9.98211955061706, 1.80088502951724, 7.606713674145821], "label": "Cl", "properties": {}}, {"species": [{"element": "Cl", "occu": 1}], "abc": [0.431967, 0.68113632, 0.17116845], "xyz": [4.580622560601, 6.6766644059020805, 7.54225035742245], "label": "Cl", "properties": {}}, {"species": [{"element": "Cl", "occu": 1}], "abc": [0.93288733, 0.70155351, 0.28577403], "xyz": [9.89243333471499, 6.87679868407644, 12.59215281735363], "label": "Cl", "properties": {}}, {"species": [{"element": "Cl", "occu": 1}], "abc": [0.44019899, 0.1989701, 0.28435921000000003], "xyz": [4.66791543045597, 1.9503534689044002, 12.529811149536412], "label": "Cl", "properties": {}}, {"species": [{"element": "Cl", "occu": 1}], "abc": [0.94641662, 0.2262791, 0.39175027], "xyz": [10.035899319391861, 2.2180429503004, 17.261817898846672], "label": "Cl", "properties": {}}, {"species": [{"element": "Cl", "occu": 1}], "abc": [0.43977087, 0.73132483, 0.38674665], "xyz": [4.6633756018796095, 7.16862442691852, 17.041341784624652], "label": "Cl", "properties": {}}]}, "formula": "(Li3PS4)8.0(Li2S)8.0(LiCl)8.0", "bandgap": 1.3138999999999998, "slab_thickness": 20.12238446334012}