{"miller": "110_0.15", "final_energy": -429.85526587, "gamma": 0.023139525024410842, "work_function": "Not calculated", "ionization_potentail": "Not calculated", "electron_affinity": "Not calculated", "is_stochiometric": true, "incar_parameters": {"SYSTEM": "unknown system", "LCOMPAT": false, "PREC": "normal", "ENMAX": 520.0, "ENAUG": 628.945, "EDIFF": 1e-05, "IALGO": 38, "IWAVPR": 11, "NBANDS": 293, "NBANDSLOW": -1, "NBANDSHIGH": -1, "NELECT": 480.0, "TURBO": 0, "IRESTART": 0, "NREBOOT": 0, "NMIN": 0, "EREF": 0.0, "ISMEAR": 0, "SIGMA": 0.05, "KSPACING": 0.5, "KGAMMA": true, "KBLOWUP": true, "LREAL": true, "ROPT": [-0.0005, -0.0005, -0.0005, -0.0005], "LMAXPAW": -100, "LMAXMIX": 2, "NLSPLINE": false, "ISTART": 0, "ICHARG": 2, "INIWAV": 1, "ISPIN": 1, "LNONCOLLINEAR": false, "MAGMOM": [0.6, 0.6, 0.6, 0.6, 0.6, 0.6, 0.6, 0.6, 0.6, 0.6, 0.6, 0.6, 0.6, 0.6, 0.6, 0.6, 0.6, 0.6, 0.6, 0.6, 0.6, 0.6, 0.6, 0.6, 0.6, 0.6, 0.6, 0.6, 0.6, 0.6, 0.6, 0.6, 0.6, 0.6, 0.6, 0.6, 0.6, 0.6, 0.6, 0.6, 0.6, 0.6, 0.6, 0.6, 0.6, 0.6, 0.6, 0.6, 0.6, 0.6, 0.6, 0.6, 0.6, 0.6, 0.6, 0.6, 0.6, 0.6, 0.6, 0.6, 0.6, 0.6, 0.6, 0.6, 0.6, 0.6, 0.6, 0.6, 0.6, 0.6, 0.6, 0.6, 0.6, 0.6, 0.6, 0.6, 0.6, 0.6, 0.6, 0.6, 0.6, 0.6, 0.6, 0.6, 0.6, 0.6, 0.6, 0.6, 0.6, 0.6, 0.6, 0.6, 0.6, 0.6, 0.6, 0.6, 0.6, 0.6, 0.6, 0.6, 0.6, 0.6, 0.6, 0.6], "NUPDOWN": -1.0, "LSORBIT": false, "SAXIS": [0.0, 0.0, 1.0], "LSPIRAL": false, "QSPIRAL": [0.0, 0.0, 0.0], "LZEROZ": false, "LASPH": false, "LMETAGGA": false, "NELM": 100, "NELMDL": -5, "NELMIN": 6, "ENINI": 520.0, "LDIAG": true, "LSUBROT": false, "WEIMIN": 0.001, "EBREAK": 1e-08, "DEPER": 0.3, "NRMM": 4, "TIME": 0.4, "AMIX": 0.4, "BMIX": 1.0, "AMIN": 0.1, "AMIX_MAG": 1.6, "BMIX_MAG": 1.0, "IMIX": 4, "MIXFIRST": false, "MAXMIX": -45, "WC": 100.0, "INIMIX": 1, "MIXPRE": 1, "MREMOVE": 5, "LDIPOL": false, "LMONO": false, "IDIPOL": 0, "EPSILON": 1.0, "DIPOL": [-100.0, -100.0, -100.0], "EFIELD": 0.0, "NGX": 60, "NGY": 56, "NGZ": 250, "NGXF": 120, "NGYF": 112, "NGZF": 500, "ADDGRID": false, "NSW": 150, "IBRION": 2, "MDALGO": 0, "ISIF": 2, "PSTRESS": 0.0, "EDIFFG": -0.01, "NFREE": 1, "POTIM": 0.5, "SMASS": -3.0, "SCALEE": 1.0, "TEBEG": 0.0001, "TEEND": 0.0001, "NBLOCK": 1, "KBLOCK": 150, "NPACO": 256, "APACO": 10.0, "ISYM": 0, "SYMPREC": 1e-05, "LORBIT": 11, "RWIGS": [-1.0, -1.0, -1.0, -1.0], "NEDOS": 301, "EMIN": 10.0, "EMAX": -10.0, "EFERMI": 0.0, "NWRITE": 2, "LWAVE": false, "LDOWNSAMPLE": false, "LCHARG": false, "LPARD": false, "LVTOT": false, "LVHAR": false, "LELF": false, "LOPTICS": false, "STM": [0.0, 0.0, 0.0, 0.0, 0.0, 0.0, 0.0], "NPAR": 1, "NSIM": 1, "NBLK": -1, "LPLANE": true, "LSCALAPACK": true, "LSCAAWARE": false, "LSCALU": false, "LASYNC": false, "LORBITALREAL": false, "IDIOT": 3, "PHON_NSTRUCT": -1, "LMUSIC": false, "POMASS": [7.01, 30.974, 32.066, 35.453], "DARWINR": [0.0, 0.0, 0.0, 0.0], "DARWINV": [1.0, 1.0, 1.0, 1.0], "LCORR": true, "GGA_COMPAT": true, "LBERRY": false, "ICORELEVEL": 0, "LDAU": false, "I_CONSTRAINED_M": 0, "GGA": "--", "VOSKOWN": 0, "LHFCALC": false, "PRECFOCK": "", "LSYMGRAD": false, "LHFONE": false, "LRHFCALC": false, "LTHOMAS": false, "LMODELHF": false, "LFOCKACE": false, "ENCUT4O": -1.0, "EXXOEP": 0, "FOURORBIT": 0, "AEXX": 0.0, "HFALPHA": 0.0, "MCALPHA": 0.0, "ALDAX": 1.0, "AGGAX": 1.0, "ALDAC": 1.0, "AGGAC": 1.0, "NKREDX": 1, "NKREDY": 1, "NKREDZ": 1, "SHIFTRED": false, "ODDONLY": false, "EVENONLY": false, "LMAXFOCK": 0, "NMAXFOCKAE": 0, "LFOCKAEDFT": false, "HFSCREEN": 0.0, "HFSCREENC": 0.0, "NBANDSGWLOW": 0, "LUSE_VDW": false, "Zab_VDW": -0.8491, "PARAM1": 0.1234, "PARAM2": 1.0, "PARAM3": 0.0, "MODEL_GW": 0, "MODEL_EPS0": 26.42375803, "MODEL_ALPHA": 1.0, "LEPSILON": false, "LRPA": false, "LNABLA": false, "LVEL": false, "CSHIFT": 0.1, "OMEGAMAX": -1.0, "DEG_THRESHOLD": 0.002, "RTIME": -0.1, "WPLASMAI": 0.0, "DFIELD": [0.0, 0.0, 0.0], "WPLASMA": [0.0, 0.0, 0.0, 0.0, 0.0, 0.0, 0.0, 0.0, 0.0], "NUCIND": false, "MAGPOS": [0.0, 0.0, 0.0], "LNICSALL": true, "ORBITALMAG": false, "LMAGBLOCH": false, "LCHIMAG": false, "LGAUGE": true, "MAGATOM": 0, "MAGDIPOL": [0.0, 0.0, 0.0], "AVECCONST": [0.0, 0.0, 0.0], "LFINITE_TEMPERATURE": false, "LADDER": false, "LRPAFORCE": false, "LFXC": false, "LHARTREE": true, "IBSE": 0, "KPOINT": [-1, 0, 0, 0], "LTCTC": false, "LTCTE": false, "LTETE": false, "LTRIPLET": false, "LFXCEPS": false, "LFXHEG": false, "NATURALO": 2, "LHOLEGF": false, "L2ORDER": false, "LDMP1": false, "LMP2LT": false, "LSMP2LT": false, "LGWLF": false, "ENCUTGW": -2.0, "ENCUTGWSOFT": -2.0, "ENCUTLF": -1.0, "LESF_SPLINES": false, "LMAXMP2": -1, "SCISSOR": 0.0, "NOMEGA": 0, "NOMEGAR": 0, "NBANDSGW": -1, "NBANDSO": -1, "NBANDSV": -1, "NELMGW": 1, "NELMHF": 1, "DIM": 3, "IESPILON": 4, "ANTIRES": 0, "OMEGAMIN": -30.0, "OMEGATL": -200.0, "OMEGAGRID": 0, "LSELFENERGY": false, "LSPECTRAL": false, "LSPECTRALGW": false, "LSINGLES": false, "LFERMIGW": false, "ODDONLYGW": false, "EVENONLYGW": false, "NKREDLFX": 1, "NKREDLFY": 1, "NKREDLFZ": 1, "MAXMEM": 2800, "TELESCOPE": 0, "NTAUPAR": -1, "NOMEGAPAR": -1, "DAMP_NEWTON": 0.80000001, "LAMBDA": 1.0, "OFIELD_KAPPA": 0.0, "OFIELD_K": [0.0, 0.0, 0.0], "OFIELD_Q6_NEAR": 0.0, "OFIELD_Q6_FAR": 0.0, "OFIELD_A": 0.0, "KPOINTS_OPT_MODE": 1, "LKPOINTS_OPT": false, "@module": "pymatgen.io.vasp.inputs", "@class": "Incar"}, "relaxed_structures": {"@module": "pymatgen.core.structure", "@class": "Structure", "charge": 0, "lattice": {"matrix": [[10.604103, 0.0, 0.0], [0.0, 9.802244, 0.0], [0.0, 0.0, 44.063321]], "a": 10.604103, "b": 9.802244, "c": 44.063321, "alpha": 90.0, "beta": 90.0, "gamma": 90.0, "volume": 4580.118058654865}, "sites": [{"species": [{"element": "Li", "occu": 1}], "abc": [0.60648743, 0.67652922, 0.00010000000000000286], "xyz": [6.4312551759252905, 6.63150448756968, 0.004406332100000126], "label": "Li", "properties": {}}, {"species": [{"element": "Li", "occu": 1}], "abc": [0.77804406, 0.3913717, 0.06081574], "xyz": [8.250459350778181, 3.8363208980948, 2.67974347347254], "label": "Li", "properties": {}}, {"species": [{"element": "Li", "occu": 1}], "abc": [0.89091208, 0.00503736, 0.00642889], "xyz": [9.44732346026424, 0.04937743183584, 0.28327824374369], "label": "Li", "properties": {}}, {"species": [{"element": "Li", "occu": 1}], "abc": [0.55590778, 0.91259497, 0.03663644], "xyz": [5.89490335762134, 8.94547856911268, 1.61432321601724], "label": "Li", "properties": {}}, {"species": [{"element": "Li", "occu": 1}], "abc": [0.27609789, 0.86785196, 0.06353279], "xyz": [2.9277704636426702, 8.50689666779824, 2.7994657197955903], "label": "Li", "properties": {}}, {"species": [{"element": "Li", "occu": 1}], "abc": [0.30381362, 0.27642012, 0.05843117], "xyz": [3.22167091928286, 2.70953746274928, 2.57467140011557], "label": "Li", "properties": {}}, {"species": [{"element": "Li", "occu": 1}], "abc": [0.98004289, 0.39803198, 0.10538886], "xyz": [10.39247574997767, 3.90160658776312, 4.64378316800406], "label": "Li", "properties": {}}, {"species": [{"element": "Li", "occu": 1}], "abc": [0.79694503, 0.77807398, 0.05244936000000001], "xyz": [8.450887183458091, 7.626871002011121, 2.3110929859245606], "label": "Li", "properties": {}}, {"species": [{"element": "Li", "occu": 1}], "abc": [0.81028395, 0.13147487, 0.12721965000000002], "xyz": [8.59233446504685, 1.28874875560828, 5.605720275457651], "label": "Li", "properties": {}}, {"species": [{"element": "Li", "occu": 1}], "abc": [0.7832892, 0.59315929, 0.10900473], "xyz": [8.3060793555876, 5.81429209144676, 4.80311040850833], "label": "Li", "properties": {}}, {"species": [{"element": "Li", "occu": 1}], "abc": [0.8045625, 0.90593759, 0.17803637], "xyz": [8.5316636199375, 8.88022130595196, 7.84487372098477], "label": "Li", "properties": {}}, {"species": [{"element": "Li", "occu": 1}], "abc": [0.77518406, 0.35199702, 0.16890370000000002], "xyz": [8.220131616198179, 3.45036067731288, 7.442457951187701], "label": "Li", "properties": {}}, {"species": [{"element": "Li", "occu": 1}], "abc": [0.28407142, 0.62984995, 0.12146187], "xyz": [3.01232259703626, 6.1739428932877995, 5.3520133670702705], "label": "Li", "properties": {}}, {"species": [{"element": "Li", "occu": 1}], "abc": [0.31987744, 0.0668094, 0.10981419], "xyz": [3.39201332113632, 0.6548820402936001, 4.83877790432499], "label": "Li", "properties": {}}, {"species": [{"element": "Li", "occu": 1}], "abc": [0.30140102, 0.40041579, 0.17767460000000002], "xyz": [3.19608746038506, 3.9249732750327597, 7.828932933346601], "label": "Li", "properties": {}}, {"species": [{"element": "Li", "occu": 1}], "abc": [0.28555296, 0.83109512, 0.16695684], "xyz": [3.0280329997948803, 8.14659715344928, 7.35667283406564], "label": "Li", "properties": {}}, {"species": [{"element": "Li", "occu": 1}], "abc": [0.06262759, 0.01580789, 0.12866602000000002], "xyz": [0.66410941500177, 0.15495279490516, 5.669452141052421], "label": "Li", "properties": {}}, {"species": [{"element": "Li", "occu": 1}], "abc": [0.02614742, 0.76970213, 0.10001394], "xyz": [0.27726993486426, 7.54480808557972, 4.40694634269474], "label": "Li", "properties": {}}, {"species": [{"element": "Li", "occu": 1}], "abc": [0.5396393, 0.47570192, 0.12627625], "xyz": [5.7223907200479, 4.66294629110848, 5.56415093842625], "label": "Li", "properties": {}}, {"species": [{"element": "Li", "occu": 1}], "abc": [0.57338151, 0.19460414, 0.10404451], "xyz": [6.080196590335531, 1.90755726369016, 4.584546642417711], "label": "Li", "properties": {}}, {"species": [{"element": "Li", "occu": 1}], "abc": [0.795799, 0.65456801, 0.23580741000000002], "xyz": [8.438734563297, 6.41623534861444, 10.390457601008611], "label": "Li", "properties": {}}, {"species": [{"element": "Li", "occu": 1}], "abc": [0.79203718, 0.10711845, 0.22300724000000002], "xyz": [8.39884383654954, 1.0500011838018, 9.826439601444042], "label": "Li", "properties": {}}, {"species": [{"element": "Li", "occu": 1}], "abc": [0.7867528, 0.42383804, 0.28952336], "xyz": [8.3428077267384, 4.15456388456176, 12.757360748678561], "label": "Li", "properties": {}}, {"species": [{"element": "Li", "occu": 1}], "abc": [0.80049542, 0.85596781, 0.27891309999999997], "xyz": [8.48853588470826, 8.39040532976564, 12.289837456405099], "label": "Li", "properties": {}}, {"species": [{"element": "Li", "occu": 1}], "abc": [0.2940638, 0.14823674, 0.23394826999999999], "xyz": [3.1182828237713998, 1.4530526952445602, 10.30853771840467], "label": "Li", "properties": {}}, {"species": [{"element": "Li", "occu": 1}], "abc": [0.2942767, 0.601272, 0.22079109], "xyz": [3.1205404373001002, 5.893814854368, 9.728788672609891], "label": "Li", "properties": {}}, {"species": [{"element": "Li", "occu": 1}], "abc": [0.27623451, 0.90503705, 0.28759135999999996], "xyz": [2.9292191961945298, 8.8713939931402, 12.67223041250656], "label": "Li", "properties": {}}, {"species": [{"element": "Li", "occu": 1}], "abc": [0.30374764, 0.34828783, 0.27842675], "xyz": [3.22097126056692, 3.41400229189052, 12.268407260236751], "label": "Li", "properties": {}}, {"species": [{"element": "Li", "occu": 1}], "abc": [0.0424895, 0.47873262, 0.25005691999999996], "xyz": [0.4505630344185, 4.69265395199928, 11.018338334231318], "label": "Li", "properties": {}}, {"species": [{"element": "Li", "occu": 1}], "abc": [0.03932777, 0.2811456, 0.2083013], "xyz": [0.41703572384031, 2.7558577707264, 9.1784470466173], "label": "Li", "properties": {}}, {"species": [{"element": "Li", "occu": 1}], "abc": [0.53953619, 0.97244762, 0.24850125000000003], "xyz": [5.72129733098757, 9.53216884845928, 10.949790347651252], "label": "Li", "properties": {}}, {"species": [{"element": "Li", "occu": 1}], "abc": [0.54319139, 0.77669232, 0.20645712], "xyz": [5.76005744827317, 7.6133276335660796, 9.09718635129552], "label": "Li", "properties": {}}, {"species": [{"element": "Li", "occu": 1}], "abc": [0.81758851, 0.18689851, 0.34675808999999996], "xyz": [8.66979277165653, 1.83202479825644, 15.279313029016889], "label": "Li", "properties": {}}, {"species": [{"element": "Li", "occu": 1}], "abc": [0.78390074, 0.62516342, 0.33492247999999997], "xyz": [8.31256418873622, 6.12800438271448, 14.75779674635608], "label": "Li", "properties": {}}, {"species": [{"element": "Li", "occu": 1}], "abc": [0.80270543, 0.97946542, 0.39815774], "xyz": [8.511971058379292, 9.60095903640248, 17.54415230625454], "label": "Li", "properties": {}}, {"species": [{"element": "Li", "occu": 1}], "abc": [0.77522158, 0.3881336, 0.39282096], "xyz": [8.220529482142739, 3.8045802517984004, 17.308996056008162], "label": "Li", "properties": {}}, {"species": [{"element": "Li", "occu": 1}], "abc": [0.28378742, 0.66101332, 0.34700749999999997], "xyz": [3.0093110317842604, 6.47941384989008, 15.290302861907499], "label": "Li", "properties": {}}, {"species": [{"element": "Li", "occu": 1}], "abc": [0.31023468, 0.12278501, 0.32956323], "xyz": [3.28976050089204, 1.20356862756244, 14.52165039328683], "label": "Li", "properties": {}}, {"species": [{"element": "Li", "occu": 1}], "abc": [0.39125391, 0.25013164, 0.45020110999999996], "xyz": [4.14889676079273, 2.45185136740016, 19.837356024486308], "label": "Li", "properties": {}}, {"species": [{"element": "Li", "occu": 1}], "abc": [0.27876037, 0.8624499, 0.39567262999999997], "xyz": [2.95600367579811, 8.4539443575756, 17.43465010660423], "label": "Li", "properties": {}}, {"species": [{"element": "Li", "occu": 1}], "abc": [0.07338878, 0.06119012, 0.35259595], "xyz": [0.77822218216434, 0.59980048662928, 15.53654852814995], "label": "Li", "properties": {}}, {"species": [{"element": "Li", "occu": 1}], "abc": [0.0397753, 0.77991984, 0.33041054], "xyz": [0.4217813780559, 7.64496457212096, 14.55898568580334], "label": "Li", "properties": {}}, {"species": [{"element": "Li", "occu": 1}], "abc": [0.52655016, 0.48490711, 0.35640052], "xyz": [5.58359213130648, 4.75317780955484, 15.704190517326921], "label": "Li", "properties": {}}, {"species": [{"element": "Li", "occu": 1}], "abc": [0.56183834, 0.24138232, 0.32734953], "xyz": [5.95779162670902, 2.36608839792608, 14.42410741958913], "label": "Li", "properties": {}}, {"species": [{"element": "Li", "occu": 1}], "abc": [0.05624859, 0.34141767, 0.41992302], "xyz": [0.59646584196477, 3.34665930725148, 18.50320282554942], "label": "Li", "properties": {}}, {"species": [{"element": "Li", "occu": 1}], "abc": [0.10584265, 0.57878983, 0.45616820999999996], "xyz": [1.12236636239295, 5.673439138378519, 20.10028626722541], "label": "Li", "properties": {}}, {"species": [{"element": "Li", "occu": 1}], "abc": [0.2959426, 0.47793172, 0.40382108], "xyz": [3.1382058124878003, 4.68480333477968, 17.793697874606682], "label": "Li", "properties": {}}, {"species": [{"element": "Li", "occu": 1}], "abc": [0.48023635, 0.8581416, 0.35145432], "xyz": [5.09247571974405, 8.4117133497504, 15.48624451899672], "label": "Li", "properties": {}}, {"species": [{"element": "P", "occu": 1}], "abc": [0.49993511, 0.59398656, 0.05861457], "xyz": [5.3013633997563305, 5.822401193840641, 2.58275261318697], "label": "P", "properties": {}}, {"species": [{"element": "P", "occu": 1}], "abc": [0.00937372, 0.09819725, 0.06102456], "xyz": [0.09939989237316, 0.962553404629, 2.68894477616376], "label": "P", "properties": {}}, {"species": [{"element": "P", "occu": 1}], "abc": [0.52388332, 0.11965262, 0.17287704], "xyz": [5.555312685261961, 1.17286417647928, 7.617536507049841], "label": "P", "properties": {}}, {"species": [{"element": "P", "occu": 1}], "abc": [0.01486568, 0.61566503, 0.17381485000000002], "xyz": [0.15763720188504, 6.034898846327319, 7.658859530116851], "label": "P", "properties": {}}, {"species": [{"element": "P", "occu": 1}], "abc": [0.5148838, 0.63884766, 0.28274119], "xyz": [5.4598808482314, 6.26214064214904, 12.458515814891989], "label": "P", "properties": {}}, {"species": [{"element": "P", "occu": 1}], "abc": [0.02358895, 0.13426038, 0.28378378], "xyz": [0.25013965546185, 1.31605300429272, 12.50445579273338], "label": "P", "properties": {}}, {"species": [{"element": "P", "occu": 1}], "abc": [0.50896141, 0.15817122, 0.39540833999999997], "xyz": [5.397079214665229, 1.55043289221768, 17.423004611497138], "label": "P", "properties": {}}, {"species": [{"element": "P", "occu": 1}], "abc": [0.99949258, 0.66151869, 0.39773031], "xyz": [10.59872226605574, 6.484367609940359, 17.52531832095951], "label": "P", "properties": {}}, {"species": [{"element": "S", "occu": 1}], "abc": [0.60109943, 0.46777941, 0.03106429], "xyz": [6.37412026896129, 4.58528791499604, 1.3687957819070902], "label": "S", "properties": {}}, {"species": [{"element": "S", "occu": 1}], "abc": [0.11041123, 0.97597813, 0.03316372], "xyz": [1.17081205527669, 9.56677576892372, 1.4613036399141202], "label": "S", "properties": {}}, {"species": [{"element": "S", "occu": 1}], "abc": [0.39844184, 0.7201354, 0.030538840000000005], "xyz": [4.22511831086952, 7.0589429038375995, 1.3456427098876402], "label": "S", "properties": {}}, {"species": [{"element": "S", "occu": 1}], "abc": [0.9068097, 0.22465259, 0.034586189999999996], "xyz": [9.615903460199101, 2.20209950241196, 1.52398239213699], "label": "S", "properties": {}}, {"species": [{"element": "S", "occu": 1}], "abc": [0.72621079, 0.86209349, 0.00722573], "xyz": [7.70081401687137, 8.45045073979156, 0.31838966044933], "label": "S", "properties": {}}, {"species": [{"element": "S", "occu": 1}], "abc": [0.62661353, 0.99762228, 0.14428393], "xyz": [6.64467441331359, 9.77893700839632, 6.357629122731531], "label": "S", "properties": {}}, {"species": [{"element": "S", "occu": 1}], "abc": [0.60247099, 0.71148381, 0.08871998], "xyz": [6.388664432471971, 6.974137907669641, 3.9092969578535803], "label": "S", "properties": {}}, {"species": [{"element": "S", "occu": 1}], "abc": [0.11765389, 0.48539692, 0.14647559000000002], "xyz": [1.24761396791067, 4.75797904668848, 6.454200940834391], "label": "S", "properties": {}}, {"species": [{"element": "S", "occu": 1}], "abc": [0.12267486, 0.20956871, 0.09154420999999999], "xyz": [1.30085685095058, 2.05424363018524, 4.033741910921409], "label": "S", "properties": {}}, {"species": [{"element": "S", "occu": 1}], "abc": [0.41200903, 0.23906518, 0.14455397], "xyz": [4.36898619105009, 2.34337522626392, 6.369527981934371], "label": "S", "properties": {}}, {"species": [{"element": "S", "occu": 1}], "abc": [0.38025733, 0.47523832, 0.08558758999999999], "xyz": [4.03228789382499, 4.65840197079008, 3.77127345178639], "label": "S", "properties": {}}, {"species": [{"element": "S", "occu": 1}], "abc": [0.8950815, 0.72946209, 0.1470122], "xyz": [9.4915364193945, 7.15036539492996, 6.4778457595162005], "label": "S", "properties": {}}, {"species": [{"element": "S", "occu": 1}], "abc": [0.89501183, 0.9778791, 0.08951390000000001], "xyz": [9.49079763153849, 9.5854095407004, 3.9442797096619007], "label": "S", "properties": {}}, {"species": [{"element": "S", "occu": 1}], "abc": [0.22449848, 0.85630382, 0.11636297000000001], "xyz": [2.38060500526344, 8.393698981772081, 5.12733889962337], "label": "S", "properties": {}}, {"species": [{"element": "S", "occu": 1}], "abc": [0.74465983, 0.35663372, 0.11572734000000001], "xyz": [7.89644953728249, 3.49581074206768, 5.099330930896141], "label": "S", "properties": {}}, {"species": [{"element": "S", "occu": 1}], "abc": [0.61900424, 0.51525779, 0.25562199999999996], "xyz": [6.56398471839672, 5.0506825804807605, 11.263554240661998], "label": "S", "properties": {}}, {"species": [{"element": "S", "occu": 1}], "abc": [0.61919447, 0.24467524, 0.20172958000000002], "xyz": [6.566001936910411, 2.39836640323856, 8.888875238735181], "label": "S", "properties": {}}, {"species": [{"element": "S", "occu": 1}], "abc": [0.11888095, 0.01007123, 0.25479344], "xyz": [1.26062583853785, 0.09872065384012, 11.22704513541424], "label": "S", "properties": {}}, {"species": [{"element": "S", "occu": 1}], "abc": [0.1182008, 0.74008593, 0.20093018], "xyz": [1.2534134578823999, 7.25450286682692, 8.853651019927781], "label": "S", "properties": {}}, {"species": [{"element": "S", "occu": 1}], "abc": [0.40267487, 0.76046482, 0.25458189], "xyz": [4.27000579699161, 7.45426171905608, 11.21772353985669], "label": "S", "properties": {}}, {"species": [{"element": "S", "occu": 1}], "abc": [0.406833, 0.99524404, 0.19904887000000002], "xyz": [4.314099035799, 9.75562491962576, 8.770754253497271], "label": "S", "properties": {}}, {"species": [{"element": "S", "occu": 1}], "abc": [0.90637743, 0.25915516, 0.25774334], "xyz": [9.611319624595291, 2.54030211217904, 11.35702752603214], "label": "S", "properties": {}}, {"species": [{"element": "S", "occu": 1}], "abc": [0.90325796, 0.49400348, 0.20210971], "xyz": [9.57824044340988, 4.84234264780912, 8.90562502894691], "label": "S", "properties": {}}, {"species": [{"element": "S", "occu": 1}], "abc": [0.23023501, 0.37537001, 0.22837451], "xyz": [2.44143576024603, 3.6794684283024397, 10.062939342347711], "label": "S", "properties": {}}, {"species": [{"element": "S", "occu": 1}], "abc": [0.7303642, 0.87973477, 0.22818728000000002], "xyz": [7.7448572043126, 8.62337487082388, 10.05468936675688], "label": "S", "properties": {}}, {"species": [{"element": "S", "occu": 1}], "abc": [0.62215241, 0.04703892, 0.36482234999999996], "xyz": [6.59736823733823, 0.46108697133647997, 16.075284316024348], "label": "S", "properties": {}}, {"species": [{"element": "S", "occu": 1}], "abc": [0.61689803, 0.76970319, 0.31014663], "xyz": [6.54165025061709, 7.54481847595836, 13.66609051475823], "label": "S", "properties": {}}, {"species": [{"element": "S", "occu": 1}], "abc": [0.1019838, 0.54482704, 0.3674459], "xyz": [1.0814467195314, 5.34052758387776, 16.1908866418339], "label": "S", "properties": {}}, {"species": [{"element": "S", "occu": 1}], "abc": [0.12681998, 0.25604712, 0.31232071], "xyz": [1.3448121303779401, 2.50983634573728, 13.76188769967791], "label": "S", "properties": {}}, {"species": [{"element": "S", "occu": 1}], "abc": [0.39427578, 0.27779636, 0.36691145], "xyz": [4.180940981525341, 2.7230277030318404, 16.16733699992545], "label": "S", "properties": {}}, {"species": [{"element": "S", "occu": 1}], "abc": [0.39603058, 0.52366277, 0.30949341999999996], "xyz": [4.199549061469741, 5.1330702452558805, 13.637307912847819], "label": "S", "properties": {}}, {"species": [{"element": "S", "occu": 1}], "abc": [0.87915748, 0.7802727, 0.37096692], "xyz": [9.32267647114044, 7.648423391938801, 16.34603447634132], "label": "S", "properties": {}}, {"species": [{"element": "S", "occu": 1}], "abc": [0.91190572, 0.01494769, 0.31214705], "xyz": [9.66994218116916, 0.14652090461636, 13.75423566335305], "label": "S", "properties": {}}, {"species": [{"element": "S", "occu": 1}], "abc": [0.24519772, 0.89808152, 0.34078046], "xyz": [2.60010187824516, 8.803214190930879, 15.015918799507661], "label": "S", "properties": {}}, {"species": [{"element": "S", "occu": 1}], "abc": [0.72480409, 0.39849259, 0.34000027], "xyz": [7.685897225181271, 3.90612159937196, 14.98154103709667], "label": "S", "properties": {}}, {"species": [{"element": "S", "occu": 1}], "abc": [0.60929042, 0.28111149, 0.42326938], "xyz": [6.46097837059326, 2.7555234161835602, 18.65065456041098], "label": "S", "properties": {}}, {"species": [{"element": "S", "occu": 1}], "abc": [0.10067531, 0.78746884, 0.42532424999999996], "xyz": [1.06757135679693, 7.718961712076959, 18.74119895683425], "label": "S", "properties": {}}, {"species": [{"element": "S", "occu": 1}], "abc": [0.40730793, 0.03073318, 0.42184142999999996], "xyz": [4.31913524243679, 0.30125412925592, 18.58773434118903], "label": "S", "properties": {}}, {"species": [{"element": "S", "occu": 1}], "abc": [0.89860862, 0.53467113, 0.4257682], "xyz": [9.52893836316786, 5.24097687601572, 18.7607608681922], "label": "S", "properties": {}}, {"species": [{"element": "S", "occu": 1}], "abc": [0.22638526, 0.39338734, 0.44916706], "xyz": [2.4006126147217803, 3.85607869319096, 19.79179234740626], "label": "S", "properties": {}}, {"species": [{"element": "Cl", "occu": 1}], "abc": [0.93917586, 0.5882529, 0.07011186], "xyz": [9.95911755455358, 5.766198459507599, 3.08936139308706], "label": "Cl", "properties": {}}, {"species": [{"element": "Cl", "occu": 1}], "abc": [0.44621712, 0.09147236, 0.06522586], "xyz": [4.73173230084336, 0.89663439197584, 2.87406800668106], "label": "Cl", "properties": {}}, {"species": [{"element": "Cl", "occu": 1}], "abc": [0.94174433, 0.11990672, 0.17254195], "xyz": [9.98635387498599, 1.17535492667968, 7.60277132881595], "label": "Cl", "properties": {}}, {"species": [{"element": "Cl", "occu": 1}], "abc": [0.43233165, 0.6165968, 0.17095660000000001], "xyz": [4.58448934675995, 6.0440322832192, 7.532915542868601], "label": "Cl", "properties": {}}, {"species": [{"element": "Cl", "occu": 1}], "abc": [0.93187685, 0.63852483, 0.28557247999999996], "xyz": [9.88171810071555, 6.25897618371852, 12.583271855006078], "label": "Cl", "properties": {}}, {"species": [{"element": "Cl", "occu": 1}], "abc": [0.44107839, 0.13512351, 0.28377906999999997], "xyz": [4.67724067863417, 1.32451361515644, 12.504248254491468], "label": "Cl", "properties": {}}, {"species": [{"element": "Cl", "occu": 1}], "abc": [0.94533489, 0.16380726, 0.39139066], "xyz": [10.02442854305367, 1.60567873149144, 17.24597228798186], "label": "Cl", "properties": {}}, {"species": [{"element": "Cl", "occu": 1}], "abc": [0.43889955, 0.6664684, 0.3863202], "xyz": [4.65413603485365, 6.532885875089599, 17.0225509813842], "label": "Cl", "properties": {}}]}, "formula": "(Li3PS4)8.0(Li2S)8.0(LiCl)8.0", "bandgap": 1.3176999999999999, "slab_thickness": 20.09587993512541}