{"miller": "110_0.02", "final_energy": -429.85629544, "gamma": 0.023134572502137223, "work_function": "Not calculated", "ionization_potentail": "Not calculated", "electron_affinity": "Not calculated", "is_stochiometric": true, "incar_parameters": {"SYSTEM": "unknown system", "LCOMPAT": false, "PREC": "normal", "ENMAX": 520.0, "ENAUG": 628.945, "EDIFF": 1e-05, "IALGO": 38, "IWAVPR": 11, "NBANDS": 293, "NBANDSLOW": -1, "NBANDSHIGH": -1, "NELECT": 480.0, "TURBO": 0, "IRESTART": 0, "NREBOOT": 0, "NMIN": 0, "EREF": 0.0, "ISMEAR": 0, "SIGMA": 0.05, "KSPACING": 0.5, "KGAMMA": true, "KBLOWUP": true, "LREAL": true, "ROPT": [-0.0005, -0.0005, -0.0005, -0.0005], "LMAXPAW": -100, "LMAXMIX": 2, "NLSPLINE": false, "ISTART": 0, "ICHARG": 2, "INIWAV": 1, "ISPIN": 1, "LNONCOLLINEAR": false, "MAGMOM": [0.6, 0.6, 0.6, 0.6, 0.6, 0.6, 0.6, 0.6, 0.6, 0.6, 0.6, 0.6, 0.6, 0.6, 0.6, 0.6, 0.6, 0.6, 0.6, 0.6, 0.6, 0.6, 0.6, 0.6, 0.6, 0.6, 0.6, 0.6, 0.6, 0.6, 0.6, 0.6, 0.6, 0.6, 0.6, 0.6, 0.6, 0.6, 0.6, 0.6, 0.6, 0.6, 0.6, 0.6, 0.6, 0.6, 0.6, 0.6, 0.6, 0.6, 0.6, 0.6, 0.6, 0.6, 0.6, 0.6, 0.6, 0.6, 0.6, 0.6, 0.6, 0.6, 0.6, 0.6, 0.6, 0.6, 0.6, 0.6, 0.6, 0.6, 0.6, 0.6, 0.6, 0.6, 0.6, 0.6, 0.6, 0.6, 0.6, 0.6, 0.6, 0.6, 0.6, 0.6, 0.6, 0.6, 0.6, 0.6, 0.6, 0.6, 0.6, 0.6, 0.6, 0.6, 0.6, 0.6, 0.6, 0.6, 0.6, 0.6, 0.6, 0.6, 0.6, 0.6], "NUPDOWN": -1.0, "LSORBIT": false, "SAXIS": [0.0, 0.0, 1.0], "LSPIRAL": false, "QSPIRAL": [0.0, 0.0, 0.0], "LZEROZ": false, "LASPH": false, "LMETAGGA": false, "NELM": 100, "NELMDL": -5, "NELMIN": 6, "ENINI": 520.0, "LDIAG": true, "LSUBROT": false, "WEIMIN": 0.001, "EBREAK": 1e-08, "DEPER": 0.3, "NRMM": 4, "TIME": 0.4, "AMIX": 0.4, "BMIX": 1.0, "AMIN": 0.1, "AMIX_MAG": 1.6, "BMIX_MAG": 1.0, "IMIX": 4, "MIXFIRST": false, "MAXMIX": -45, "WC": 100.0, "INIMIX": 1, "MIXPRE": 1, "MREMOVE": 5, "LDIPOL": false, "LMONO": false, "IDIPOL": 0, "EPSILON": 1.0, "DIPOL": [-100.0, -100.0, -100.0], "EFIELD": 0.0, "NGX": 60, "NGY": 56, "NGZ": 250, "NGXF": 120, "NGYF": 112, "NGZF": 500, "ADDGRID": false, "NSW": 150, "IBRION": 2, "MDALGO": 0, "ISIF": 2, "PSTRESS": 0.0, "EDIFFG": -0.01, "NFREE": 1, "POTIM": 0.5, "SMASS": -3.0, "SCALEE": 1.0, "TEBEG": 0.0001, "TEEND": 0.0001, "NBLOCK": 1, "KBLOCK": 150, "NPACO": 256, "APACO": 10.0, "ISYM": 0, "SYMPREC": 1e-05, "LORBIT": 11, "RWIGS": [-1.0, -1.0, -1.0, -1.0], "NEDOS": 301, "EMIN": 10.0, "EMAX": -10.0, "EFERMI": 0.0, "NWRITE": 2, "LWAVE": false, "LDOWNSAMPLE": false, "LCHARG": false, "LPARD": false, "LVTOT": false, "LVHAR": false, "LELF": false, "LOPTICS": false, "STM": [0.0, 0.0, 0.0, 0.0, 0.0, 0.0, 0.0], "NPAR": 1, "NSIM": 1, "NBLK": -1, "LPLANE": true, "LSCALAPACK": true, "LSCAAWARE": false, "LSCALU": false, "LASYNC": false, "LORBITALREAL": false, "IDIOT": 3, "PHON_NSTRUCT": -1, "LMUSIC": false, "POMASS": [7.01, 30.974, 32.066, 35.453], "DARWINR": [0.0, 0.0, 0.0, 0.0], "DARWINV": [1.0, 1.0, 1.0, 1.0], "LCORR": true, "GGA_COMPAT": true, "LBERRY": false, "ICORELEVEL": 0, "LDAU": false, "I_CONSTRAINED_M": 0, "GGA": "--", "VOSKOWN": 0, "LHFCALC": false, "PRECFOCK": "", "LSYMGRAD": false, "LHFONE": false, "LRHFCALC": false, "LTHOMAS": false, "LMODELHF": false, "LFOCKACE": false, "ENCUT4O": -1.0, "EXXOEP": 0, "FOURORBIT": 0, "AEXX": 0.0, "HFALPHA": 0.0, "MCALPHA": 0.0, "ALDAX": 1.0, "AGGAX": 1.0, "ALDAC": 1.0, "AGGAC": 1.0, "NKREDX": 1, "NKREDY": 1, "NKREDZ": 1, "SHIFTRED": false, "ODDONLY": false, "EVENONLY": false, "LMAXFOCK": 0, "NMAXFOCKAE": 0, "LFOCKAEDFT": false, "HFSCREEN": 0.0, "HFSCREENC": 0.0, "NBANDSGWLOW": 0, "LUSE_VDW": false, "Zab_VDW": -0.8491, "PARAM1": 0.1234, "PARAM2": 1.0, "PARAM3": 0.0, "MODEL_GW": 0, "MODEL_EPS0": 26.42375803, "MODEL_ALPHA": 1.0, "LEPSILON": false, "LRPA": false, "LNABLA": false, "LVEL": false, "CSHIFT": 0.1, "OMEGAMAX": -1.0, "DEG_THRESHOLD": 0.002, "RTIME": -0.1, "WPLASMAI": 0.0, "DFIELD": [0.0, 0.0, 0.0], "WPLASMA": [0.0, 0.0, 0.0, 0.0, 0.0, 0.0, 0.0, 0.0, 0.0], "NUCIND": false, "MAGPOS": [0.0, 0.0, 0.0], "LNICSALL": true, "ORBITALMAG": false, "LMAGBLOCH": false, "LCHIMAG": false, "LGAUGE": true, "MAGATOM": 0, "MAGDIPOL": [0.0, 0.0, 0.0], "AVECCONST": [0.0, 0.0, 0.0], "LFINITE_TEMPERATURE": false, "LADDER": false, "LRPAFORCE": false, "LFXC": false, "LHARTREE": true, "IBSE": 0, "KPOINT": [-1, 0, 0, 0], "LTCTC": false, "LTCTE": false, "LTETE": false, "LTRIPLET": false, "LFXCEPS": false, "LFXHEG": false, "NATURALO": 2, "LHOLEGF": false, "L2ORDER": false, "LDMP1": false, "LMP2LT": false, "LSMP2LT": false, "LGWLF": false, "ENCUTGW": -2.0, "ENCUTGWSOFT": -2.0, "ENCUTLF": -1.0, "LESF_SPLINES": false, "LMAXMP2": -1, "SCISSOR": 0.0, "NOMEGA": 0, "NOMEGAR": 0, "NBANDSGW": -1, "NBANDSO": -1, "NBANDSV": -1, "NELMGW": 1, "NELMHF": 1, "DIM": 3, "IESPILON": 4, "ANTIRES": 0, "OMEGAMIN": -30.0, "OMEGATL": -200.0, "OMEGAGRID": 0, "LSELFENERGY": false, "LSPECTRAL": false, "LSPECTRALGW": false, "LSINGLES": false, "LFERMIGW": false, "ODDONLYGW": false, "EVENONLYGW": false, "NKREDLFX": 1, "NKREDLFY": 1, "NKREDLFZ": 1, "MAXMEM": 2800, "TELESCOPE": 0, "NTAUPAR": -1, "NOMEGAPAR": -1, "DAMP_NEWTON": 0.80000001, "LAMBDA": 1.0, "OFIELD_KAPPA": 0.0, "OFIELD_K": [0.0, 0.0, 0.0], "OFIELD_Q6_NEAR": 0.0, "OFIELD_Q6_FAR": 0.0, "OFIELD_A": 0.0, "KPOINTS_OPT_MODE": 1, "LKPOINTS_OPT": false, "@module": "pymatgen.io.vasp.inputs", "@class": "Incar"}, "relaxed_structures": {"@module": "pymatgen.core.structure", "@class": "Structure", "charge": 0, "lattice": {"matrix": [[10.604103, 0.0, 0.0], [0.0, 9.802244, 0.0], [0.0, 0.0, 44.063321]], "a": 10.604103, "b": 9.802244, "c": 44.063321, "alpha": 90.0, "beta": 90.0, "gamma": 90.0, "volume": 4580.118058654865}, "sites": [{"species": [{"element": "Li", "occu": 1}], "abc": [0.60500778, 0.61683882, 0.00010000000000000286], "xyz": [6.41556481492134, 6.04640462231208, 0.004406332100000126], "label": "Li", "properties": {}}, {"species": [{"element": "Li", "occu": 1}], "abc": [0.89018188, 0.94600596, 0.006121580000000008], "xyz": [9.43958034425364, 9.27298124537424, 0.2697371445671804], "label": "Li", "properties": {}}, {"species": [{"element": "Li", "occu": 1}], "abc": [0.55577079, 0.85366687, 0.036375550000000006], "xyz": [5.8934507015513695, 8.36785095445628, 1.6028275362015503], "label": "Li", "properties": {}}, {"species": [{"element": "Li", "occu": 1}], "abc": [0.30360597, 0.2166414, 0.05852244000000001], "xyz": [3.2194689772949103, 2.1235718633016, 2.5786930594232405], "label": "Li", "properties": {}}, {"species": [{"element": "Li", "occu": 1}], "abc": [0.97995311, 0.33865934, 0.10522575], "xyz": [10.39152371361033, 3.3196214835589597, 4.636595999715751], "label": "Li", "properties": {}}, {"species": [{"element": "Li", "occu": 1}], "abc": [0.79600847, 0.71921563, 0.0523368], "xyz": [8.44095580475241, 7.04992709387372, 2.3061332185128003], "label": "Li", "properties": {}}, {"species": [{"element": "Li", "occu": 1}], "abc": [0.81090786, 0.0732127, 0.12748783], "xyz": [8.59895047094958, 0.7176487492988001, 5.61753717688343], "label": "Li", "properties": {}}, {"species": [{"element": "Li", "occu": 1}], "abc": [0.78286086, 0.53516775, 0.10906739000000001], "xyz": [8.30153719410858, 5.245844866431001, 4.805871416202191], "label": "Li", "properties": {}}, {"species": [{"element": "Li", "occu": 1}], "abc": [0.77797712, 0.33271847, 0.060754390000000005], "xyz": [8.24974951212336, 3.26138762624668, 2.6770401887291904], "label": "Li", "properties": {}}, {"species": [{"element": "Li", "occu": 1}], "abc": [0.77378834, 0.29151276, 0.16921754], "xyz": [8.20533125755902, 2.85747920263344, 7.456286783850341], "label": "Li", "properties": {}}, {"species": [{"element": "Li", "occu": 1}], "abc": [0.28388105, 0.57124352, 0.12125732], "xyz": [3.01030389394815, 5.59946836645888, 5.34300021475972], "label": "Li", "properties": {}}, {"species": [{"element": "Li", "occu": 1}], "abc": [0.3170303, 0.00963125, 0.10968785], "xyz": [3.3618219553209, 0.094407862525, 4.83321094434985], "label": "Li", "properties": {}}, {"species": [{"element": "Li", "occu": 1}], "abc": [0.27445283, 0.80697913, 0.06371157000000001], "xyz": [2.9103260779614897, 7.91020633516772, 2.8073433603239706], "label": "Li", "properties": {}}, {"species": [{"element": "Li", "occu": 1}], "abc": [0.28477885, 0.77219507, 0.16704496], "xyz": [3.0198242576215497, 7.56924449173708, 7.36055569391216], "label": "Li", "properties": {}}, {"species": [{"element": "Li", "occu": 1}], "abc": [0.06157463, 0.9547737, 0.12883150000000002], "xyz": [0.65294371870689, 9.3589247721828, 5.676743739411501], "label": "Li", "properties": {}}, {"species": [{"element": "Li", "occu": 1}], "abc": [0.02587931, 0.7100582, 0.10007289999999999], "xyz": [0.27442686880893, 6.9601637306008, 4.4095443161009], "label": "Li", "properties": {}}, {"species": [{"element": "Li", "occu": 1}], "abc": [0.53979053, 0.41657758, 0.12584683], "xyz": [5.72399437854459, 4.08339508408952, 5.54522926712243], "label": "Li", "properties": {}}, {"species": [{"element": "Li", "occu": 1}], "abc": [0.57449635, 0.13381842, 0.10407889000000001], "xyz": [6.09201846852405, 1.31172080453448, 4.5860615393936905], "label": "Li", "properties": {}}, {"species": [{"element": "Li", "occu": 1}], "abc": [0.79539203, 0.59392234, 0.23593677000000002], "xyz": [8.43441901149909, 5.82177169373096, 10.396157632213171], "label": "Li", "properties": {}}, {"species": [{"element": "Li", "occu": 1}], "abc": [0.79427256, 0.04661852, 0.22273418], "xyz": [8.42254803631368, 0.45696610795888, 9.81440767101178], "label": "Li", "properties": {}}, {"species": [{"element": "Li", "occu": 1}], "abc": [0.80388089, 0.84574783, 0.17808738000000002], "xyz": [8.52443575729167, 8.29022659213052, 7.847121390988981], "label": "Li", "properties": {}}, {"species": [{"element": "Li", "occu": 1}], "abc": [0.80180055, 0.79634342, 0.27884981000000003], "xyz": [8.50237561765665, 7.80595251063448, 12.287048688819011], "label": "Li", "properties": {}}, {"species": [{"element": "Li", "occu": 1}], "abc": [0.29228357, 0.08926712, 0.23352618000000003], "xyz": [3.09940508148771, 0.87501809141728, 10.289939031243781], "label": "Li", "properties": {}}, {"species": [{"element": "Li", "occu": 1}], "abc": [0.29472364, 0.54272587, 0.22073014000000002], "xyz": [3.1252798350949202, 5.319931402852281, 9.72610301319494], "label": "Li", "properties": {}}, {"species": [{"element": "Li", "occu": 1}], "abc": [0.30193756, 0.34177079, 0.17751035], "xyz": [3.20177698580868, 3.35012067565276, 7.821695532872351], "label": "Li", "properties": {}}, {"species": [{"element": "Li", "occu": 1}], "abc": [0.30468958, 0.28979273, 0.27818925], "xyz": [3.23095968934674, 2.84061904888612, 12.25794222149925], "label": "Li", "properties": {}}, {"species": [{"element": "Li", "occu": 1}], "abc": [0.04306101, 0.41871841, 0.24989651000000002], "xyz": [0.45662338532402996, 4.10438002211204, 11.011270136909712], "label": "Li", "properties": {}}, {"species": [{"element": "Li", "occu": 1}], "abc": [0.03951435, 0.22257432, 0.20820080000000002], "xyz": [0.41901423737805, 2.18172779277408, 9.1740186828568], "label": "Li", "properties": {}}, {"species": [{"element": "Li", "occu": 1}], "abc": [0.53970441, 0.91503414, 0.24826638], "xyz": [5.72308115319423, 8.96938790861016, 10.93944119544798], "label": "Li", "properties": {}}, {"species": [{"element": "Li", "occu": 1}], "abc": [0.54306484, 0.71651501, 0.20643996000000003], "xyz": [5.75871549903852, 7.023454957682439, 9.096430224707161], "label": "Li", "properties": {}}, {"species": [{"element": "Li", "occu": 1}], "abc": [0.81677687, 0.12682847, 0.34686491], "xyz": [8.661186057497611, 1.24320360908668, 15.284019872966113], "label": "Li", "properties": {}}, {"species": [{"element": "Li", "occu": 1}], "abc": [0.78476974, 0.56664357, 0.33494877], "xyz": [8.32177915424322, 5.55437853417108, 14.758955171065171], "label": "Li", "properties": {}}, {"species": [{"element": "Li", "occu": 1}], "abc": [0.78562895, 0.36531524, 0.28923587], "xyz": [8.33089030558185, 3.58090911939856, 12.74469298452427], "label": "Li", "properties": {}}, {"species": [{"element": "Li", "occu": 1}], "abc": [0.77757805, 0.32947414, 0.39278843], "xyz": [8.24551773273915, 3.2295859119701604, 17.307562676176033], "label": "Li", "properties": {}}, {"species": [{"element": "Li", "occu": 1}], "abc": [0.28436885, 0.60224462, 0.3473557], "xyz": [3.01547657539155, 5.90334871292728, 15.3056457102797], "label": "Li", "properties": {}}, {"species": [{"element": "Li", "occu": 1}], "abc": [0.31039336, 0.06491927, 0.32945323], "xyz": [3.29144315995608, 0.63635452484188, 14.51680342797683], "label": "Li", "properties": {}}, {"species": [{"element": "Li", "occu": 1}], "abc": [0.27542554, 0.8457006, 0.2877198], "xyz": [2.92064079499062, 8.2897636321464, 12.677889905455801], "label": "Li", "properties": {}}, {"species": [{"element": "Li", "occu": 1}], "abc": [0.27683575, 0.8048705, 0.39576155], "xyz": [2.93559480708225, 7.889537029402001, 17.43856821710755], "label": "Li", "properties": {}}, {"species": [{"element": "Li", "occu": 1}], "abc": [0.07431924, 0.00184985, 0.35281356], "xyz": [0.7880888758417199, 0.0181326810634, 15.546137147432761], "label": "Li", "properties": {}}, {"species": [{"element": "Li", "occu": 1}], "abc": [0.04101638, 0.71940214, 0.33106072000000003], "xyz": [0.43494191820714, 7.05175531040216, 14.587634775851122], "label": "Li", "properties": {}}, {"species": [{"element": "Li", "occu": 1}], "abc": [0.5263153, 0.42756571, 0.35644771000000003], "xyz": [5.5811016516759, 4.19110341545324, 15.706269865444911], "label": "Li", "properties": {}}, {"species": [{"element": "Li", "occu": 1}], "abc": [0.56206209, 0.18276062, 0.32776422], "xyz": [5.96016429475527, 1.79146419083128, 14.44238003817462], "label": "Li", "properties": {}}, {"species": [{"element": "Li", "occu": 1}], "abc": [0.0580063, 0.28240339, 0.42003776], "xyz": [0.6151047798489, 2.7681869352071597, 18.50825865100096], "label": "Li", "properties": {}}, {"species": [{"element": "Li", "occu": 1}], "abc": [0.80354622, 0.9199727, 0.39816349], "xyz": [8.52088688214066, 9.0177968787388, 17.54440567035029], "label": "Li", "properties": {}}, {"species": [{"element": "Li", "occu": 1}], "abc": [0.10814265, 0.51855875, 0.45673926000000004], "xyz": [1.14675579929295, 5.083039395835, 20.125448626682463], "label": "Li", "properties": {}}, {"species": [{"element": "Li", "occu": 1}], "abc": [0.3926656, 0.19073372, 0.45001312], "xyz": [4.1638664669568, 1.86961846246768, 19.82907256077152], "label": "Li", "properties": {}}, {"species": [{"element": "Li", "occu": 1}], "abc": [0.29679827, 0.41951094, 0.40397725], "xyz": [3.14727942530181, 4.11214859454936, 17.800579243447253], "label": "Li", "properties": {}}, {"species": [{"element": "Li", "occu": 1}], "abc": [0.47995009, 0.79814562, 0.35156844], "xyz": [5.08944018921927, 7.82361811477128, 15.49127302518924], "label": "Li", "properties": {}}, {"species": [{"element": "P", "occu": 1}], "abc": [0.49936265, 0.53442361, 0.05862774000000001], "xyz": [5.29529297495295, 5.23855062458084, 2.5833329271245407], "label": "P", "properties": {}}, {"species": [{"element": "P", "occu": 1}], "abc": [0.00823277, 0.03772853, 0.061125700000000005], "xyz": [0.08730114105531, 0.36982425682132003, 2.6934013404497], "label": "P", "properties": {}}, {"species": [{"element": "P", "occu": 1}], "abc": [0.52304997, 0.0606695, 0.17289087], "xyz": [5.54647575602691, 0.594697242358, 7.61814590277927], "label": "P", "properties": {}}, {"species": [{"element": "P", "occu": 1}], "abc": [0.01472044, 0.55615461, 0.17377864], "xyz": [0.15609706196532, 5.4515631889448395, 7.657263997263441], "label": "P", "properties": {}}, {"species": [{"element": "P", "occu": 1}], "abc": [0.51502747, 0.58055358, 0.28279901], "xyz": [5.461404339709411, 5.6907278462335205, 12.461063556112212], "label": "P", "properties": {}}, {"species": [{"element": "P", "occu": 1}], "abc": [0.02365007, 0.07555637, 0.28380231], "xyz": [0.25078777823721, 0.74062197449428, 12.505272286071511], "label": "P", "properties": {}}, {"species": [{"element": "P", "occu": 1}], "abc": [0.509867, 0.09826393, 0.39522797], "xyz": [5.406682184300999, 0.96320701825892, 17.41505691028837], "label": "P", "properties": {}}, {"species": [{"element": "P", "occu": 1}], "abc": [0.00033632, 0.60213953, 0.39836741000000003], "xyz": [0.0035663719209599997, 5.90231859510532, 17.55339106276861], "label": "P", "properties": {}}, {"species": [{"element": "S", "occu": 1}], "abc": [0.60056674, 0.40833152, 0.031081540000000005], "xyz": [6.36847156933422, 4.00256519193088, 1.3695558741943403], "label": "S", "properties": {}}, {"species": [{"element": "S", "occu": 1}], "abc": [0.10837957, 0.91435141, 0.03331142000000001], "xyz": [1.14926812337571, 8.96269562256404, 1.4678117924258205], "label": "S", "properties": {}}, {"species": [{"element": "S", "occu": 1}], "abc": [0.39820155, 0.66075972, 0.03053684000000001], "xyz": [4.2225702509596506, 6.4769280008116805, 1.3455545832456406], "label": "S", "properties": {}}, {"species": [{"element": "S", "occu": 1}], "abc": [0.90605214, 0.16441238, 0.03463667000000001], "xyz": [9.60787021593042, 1.61161026538072, 1.5262067085810704], "label": "S", "properties": {}}, {"species": [{"element": "S", "occu": 1}], "abc": [0.72568624, 0.80234049, 0.0069565600000000075], "xyz": [7.69525163464272, 7.86473725405956, 0.30652913633576034], "label": "S", "properties": {}}, {"species": [{"element": "S", "occu": 1}], "abc": [0.62649321, 0.9391804, 0.14431335], "xyz": [6.64339852764063, 9.2060754408176, 6.358925465635351], "label": "S", "properties": {}}, {"species": [{"element": "S", "occu": 1}], "abc": [0.60159933, 0.65168599, 0.08883261], "xyz": [6.37942126005099, 6.38798508536156, 3.9142598096978105], "label": "S", "properties": {}}, {"species": [{"element": "S", "occu": 1}], "abc": [0.11745639, 0.42637759, 0.14635159], "xyz": [1.24551965756817, 4.17945717331196, 6.448737089030391], "label": "S", "properties": {}}, {"species": [{"element": "S", "occu": 1}], "abc": [0.12158527, 0.14952817, 0.09157808], "xyz": [1.28930272636281, 1.46571160721348, 4.035234335603681], "label": "S", "properties": {}}, {"species": [{"element": "S", "occu": 1}], "abc": [0.4117975, 0.18039915, 0.14449445], "xyz": [4.3667431051425, 1.7683164856926001, 6.36690533306845], "label": "S", "properties": {}}, {"species": [{"element": "S", "occu": 1}], "abc": [0.37922747, 0.41593819, 0.08550867000000001], "xyz": [4.02136715230941, 4.07712762729836, 3.7677959744930707], "label": "S", "properties": {}}, {"species": [{"element": "S", "occu": 1}], "abc": [0.89568888, 0.67080912, 0.14698493], "xyz": [9.49797713947464, 6.57543467166528, 6.476644152752531], "label": "S", "properties": {}}, {"species": [{"element": "S", "occu": 1}], "abc": [0.89375011, 0.91831892, 0.08972959], "xyz": [9.477418222701331, 9.00158612365648, 3.95378372736839], "label": "S", "properties": {}}, {"species": [{"element": "S", "occu": 1}], "abc": [0.22417685, 0.79751328, 0.11639713000000002], "xyz": [2.37719440761555, 7.81741976380032, 5.128844102668731], "label": "S", "properties": {}}, {"species": [{"element": "S", "occu": 1}], "abc": [0.74494844, 0.29794795, 0.11587468000000001], "xyz": [7.899509987449321, 2.9205585051998, 5.1058232206122804], "label": "S", "properties": {}}, {"species": [{"element": "S", "occu": 1}], "abc": [0.61814587, 0.45636355, 0.25557932], "xyz": [6.55488247450461, 4.4733868698062, 11.261673618121721], "label": "S", "properties": {}}, {"species": [{"element": "S", "occu": 1}], "abc": [0.61851536, 0.18422394, 0.20200933000000001], "xyz": [6.558800584522079, 1.80580801052136, 8.90120195278493], "label": "S", "properties": {}}, {"species": [{"element": "S", "occu": 1}], "abc": [0.11906231, 0.95135402, 0.25481695], "xyz": [1.2625489986579301, 9.32540423442088, 11.22808106409095], "label": "S", "properties": {}}, {"species": [{"element": "S", "occu": 1}], "abc": [0.11773337, 0.68033627, 0.20099804000000002], "xyz": [1.24845678201711, 6.66882212058988, 8.856641156890841], "label": "S", "properties": {}}, {"species": [{"element": "S", "occu": 1}], "abc": [0.40325684, 0.70236211, 0.25459957], "xyz": [4.27617706681452, 6.88472477857484, 11.21850257937197], "label": "S", "properties": {}}, {"species": [{"element": "S", "occu": 1}], "abc": [0.40574039, 0.93577395, 0.19891215], "xyz": [4.30251288682017, 9.1726845867438, 8.76472991625015], "label": "S", "properties": {}}, {"species": [{"element": "S", "occu": 1}], "abc": [0.90657879, 0.20004161, 0.25758001], "xyz": [9.61345486677537, 1.9608566713728401, 11.349830663813211], "label": "S", "properties": {}}, {"species": [{"element": "S", "occu": 1}], "abc": [0.90296507, 0.434125, 0.20197583], "xyz": [9.57513460768221, 4.2553991765, 8.89972583153143], "label": "S", "properties": {}}, {"species": [{"element": "S", "occu": 1}], "abc": [0.23041648, 0.31678144, 0.22817442], "xyz": [2.44336008681744, 3.10516896955136, 10.05412271244882], "label": "S", "properties": {}}, {"species": [{"element": "S", "occu": 1}], "abc": [0.73022125, 0.81956979, 0.22820113000000003], "xyz": [7.743341347788751, 8.033623056608759, 10.05529964375273], "label": "S", "properties": {}}, {"species": [{"element": "S", "occu": 1}], "abc": [0.62256644, 0.98664393, 0.36464728], "xyz": [6.601758654103321, 9.671324542978919, 16.06757015041688], "label": "S", "properties": {}}, {"species": [{"element": "S", "occu": 1}], "abc": [0.61739233, 0.71076699, 0.31024034], "xyz": [6.546891858729991, 6.96711146312556, 13.67021968856914], "label": "S", "properties": {}}, {"species": [{"element": "S", "occu": 1}], "abc": [0.10302234, 0.48579966, 0.3680126], "xyz": [1.0924595046610202, 4.76192680243704, 16.215857325844603], "label": "S", "properties": {}}, {"species": [{"element": "S", "occu": 1}], "abc": [0.12660991, 0.19781236, 0.31229359], "xyz": [1.34258452646073, 1.9390050189358399, 13.76069270241239], "label": "S", "properties": {}}, {"species": [{"element": "S", "occu": 1}], "abc": [0.39534794, 0.21910061, 0.36694149], "xyz": [4.19231027659782, 2.14767763976884, 16.16866066208829], "label": "S", "properties": {}}, {"species": [{"element": "S", "occu": 1}], "abc": [0.39548383, 0.465776, 0.3094968], "xyz": [4.1937512681544895, 4.565650001344, 13.637456846872801], "label": "S", "properties": {}}, {"species": [{"element": "S", "occu": 1}], "abc": [0.88009129, 0.72036539, 0.37140461], "xyz": [9.33257868856287, 7.06119732193516, 16.36532055130981], "label": "S", "properties": {}}, {"species": [{"element": "S", "occu": 1}], "abc": [0.91218731, 0.95601132, 0.31215328000000003], "xyz": [9.67292819053293, 9.37105622540208, 13.754510177842882], "label": "S", "properties": {}}, {"species": [{"element": "S", "occu": 1}], "abc": [0.24484379, 0.83938409, 0.34090404], "xyz": [2.5963487680703703, 8.22784765989796, 15.021364144716841], "label": "S", "properties": {}}, {"species": [{"element": "S", "occu": 1}], "abc": [0.72513402, 0.34009001, 0.34009788], "xyz": [7.689395836884061, 3.3336452599824398, 14.98584205785948], "label": "S", "properties": {}}, {"species": [{"element": "S", "occu": 1}], "abc": [0.61161865, 0.21961375, 0.42312562], "xyz": [6.485667161320951, 2.152707563255, 18.64432001738402], "label": "S", "properties": {}}, {"species": [{"element": "S", "occu": 1}], "abc": [0.10162563, 0.72808673, 0.42595064], "xyz": [1.07764864795989, 7.13688378062212, 18.76879978047544], "label": "S", "properties": {}}, {"species": [{"element": "S", "occu": 1}], "abc": [0.40746409, 0.97153823, 0.42165649], "xyz": [4.3207911791612705, 9.523254785788119, 18.57958527060329], "label": "S", "properties": {}}, {"species": [{"element": "S", "occu": 1}], "abc": [0.89953755, 0.47520701, 0.42636282000000003], "xyz": [9.53878883256765, 4.65809506253044, 18.786961800125223], "label": "S", "properties": {}}, {"species": [{"element": "S", "occu": 1}], "abc": [0.22822315, 0.33391521, 0.44932443], "xyz": [2.42010178958445, 3.27311836373124, 19.79872659223203], "label": "S", "properties": {}}, {"species": [{"element": "Cl", "occu": 1}], "abc": [0.93836895, 0.52928534, 0.06998252], "xyz": [9.95056099780185, 5.18818404830296, 3.0836622431489205], "label": "Cl", "properties": {}}, {"species": [{"element": "Cl", "occu": 1}], "abc": [0.44566283, 0.03211668, 0.06523067], "xyz": [4.72585455259149, 0.31481553382992, 2.8742799512550703], "label": "Cl", "properties": {}}, {"species": [{"element": "Cl", "occu": 1}], "abc": [0.94172245, 0.05934031, 0.17281156], "xyz": [9.98612185721235, 0.58166819765564, 7.61465124079076], "label": "Cl", "properties": {}}, {"species": [{"element": "Cl", "occu": 1}], "abc": [0.43201188, 0.5576608, 0.170868], "xyz": [4.581098472743641, 5.4663272308352, 7.529011532628], "label": "Cl", "properties": {}}, {"species": [{"element": "Cl", "occu": 1}], "abc": [0.93241791, 0.57910113, 0.28554672000000003], "xyz": [9.88745555668473, 5.67649057693572, 12.582136783857122], "label": "Cl", "properties": {}}, {"species": [{"element": "Cl", "occu": 1}], "abc": [0.44147435, 0.07675528, 0.28394583], "xyz": [4.68143947925805, 0.7523739828483199, 12.51159625390143], "label": "Cl", "properties": {}}, {"species": [{"element": "Cl", "occu": 1}], "abc": [0.94601081, 0.10464547, 0.39142855], "xyz": [10.03159606835343, 1.0257604304346801, 17.24764184721455], "label": "Cl", "properties": {}}, {"species": [{"element": "Cl", "occu": 1}], "abc": [0.43938015, 0.60799616, 0.38652383], "xyz": [4.65923236675545, 5.95972671138304, 17.03152359543943], "label": "Cl", "properties": {}}]}, "formula": "(Li3PS4)8.0(Li2S)8.0(LiCl)8.0", "bandgap": 1.3288000000000002, "slab_thickness": 20.121042294582463}