{"miller": "110_0.47", "final_energy": -429.85422831, "gamma": 0.02314451598083933, "work_function": "Not calculated", "ionization_potentail": "Not calculated", "electron_affinity": "Not calculated", "is_stochiometric": true, "incar_parameters": {"SYSTEM": "unknown system", "LCOMPAT": false, "PREC": "normal", "ENMAX": 520.0, "ENAUG": 628.945, "EDIFF": 1e-05, "IALGO": 38, "IWAVPR": 11, "NBANDS": 293, "NBANDSLOW": -1, "NBANDSHIGH": -1, "NELECT": 480.0, "TURBO": 0, "IRESTART": 0, "NREBOOT": 0, "NMIN": 0, "EREF": 0.0, "ISMEAR": 0, "SIGMA": 0.05, "KSPACING": 0.5, "KGAMMA": true, "KBLOWUP": true, "LREAL": true, "ROPT": [-0.0005, -0.0005, -0.0005, -0.0005], "LMAXPAW": -100, "LMAXMIX": 2, "NLSPLINE": false, "ISTART": 0, "ICHARG": 2, "INIWAV": 1, "ISPIN": 1, "LNONCOLLINEAR": false, "MAGMOM": [0.6, 0.6, 0.6, 0.6, 0.6, 0.6, 0.6, 0.6, 0.6, 0.6, 0.6, 0.6, 0.6, 0.6, 0.6, 0.6, 0.6, 0.6, 0.6, 0.6, 0.6, 0.6, 0.6, 0.6, 0.6, 0.6, 0.6, 0.6, 0.6, 0.6, 0.6, 0.6, 0.6, 0.6, 0.6, 0.6, 0.6, 0.6, 0.6, 0.6, 0.6, 0.6, 0.6, 0.6, 0.6, 0.6, 0.6, 0.6, 0.6, 0.6, 0.6, 0.6, 0.6, 0.6, 0.6, 0.6, 0.6, 0.6, 0.6, 0.6, 0.6, 0.6, 0.6, 0.6, 0.6, 0.6, 0.6, 0.6, 0.6, 0.6, 0.6, 0.6, 0.6, 0.6, 0.6, 0.6, 0.6, 0.6, 0.6, 0.6, 0.6, 0.6, 0.6, 0.6, 0.6, 0.6, 0.6, 0.6, 0.6, 0.6, 0.6, 0.6, 0.6, 0.6, 0.6, 0.6, 0.6, 0.6, 0.6, 0.6, 0.6, 0.6, 0.6, 0.6], "NUPDOWN": -1.0, "LSORBIT": false, "SAXIS": [0.0, 0.0, 1.0], "LSPIRAL": false, "QSPIRAL": [0.0, 0.0, 0.0], "LZEROZ": false, "LASPH": false, "LMETAGGA": false, "NELM": 100, "NELMDL": -5, "NELMIN": 6, "ENINI": 520.0, "LDIAG": true, "LSUBROT": false, "WEIMIN": 0.001, "EBREAK": 1e-08, "DEPER": 0.3, "NRMM": 4, "TIME": 0.4, "AMIX": 0.4, "BMIX": 1.0, "AMIN": 0.1, "AMIX_MAG": 1.6, "BMIX_MAG": 1.0, "IMIX": 4, "MIXFIRST": false, "MAXMIX": -45, "WC": 100.0, "INIMIX": 1, "MIXPRE": 1, "MREMOVE": 5, "LDIPOL": false, "LMONO": false, "IDIPOL": 0, "EPSILON": 1.0, "DIPOL": [-100.0, -100.0, -100.0], "EFIELD": 0.0, "NGX": 60, "NGY": 56, "NGZ": 250, "NGXF": 120, "NGYF": 112, "NGZF": 500, "ADDGRID": false, "NSW": 150, "IBRION": 2, "MDALGO": 0, "ISIF": 2, "PSTRESS": 0.0, "EDIFFG": -0.01, "NFREE": 1, "POTIM": 0.5, "SMASS": -3.0, "SCALEE": 1.0, "TEBEG": 0.0001, "TEEND": 0.0001, "NBLOCK": 1, "KBLOCK": 150, "NPACO": 256, "APACO": 10.0, "ISYM": 0, "SYMPREC": 1e-05, "LORBIT": 11, "RWIGS": [-1.0, -1.0, -1.0, -1.0], "NEDOS": 301, "EMIN": 10.0, "EMAX": -10.0, "EFERMI": 0.0, "NWRITE": 2, "LWAVE": false, "LDOWNSAMPLE": false, "LCHARG": false, "LPARD": false, "LVTOT": false, "LVHAR": false, "LELF": false, "LOPTICS": false, "STM": [0.0, 0.0, 0.0, 0.0, 0.0, 0.0, 0.0], "NPAR": 1, "NSIM": 1, "NBLK": -1, "LPLANE": true, "LSCALAPACK": true, "LSCAAWARE": false, "LSCALU": false, "LASYNC": false, "LORBITALREAL": false, "IDIOT": 3, "PHON_NSTRUCT": -1, "LMUSIC": false, "POMASS": [7.01, 30.974, 32.066, 35.453], "DARWINR": [0.0, 0.0, 0.0, 0.0], "DARWINV": [1.0, 1.0, 1.0, 1.0], "LCORR": true, "GGA_COMPAT": true, "LBERRY": false, "ICORELEVEL": 0, "LDAU": false, "I_CONSTRAINED_M": 0, "GGA": "--", "VOSKOWN": 0, "LHFCALC": false, "PRECFOCK": "", "LSYMGRAD": false, "LHFONE": false, "LRHFCALC": false, "LTHOMAS": false, "LMODELHF": false, "LFOCKACE": false, "ENCUT4O": -1.0, "EXXOEP": 0, "FOURORBIT": 0, "AEXX": 0.0, "HFALPHA": 0.0, "MCALPHA": 0.0, "ALDAX": 1.0, "AGGAX": 1.0, "ALDAC": 1.0, "AGGAC": 1.0, "NKREDX": 1, "NKREDY": 1, "NKREDZ": 1, "SHIFTRED": false, "ODDONLY": false, "EVENONLY": false, "LMAXFOCK": 0, "NMAXFOCKAE": 0, "LFOCKAEDFT": false, "HFSCREEN": 0.0, "HFSCREENC": 0.0, "NBANDSGWLOW": 0, "LUSE_VDW": false, "Zab_VDW": -0.8491, "PARAM1": 0.1234, "PARAM2": 1.0, "PARAM3": 0.0, "MODEL_GW": 0, "MODEL_EPS0": 26.42375803, "MODEL_ALPHA": 1.0, "LEPSILON": false, "LRPA": false, "LNABLA": false, "LVEL": false, "CSHIFT": 0.1, "OMEGAMAX": -1.0, "DEG_THRESHOLD": 0.002, "RTIME": -0.1, "WPLASMAI": 0.0, "DFIELD": [0.0, 0.0, 0.0], "WPLASMA": [0.0, 0.0, 0.0, 0.0, 0.0, 0.0, 0.0, 0.0, 0.0], "NUCIND": false, "MAGPOS": [0.0, 0.0, 0.0], "LNICSALL": true, "ORBITALMAG": false, "LMAGBLOCH": false, "LCHIMAG": false, "LGAUGE": true, "MAGATOM": 0, "MAGDIPOL": [0.0, 0.0, 0.0], "AVECCONST": [0.0, 0.0, 0.0], "LFINITE_TEMPERATURE": false, "LADDER": false, "LRPAFORCE": false, "LFXC": false, "LHARTREE": true, "IBSE": 0, "KPOINT": [-1, 0, 0, 0], "LTCTC": false, "LTCTE": false, "LTETE": false, "LTRIPLET": false, "LFXCEPS": false, "LFXHEG": false, "NATURALO": 2, "LHOLEGF": false, "L2ORDER": false, "LDMP1": false, "LMP2LT": false, "LSMP2LT": false, "LGWLF": false, "ENCUTGW": -2.0, "ENCUTGWSOFT": -2.0, "ENCUTLF": -1.0, "LESF_SPLINES": false, "LMAXMP2": -1, "SCISSOR": 0.0, "NOMEGA": 0, "NOMEGAR": 0, "NBANDSGW": -1, "NBANDSO": -1, "NBANDSV": -1, "NELMGW": 1, "NELMHF": 1, "DIM": 3, "IESPILON": 4, "ANTIRES": 0, "OMEGAMIN": -30.0, "OMEGATL": -200.0, "OMEGAGRID": 0, "LSELFENERGY": false, "LSPECTRAL": false, "LSPECTRALGW": false, "LSINGLES": false, "LFERMIGW": false, "ODDONLYGW": false, "EVENONLYGW": false, "NKREDLFX": 1, "NKREDLFY": 1, "NKREDLFZ": 1, "MAXMEM": 2800, "TELESCOPE": 0, "NTAUPAR": -1, "NOMEGAPAR": -1, "DAMP_NEWTON": 0.80000001, "LAMBDA": 1.0, "OFIELD_KAPPA": 0.0, "OFIELD_K": [0.0, 0.0, 0.0], "OFIELD_Q6_NEAR": 0.0, "OFIELD_Q6_FAR": 0.0, "OFIELD_A": 0.0, "KPOINTS_OPT_MODE": 1, "LKPOINTS_OPT": false, "@module": "pymatgen.io.vasp.inputs", "@class": "Incar"}, "relaxed_structures": {"@module": "pymatgen.core.structure", "@class": "Structure", "charge": 0, "lattice": {"matrix": [[10.604103, 0.0, 0.0], [0.0, 9.802244, 0.0], [0.0, 0.0, 44.063321]], "a": 10.604103, "b": 9.802244, "c": 44.063321, "alpha": 90.0, "beta": 90.0, "gamma": 90.0, "volume": 4580.118058654865}, "sites": [{"species": [{"element": "Li", "occu": 1}], "abc": [0.60852386, 0.82971149, 9.999999999998899e-05], "xyz": [6.45284968939758, 8.13303447458356, 0.0044063320999995145], "label": "Li", "properties": {}}, {"species": [{"element": "Li", "occu": 1}], "abc": [0.78385074, 0.74853332, 0.1089450499999999], "xyz": [8.31203398358622, 7.33730624477008, 4.800480709511046], "label": "Li", "properties": {}}, {"species": [{"element": "Li", "occu": 1}], "abc": [0.77830672, 0.54658033, 0.06076386999999991], "xyz": [8.25324462447216, 5.35771376026052, 2.677457909012266], "label": "Li", "properties": {}}, {"species": [{"element": "Li", "occu": 1}], "abc": [0.89180795, 0.15966008, 0.006691219999999909], "xyz": [9.45682335801885, 1.56502706121952, 0.29483737474161603], "label": "Li", "properties": {}}, {"species": [{"element": "Li", "occu": 1}], "abc": [0.55629954, 0.06884688, 0.036008149999999906], "xyz": [5.899057621012621, 0.6748539163987199, 1.5866386720661458], "label": "Li", "properties": {}}, {"species": [{"element": "Li", "occu": 1}], "abc": [0.31822135, 0.22323524, 0.1099018899999999], "xyz": [3.3744519721990502, 2.18820629187856, 4.842642257576686], "label": "Li", "properties": {}}, {"species": [{"element": "Li", "occu": 1}], "abc": [0.2766252, 0.02091947, 0.0636393799999999], "xyz": [2.9333621131956003, 0.20505774929068, 2.8041624291809755], "label": "Li", "properties": {}}, {"species": [{"element": "Li", "occu": 1}], "abc": [0.30372308, 0.42880647, 0.05818001999999991], "xyz": [3.2207108237972397, 4.20326564771868, 2.563604897046416], "label": "Li", "properties": {}}, {"species": [{"element": "Li", "occu": 1}], "abc": [0.98092027, 0.55312845, 0.10497323999999991], "xyz": [10.40177957786781, 5.4219000302418, 4.625469570530036], "label": "Li", "properties": {}}, {"species": [{"element": "Li", "occu": 1}], "abc": [0.02737, 0.92502414, 0.09975955999999991], "xyz": [0.29023429911, 9.06731232617016, 4.395737515098756], "label": "Li", "properties": {}}, {"species": [{"element": "Li", "occu": 1}], "abc": [0.79615221, 0.9318174, 0.05268639999999991], "xyz": [8.44248003851763, 9.133901518245601, 2.321537755534396], "label": "Li", "properties": {}}, {"species": [{"element": "Li", "occu": 1}], "abc": [0.57468753, 0.34974, 0.10401106999999991], "xyz": [6.09404576093559, 3.42823681656, 4.583073164963467], "label": "Li", "properties": {}}, {"species": [{"element": "Li", "occu": 1}], "abc": [0.81071929, 0.28649073, 0.1276716099999999], "xyz": [8.59695085524687, 2.8082520391981203, 5.6256351340168065], "label": "Li", "properties": {}}, {"species": [{"element": "Li", "occu": 1}], "abc": [0.79552778, 0.259936, 0.22252616999999988], "xyz": [8.435858518481341, 2.547956096384, 9.805242059610565], "label": "Li", "properties": {}}, {"species": [{"element": "Li", "occu": 1}], "abc": [0.80394231, 0.0592818, 0.1780042999999999], "xyz": [8.525087061297931, 0.5810946683592, 7.843460610280296], "label": "Li", "properties": {}}, {"species": [{"element": "Li", "occu": 1}], "abc": [0.77287012, 0.50932001, 0.1688552099999999], "xyz": [8.19559435810236, 4.99247901210244, 7.440321320752406], "label": "Li", "properties": {}}, {"species": [{"element": "Li", "occu": 1}], "abc": [0.28333147, 0.78238562, 0.1212908799999999], "xyz": [3.00447609102141, 7.66913474933128, 5.344478979812476], "label": "Li", "properties": {}}, {"species": [{"element": "Li", "occu": 1}], "abc": [0.29177329, 0.75655487, 0.2215113699999999], "xyz": [3.0939940198088705, 7.41593543512828, 9.760526601459766], "label": "Li", "properties": {}}, {"species": [{"element": "Li", "occu": 1}], "abc": [0.30416513, 0.55756539, 0.1778713499999999], "xyz": [3.22539836752839, 5.465391998735161, 7.837602391753346], "label": "Li", "properties": {}}, {"species": [{"element": "Li", "occu": 1}], "abc": [0.28938361, 0.98510433, 0.1667852199999999], "xyz": [3.0686536069518304, 9.65623300811652, 7.3491106869156155], "label": "Li", "properties": {}}, {"species": [{"element": "Li", "occu": 1}], "abc": [0.06260113, 0.16681438, 0.1290823599999999], "xyz": [0.6638288304363901, 1.63515525546872, 5.687797464117556], "label": "Li", "properties": {}}, {"species": [{"element": "Li", "occu": 1}], "abc": [0.03911559, 0.43873023, 0.2072574699999999], "xyz": [0.41478574526577, 4.30054076463612, 9.132452430257866], "label": "Li", "properties": {}}, {"species": [{"element": "Li", "occu": 1}], "abc": [0.54153015, 0.63158484, 0.1254858799999999], "xyz": [5.742441488205451, 6.190948708380961, 5.5293246114074766], "label": "Li", "properties": {}}, {"species": [{"element": "Li", "occu": 1}], "abc": [0.54204836, 0.9290155, 0.2070020199999999], "xyz": [5.74793664042108, 9.106436610782, 9.121196454908416], "label": "Li", "properties": {}}, {"species": [{"element": "Li", "occu": 1}], "abc": [0.79532267, 0.80800452, 0.2358864699999999], "xyz": [8.43368351091501, 7.92025745814288, 10.393941247166866], "label": "Li", "properties": {}}, {"species": [{"element": "Li", "occu": 1}], "abc": [0.78535366, 0.77777352, 0.33480738999999987], "xyz": [8.32797110206698, 7.62392581977888, 14.752725498742185], "label": "Li", "properties": {}}, {"species": [{"element": "Li", "occu": 1}], "abc": [0.78247459, 0.57611548, 0.2892571899999999], "xyz": [8.29744114724277, 5.64722450713712, 12.745632414527986], "label": "Li", "properties": {}}, {"species": [{"element": "Li", "occu": 1}], "abc": [0.80007891, 0.00876277, 0.2789845099999999], "xyz": [8.48411916976773, 0.08589480965587999, 12.292984018157707], "label": "Li", "properties": {}}, {"species": [{"element": "Li", "occu": 1}], "abc": [0.2896117, 0.30149921, 0.2332077899999999], "xyz": [3.0710722968051005, 2.95536882222724, 10.275909710470586], "label": "Li", "properties": {}}, {"species": [{"element": "Li", "occu": 1}], "abc": [0.30681232, 0.2786237, 0.3302879899999999], "xyz": [3.2534694429489606, 2.7311374915827997, 14.553585725814788], "label": "Li", "properties": {}}, {"species": [{"element": "Li", "occu": 1}], "abc": [0.27853903, 0.06175306, 0.2880680799999999], "xyz": [2.95365656364009, 0.60531856186664, 12.693236278893675], "label": "Li", "properties": {}}, {"species": [{"element": "Li", "occu": 1}], "abc": [0.3069916, 0.50032038, 0.2782864799999999], "xyz": [3.2553705465347997, 4.90426244293272, 12.262226498200075], "label": "Li", "properties": {}}, {"species": [{"element": "Li", "occu": 1}], "abc": [0.04188686, 0.62783572, 0.2508292399999999], "xyz": [0.44417257778658, 6.15419891935568, 11.052369318306036], "label": "Li", "properties": {}}, {"species": [{"element": "Li", "occu": 1}], "abc": [0.0415662, 0.92969409, 0.3306886499999999], "xyz": [0.4407722661186, 9.11308831553796, 14.571240136006647], "label": "Li", "properties": {}}, {"species": [{"element": "Li", "occu": 1}], "abc": [0.53900623, 0.12949469, 0.2480550799999999], "xyz": [5.715677580561691, 1.26933854808436, 10.930130615720676], "label": "Li", "properties": {}}, {"species": [{"element": "Li", "occu": 1}], "abc": [0.56184675, 0.39085462, 0.3285258399999999], "xyz": [5.95788080721525, 3.83125235376728, 14.475939544714636], "label": "Li", "properties": {}}, {"species": [{"element": "Li", "occu": 1}], "abc": [0.81731396, 0.33945082, 0.3469463599999999], "xyz": [8.66688141517788, 3.3273797636400797, 15.287608830461556], "label": "Li", "properties": {}}, {"species": [{"element": "Li", "occu": 1}], "abc": [0.05667741, 0.49709121, 0.4196110299999999], "xyz": [0.60101309341323, 4.87260933067524, 18.489455510030627], "label": "Li", "properties": {}}, {"species": [{"element": "Li", "occu": 1}], "abc": [0.80483219, 0.13213518, 0.3989585999999999], "xyz": [8.534523440475569, 1.2952212753439198, 17.579440857510594], "label": "Li", "properties": {}}, {"species": [{"element": "Li", "occu": 1}], "abc": [0.77199625, 0.54312888, 0.3932350899999999], "xyz": [8.186327750613751, 5.32388180520672, 17.327243999133888], "label": "Li", "properties": {}}, {"species": [{"element": "Li", "occu": 1}], "abc": [0.28395355, 0.81408522, 0.3478617499999999], "xyz": [3.01107269141565, 7.979861963233681, 15.327943953871747], "label": "Li", "properties": {}}, {"species": [{"element": "Li", "occu": 1}], "abc": [0.103127, 0.73214725, 0.4568055099999999], "xyz": [1.093569330081, 7.176685988429, 20.128367821698706], "label": "Li", "properties": {}}, {"species": [{"element": "Li", "occu": 1}], "abc": [0.38843995, 0.40317234, 0.4509872199999999], "xyz": [4.1190572391148494, 3.95199365073096, 19.871994641757617], "label": "Li", "properties": {}}, {"species": [{"element": "Li", "occu": 1}], "abc": [0.27783914, 0.01598155, 0.3961944799999999], "xyz": [2.9462348579914197, 0.1566550525982, 17.457644550668075], "label": "Li", "properties": {}}, {"species": [{"element": "Li", "occu": 1}], "abc": [0.07052541, 0.2101143, 0.3531343499999999], "xyz": [0.74785871175723, 2.0595916364892, 15.560272220176346], "label": "Li", "properties": {}}, {"species": [{"element": "Li", "occu": 1}], "abc": [0.29830161, 0.63033869, 0.4046896999999999], "xyz": [3.16322099750583, 6.17873364202036, 17.831972156493695], "label": "Li", "properties": {}}, {"species": [{"element": "Li", "occu": 1}], "abc": [0.52520579, 0.64004267, 0.3558281099999999], "xyz": [5.56933629335637, 6.27385442175148, 15.678968231753307], "label": "Li", "properties": {}}, {"species": [{"element": "Li", "occu": 1}], "abc": [0.47945235, 0.01164115, 0.3516747599999999], "xyz": [5.0841621029920505, 0.11410939274059999, 15.495957837477958], "label": "Li", "properties": {}}, {"species": [{"element": "P", "occu": 1}], "abc": [0.50007527, 0.74669794, 0.05835056999999991], "xyz": [5.30284967083281, 7.31931540217736, 2.571119896442966], "label": "P", "properties": {}}, {"species": [{"element": "P", "occu": 1}], "abc": [0.00982143, 0.25159608, 0.06137877999999991], "xyz": [0.10414745532729001, 2.46620616560352, 2.704552885728376], "label": "P", "properties": {}}, {"species": [{"element": "P", "occu": 1}], "abc": [0.52418228, 0.27570157, 0.1727863999999999], "xyz": [5.55848288789484, 2.70249406032308, 7.613542607634396], "label": "P", "properties": {}}, {"species": [{"element": "P", "occu": 1}], "abc": [0.01551417, 0.76995476, 0.1737542899999999], "xyz": [0.16451385663951001, 7.54728442648144, 7.656191055397086], "label": "P", "properties": {}}, {"species": [{"element": "P", "occu": 1}], "abc": [0.51383163, 0.79411984, 0.2828157599999999], "xyz": [5.44872352917789, 7.78415643692096, 12.461801616738956], "label": "P", "properties": {}}, {"species": [{"element": "P", "occu": 1}], "abc": [0.02338214, 0.28841087, 0.28389757999999987], "xyz": [0.24794662092042, 2.82707371999228, 12.509470198663175], "label": "P", "properties": {}}, {"species": [{"element": "P", "occu": 1}], "abc": [0.50875058, 0.31087104, 0.3962392099999999], "xyz": [5.39484355162974, 3.0472337866137598, 17.459615503016405], "label": "P", "properties": {}}, {"species": [{"element": "P", "occu": 1}], "abc": [0.99955344, 0.81490417, 0.3981878199999999], "xyz": [10.59936763176432, 7.987889510957481, 17.545477730950218], "label": "P", "properties": {}}, {"species": [{"element": "S", "occu": 1}], "abc": [0.60105123, 0.62023898, 0.03080686999999991], "xyz": [6.373609151196691, 6.0797338202711195, 1.3574530018152662], "label": "S", "properties": {}}, {"species": [{"element": "S", "occu": 1}], "abc": [0.6026749, 0.86337183, 0.0886626699999999], "xyz": [6.3908267151147005, 8.46298134038652, 3.906771688927066], "label": "S", "properties": {}}, {"species": [{"element": "S", "occu": 1}], "abc": [0.10986285, 0.12828347, 0.03351458999999991], "xyz": [1.16499697727355, 1.2574658741066802, 1.476764137353386], "label": "S", "properties": {}}, {"species": [{"element": "S", "occu": 1}], "abc": [0.12335398, 0.36312227, 0.09174707999999991], "xyz": [1.30805830937994, 3.5594130923738803, 4.042681036852676], "label": "S", "properties": {}}, {"species": [{"element": "S", "occu": 1}], "abc": [0.39942331, 0.87381171, 0.030367989999999907], "xyz": [4.23552591984093, 8.56531559147724, 1.338114491494786], "label": "S", "properties": {}}, {"species": [{"element": "S", "occu": 1}], "abc": [0.38014068, 0.62817781, 0.08527126999999991], "xyz": [4.031050925210041, 6.15755216900564, 3.7573353420876665], "label": "S", "properties": {}}, {"species": [{"element": "S", "occu": 1}], "abc": [0.90797976, 0.37854933, 0.03486299999999991], "xyz": [9.62831089695528, 3.7106328986965202, 1.536179560022996], "label": "S", "properties": {}}, {"species": [{"element": "S", "occu": 1}], "abc": [0.8949539, 0.13211582, 0.0898834299999999], "xyz": [9.4901833358517, 1.29503150390008, 3.9605624286710257], "label": "S", "properties": {}}, {"species": [{"element": "S", "occu": 1}], "abc": [0.72731626, 0.01611471, 0.0072189999999999095], "xyz": [7.712536534614781, 0.15796031940924002, 0.318093114298996], "label": "S", "properties": {}}, {"species": [{"element": "S", "occu": 1}], "abc": [0.62673909, 0.15388278, 0.1440942799999999], "xyz": [6.646005864486271, 1.50839655695832, 6.349272513903876], "label": "S", "properties": {}}, {"species": [{"element": "S", "occu": 1}], "abc": [0.620312, 0.39863269, 0.20188291999999988], "xyz": [6.577852340136, 3.9074948937563603, 8.895631908377315], "label": "S", "properties": {}}, {"species": [{"element": "S", "occu": 1}], "abc": [0.11757449, 0.63779659, 0.14666350999999989], "xyz": [1.24677200213247, 6.25183779754796, 6.462481320116705], "label": "S", "properties": {}}, {"species": [{"element": "S", "occu": 1}], "abc": [0.11903641, 0.89502417, 0.2006097899999999], "xyz": [1.26227435239023, 8.77324530023748, 8.839533572512586], "label": "S", "properties": {}}, {"species": [{"element": "S", "occu": 1}], "abc": [0.41269389, 0.39563709, 0.1445246299999999], "xyz": [4.37624851703067, 3.8781312916299604, 6.368235164096226], "label": "S", "properties": {}}, {"species": [{"element": "S", "occu": 1}], "abc": [0.40695445, 0.15073706, 0.19884346999999988], "xyz": [4.31538690410835, 1.47756144196264, 8.761703647363865], "label": "S", "properties": {}}, {"species": [{"element": "S", "occu": 1}], "abc": [0.89689193, 0.88439983, 0.14679038999999988], "xyz": [9.51073440558879, 8.66910292721852, 6.468072074285185], "label": "S", "properties": {}}, {"species": [{"element": "S", "occu": 1}], "abc": [0.90323647, 0.64883392, 0.20206942999999988], "xyz": [9.57801256123641, 6.360028399316479, 8.903850158377026], "label": "S", "properties": {}}, {"species": [{"element": "S", "occu": 1}], "abc": [0.22612109, 0.0100978, 0.11624413999999991], "xyz": [2.39781132883227, 0.09898109946320001, 5.1221028551889365], "label": "S", "properties": {}}, {"species": [{"element": "S", "occu": 1}], "abc": [0.74613429, 0.51185152, 0.1156955399999999], "xyz": [7.91208486299187, 5.01729349081088, 5.097929717288336], "label": "S", "properties": {}}, {"species": [{"element": "S", "occu": 1}], "abc": [0.6167283, 0.67045106, 0.2553934699999999], "xyz": [6.5398504162149, 6.57192488017864, 11.253484449913866], "label": "S", "properties": {}}, {"species": [{"element": "S", "occu": 1}], "abc": [0.61691612, 0.92272802, 0.3104381499999999], "xyz": [6.54184207884036, 9.04480519767688, 13.678935854096148], "label": "S", "properties": {}}, {"species": [{"element": "S", "occu": 1}], "abc": [0.11940853, 0.16349864, 0.2552154299999999], "xyz": [1.26622035119859, 1.60265356294816, 11.245639416243026], "label": "S", "properties": {}}, {"species": [{"element": "S", "occu": 1}], "abc": [0.1255907, 0.4113118, 0.3123579299999999], "xyz": [1.3317767186421001, 4.0317786236792, 13.763527736485527], "label": "S", "properties": {}}, {"species": [{"element": "S", "occu": 1}], "abc": [0.40239909, 0.91685839, 0.2547104699999999], "xyz": [4.267081397466271, 8.98726965222716, 11.223389201670866], "label": "S", "properties": {}}, {"species": [{"element": "S", "occu": 1}], "abc": [0.39406247, 0.67911799, 0.3093781399999999], "xyz": [4.17867902031441, 6.656880242769559, 13.632228293202937], "label": "S", "properties": {}}, {"species": [{"element": "S", "occu": 1}], "abc": [0.90637181, 0.41270806, 0.25759264999999987], "xyz": [9.61126002953643, 4.04546510488664, 11.350387624190645], "label": "S", "properties": {}}, {"species": [{"element": "S", "occu": 1}], "abc": [0.91136101, 0.16864215, 0.3120901199999999], "xyz": [9.66416602022403, 1.6530715029846, 13.751727138488517], "label": "S", "properties": {}}, {"species": [{"element": "S", "occu": 1}], "abc": [0.23011001, 0.52969661, 0.2283766599999999], "xyz": [2.44011024737103, 5.19221541719284, 10.063034078487856], "label": "S", "properties": {}}, {"species": [{"element": "S", "occu": 1}], "abc": [0.7299106, 0.03346147, 0.2282027399999999], "xyz": [7.7400471831918, 0.32799749353868, 10.055370585699537], "label": "S", "properties": {}}, {"species": [{"element": "S", "occu": 1}], "abc": [0.62241767, 0.19876981, 0.3658747999999999], "xyz": [6.60018108170001, 1.9483901774536398, 16.121658758210796], "label": "S", "properties": {}}, {"species": [{"element": "S", "occu": 1}], "abc": [0.60928799, 0.4328231, 0.4242128899999999], "xyz": [6.46095260262297, 4.242637635036401, 18.692228744407686], "label": "S", "properties": {}}, {"species": [{"element": "S", "occu": 1}], "abc": [0.10265631, 0.6971885, 0.3682044499999999], "xyz": [1.08857808483993, 6.8340117909939995, 16.224310873978446], "label": "S", "properties": {}}, {"species": [{"element": "S", "occu": 1}], "abc": [0.10011673, 0.94099218, 0.4258991699999999], "xyz": [1.06164811694319, 9.22383495045192, 18.766531841343564], "label": "S", "properties": {}}, {"species": [{"element": "S", "occu": 1}], "abc": [0.39509, 0.43144226, 0.3675928899999999], "xyz": [4.18957505427, 4.22910230443144, 16.197363509387685], "label": "S", "properties": {}}, {"species": [{"element": "S", "occu": 1}], "abc": [0.4052724, 0.18435063, 0.42246478999999987], "xyz": [4.2975502726572, 1.8070498568137199, 18.615201652967585], "label": "S", "properties": {}}, {"species": [{"element": "S", "occu": 1}], "abc": [0.88062682, 0.93367644, 0.3710604899999999], "xyz": [9.33825750384246, 9.15212428193136, 16.350157481287287], "label": "S", "properties": {}}, {"species": [{"element": "S", "occu": 1}], "abc": [0.89749404, 0.68881269, 0.4261541899999999], "xyz": [9.517119242046121, 6.75191005767636, 18.777768869464985], "label": "S", "properties": {}}, {"species": [{"element": "S", "occu": 1}], "abc": [0.24476897, 0.05144356, 0.3412291699999999], "xyz": [2.59555536908391, 0.50426232734864, 15.035690452273567], "label": "S", "properties": {}}, {"species": [{"element": "S", "occu": 1}], "abc": [0.7236483, 0.55143737, 0.3401543399999999], "xyz": [7.6736411089749, 5.40532365145828, 14.988329872963135], "label": "S", "properties": {}}, {"species": [{"element": "S", "occu": 1}], "abc": [0.22494126, 0.54776628, 0.4497848799999999], "xyz": [2.38530028998978, 5.369338731532321, 19.819015548386474], "label": "S", "properties": {}}, {"species": [{"element": "Cl", "occu": 1}], "abc": [0.93979071, 0.74330969, 0.0699310599999999], "xyz": [9.96563748728313, 7.28610294894436, 3.081394744650256], "label": "Cl", "properties": {}}, {"species": [{"element": "Cl", "occu": 1}], "abc": [0.44686764, 0.24538885, 0.06523996999999991], "xyz": [4.73863048192692, 2.4053613825794, 2.8746897401403664], "label": "Cl", "properties": {}}, {"species": [{"element": "Cl", "occu": 1}], "abc": [0.94294047, 0.27164941, 0.17287279999999988], "xyz": [9.999037866748411, 2.6627737992760396, 7.617349678568795], "label": "Cl", "properties": {}}, {"species": [{"element": "Cl", "occu": 1}], "abc": [0.43326005, 0.77177261, 0.17086804999999988], "xyz": [4.59433419598515, 7.56510343573684, 7.529013735794045], "label": "Cl", "properties": {}}, {"species": [{"element": "Cl", "occu": 1}], "abc": [0.93104603, 0.79120658, 0.2857705999999999], "xyz": [9.87290799986109, 7.75559995156552, 12.592001680162594], "label": "Cl", "properties": {}}, {"species": [{"element": "Cl", "occu": 1}], "abc": [0.44079321, 0.28805066, 0.2845782199999999], "xyz": [4.67421660054063, 2.8235428536810403, 12.539461457468615], "label": "Cl", "properties": {}}, {"species": [{"element": "Cl", "occu": 1}], "abc": [0.94575362, 0.31700508, 0.3915693699999999], "xyz": [10.02886879910286, 3.10736114339952, 17.253846844077767], "label": "Cl", "properties": {}}, {"species": [{"element": "Cl", "occu": 1}], "abc": [0.43971539, 0.82011944, 0.3866888699999999], "xyz": [4.66278728624517, 8.03901086002336, 17.038795805937266], "label": "Cl", "properties": {}}]}, "formula": "(Li3PS4)8.0(Li2S)8.0(LiCl)8.0", "bandgap": 1.3087, "slab_thickness": 20.123961489598706}