{"miller": "111_0.45", "final_energy": -648.13670543, "gamma": 0.013437365005881007, "work_function": "Not calculated", "ionization_potentail": "Not calculated", "electron_affinity": "Not calculated", "is_stochiometric": true, "incar_parameters": {"SYSTEM": "unknown system", "LCOMPAT": false, "PREC": "normal", "ENMAX": 520.0, "ENAUG": 628.945, "EDIFF": 1e-05, "IALGO": 38, "IWAVPR": 11, "NBANDS": 439, "NBANDSLOW": -1, "NBANDSHIGH": -1, "NELECT": 720.0, "TURBO": 0, "IRESTART": 0, "NREBOOT": 0, "NMIN": 0, "EREF": 0.0, "ISMEAR": 0, "SIGMA": 0.05, "KSPACING": 0.5, "KGAMMA": true, "KBLOWUP": true, "LREAL": true, "ROPT": [-0.0005, -0.0005, -0.0005, -0.0005], "LMAXPAW": -100, "LMAXMIX": 2, "NLSPLINE": false, "ISTART": 0, "ICHARG": 2, "INIWAV": 1, "ISPIN": 1, "LNONCOLLINEAR": false, "MAGMOM": [0.6, 0.6, 0.6, 0.6, 0.6, 0.6, 0.6, 0.6, 0.6, 0.6, 0.6, 0.6, 0.6, 0.6, 0.6, 0.6, 0.6, 0.6, 0.6, 0.6, 0.6, 0.6, 0.6, 0.6, 0.6, 0.6, 0.6, 0.6, 0.6, 0.6, 0.6, 0.6, 0.6, 0.6, 0.6, 0.6, 0.6, 0.6, 0.6, 0.6, 0.6, 0.6, 0.6, 0.6, 0.6, 0.6, 0.6, 0.6, 0.6, 0.6, 0.6, 0.6, 0.6, 0.6, 0.6, 0.6, 0.6, 0.6, 0.6, 0.6, 0.6, 0.6, 0.6, 0.6, 0.6, 0.6, 0.6, 0.6, 0.6, 0.6, 0.6, 0.6, 0.6, 0.6, 0.6, 0.6, 0.6, 0.6, 0.6, 0.6, 0.6, 0.6, 0.6, 0.6, 0.6, 0.6, 0.6, 0.6, 0.6, 0.6, 0.6, 0.6, 0.6, 0.6, 0.6, 0.6, 0.6, 0.6, 0.6, 0.6, 0.6, 0.6, 0.6, 0.6, 0.6, 0.6, 0.6, 0.6, 0.6, 0.6, 0.6, 0.6, 0.6, 0.6, 0.6, 0.6, 0.6, 0.6, 0.6, 0.6, 0.6, 0.6, 0.6, 0.6, 0.6, 0.6, 0.6, 0.6, 0.6, 0.6, 0.6, 0.6, 0.6, 0.6, 0.6, 0.6, 0.6, 0.6, 0.6, 0.6, 0.6, 0.6, 0.6, 0.6, 0.6, 0.6, 0.6, 0.6, 0.6, 0.6, 0.6, 0.6, 0.6, 0.6, 0.6, 0.6], "NUPDOWN": -1.0, "LSORBIT": false, "SAXIS": [0.0, 0.0, 1.0], "LSPIRAL": false, "QSPIRAL": [0.0, 0.0, 0.0], "LZEROZ": false, "LASPH": false, "LMETAGGA": false, "NELM": 100, "NELMDL": -5, "NELMIN": 6, "ENINI": 520.0, "LDIAG": true, "LSUBROT": false, "WEIMIN": 0.001, "EBREAK": 1e-08, "DEPER": 0.3, "NRMM": 4, "TIME": 0.4, "AMIX": 0.4, "BMIX": 1.0, "AMIN": 0.1, "AMIX_MAG": 1.6, "BMIX_MAG": 1.0, "IMIX": 4, "MIXFIRST": false, "MAXMIX": -45, "WC": 100.0, "INIMIX": 1, "MIXPRE": 1, "MREMOVE": 5, "LDIPOL": false, "LMONO": false, "IDIPOL": 0, "EPSILON": 1.0, "DIPOL": [-100.0, -100.0, -100.0], "EFIELD": 0.0, "NGX": 80, "NGY": 98, "NGZ": 224, "NGXF": 160, "NGYF": 196, "NGZF": 448, "ADDGRID": false, "NSW": 150, "IBRION": 2, "MDALGO": 0, "ISIF": 2, "PSTRESS": 0.0, "EDIFFG": -0.01, "NFREE": 1, "POTIM": 0.5, "SMASS": -3.0, "SCALEE": 1.0, "TEBEG": 0.0001, "TEEND": 0.0001, "NBLOCK": 1, "KBLOCK": 150, "NPACO": 256, "APACO": 10.0, "ISYM": 0, "SYMPREC": 1e-05, "LORBIT": 11, "RWIGS": [-1.0, -1.0, -1.0, -1.0], "NEDOS": 301, "EMIN": 10.0, "EMAX": -10.0, "EFERMI": 0.0, "NWRITE": 2, "LWAVE": false, "LDOWNSAMPLE": false, "LCHARG": false, "LPARD": false, "LVTOT": false, "LVHAR": false, "LELF": false, "LOPTICS": false, "STM": [0.0, 0.0, 0.0, 0.0, 0.0, 0.0, 0.0], "NPAR": 1, "NSIM": 1, "NBLK": -1, "LPLANE": true, "LSCALAPACK": true, "LSCAAWARE": false, "LSCALU": false, "LASYNC": false, "LORBITALREAL": false, "IDIOT": 3, "PHON_NSTRUCT": -1, "LMUSIC": false, "POMASS": [7.01, 30.974, 32.066, 35.453], "DARWINR": [0.0, 0.0, 0.0, 0.0], "DARWINV": [1.0, 1.0, 1.0, 1.0], "LCORR": true, "GGA_COMPAT": true, "LBERRY": false, "ICORELEVEL": 0, "LDAU": false, "I_CONSTRAINED_M": 0, "GGA": "--", "VOSKOWN": 0, "LHFCALC": false, "PRECFOCK": "", "LSYMGRAD": false, "LHFONE": false, "LRHFCALC": false, "LTHOMAS": false, "LMODELHF": false, "LFOCKACE": false, "ENCUT4O": -1.0, "EXXOEP": 0, "FOURORBIT": 0, "AEXX": 0.0, "HFALPHA": 0.0, "MCALPHA": 0.0, "ALDAX": 1.0, "AGGAX": 1.0, "ALDAC": 1.0, "AGGAC": 1.0, "NKREDX": 1, "NKREDY": 1, "NKREDZ": 1, "SHIFTRED": false, "ODDONLY": false, "EVENONLY": false, "LMAXFOCK": 0, "NMAXFOCKAE": 0, "LFOCKAEDFT": false, "HFSCREEN": 0.0, "HFSCREENC": 0.0, "NBANDSGWLOW": 0, "LUSE_VDW": false, "Zab_VDW": -0.8491, "PARAM1": 0.1234, "PARAM2": 1.0, "PARAM3": 0.0, "MODEL_GW": 0, "MODEL_EPS0": 21.8313003, "MODEL_ALPHA": 1.0, "LEPSILON": false, "LRPA": false, "LNABLA": false, "LVEL": false, "CSHIFT": 0.1, "OMEGAMAX": -1.0, "DEG_THRESHOLD": 0.002, "RTIME": -0.1, "WPLASMAI": 0.0, "DFIELD": [0.0, 0.0, 0.0], "WPLASMA": [0.0, 0.0, 0.0, 0.0, 0.0, 0.0, 0.0, 0.0, 0.0], "NUCIND": false, "MAGPOS": [0.0, 0.0, 0.0], "LNICSALL": true, "ORBITALMAG": false, "LMAGBLOCH": false, "LCHIMAG": false, "LGAUGE": true, "MAGATOM": 0, "MAGDIPOL": [0.0, 0.0, 0.0], "AVECCONST": [0.0, 0.0, 0.0], "LFINITE_TEMPERATURE": false, "LADDER": false, "LRPAFORCE": false, "LFXC": false, "LHARTREE": true, "IBSE": 0, "KPOINT": [-1, 0, 0, 0], "LTCTC": false, "LTCTE": false, "LTETE": false, "LTRIPLET": false, "LFXCEPS": false, "LFXHEG": false, "NATURALO": 2, "LHOLEGF": false, "L2ORDER": false, "LDMP1": false, "LMP2LT": false, "LSMP2LT": false, "LGWLF": false, "ENCUTGW": -2.0, "ENCUTGWSOFT": -2.0, "ENCUTLF": -1.0, "LESF_SPLINES": false, "LMAXMP2": -1, "SCISSOR": 0.0, "NOMEGA": 0, "NOMEGAR": 0, "NBANDSGW": -1, "NBANDSO": -1, "NBANDSV": -1, "NELMGW": 1, "NELMHF": 1, "DIM": 3, "IESPILON": 4, "ANTIRES": 0, "OMEGAMIN": -30.0, "OMEGATL": -200.0, "OMEGAGRID": 0, "LSELFENERGY": false, "LSPECTRAL": false, "LSPECTRALGW": false, "LSINGLES": false, "LFERMIGW": false, "ODDONLYGW": false, "EVENONLYGW": false, "NKREDLFX": 1, "NKREDLFY": 1, "NKREDLFZ": 1, "MAXMEM": 2800, "TELESCOPE": 0, "NTAUPAR": -1, "NOMEGAPAR": -1, "DAMP_NEWTON": 0.80000001, "LAMBDA": 1.0, "OFIELD_KAPPA": 0.0, "OFIELD_K": [0.0, 0.0, 0.0], "OFIELD_Q6_NEAR": 0.0, "OFIELD_Q6_FAR": 0.0, "OFIELD_A": 0.0, "KPOINTS_OPT_MODE": 1, "LKPOINTS_OPT": false, "@module": "pymatgen.io.vasp.inputs", "@class": "Incar"}, "relaxed_structures": {"@module": "pymatgen.core.structure", "@class": "Structure", "charge": 0, "lattice": {"matrix": [[14.222561, 0.0, 0.0], [14.07524, 10.103507, 0.0], [0.0, 0.0, 39.500537]], "a": 14.222561, "b": 17.326085384663468, "c": 39.500537, "alpha": 90.0, "beta": 90.0, "gamma": 35.67159034373105, "volume": 5676.138078235229}, "sites": [{"species": [{"element": "Li", "occu": 1}], "abc": [0.14358825, 0.72823498, 0.021294260000000002], "xyz": [12.29227476440345, 7.35772721807486, 0.8411347050176201], "label": "Li", "properties": {}}, {"species": [{"element": "Li", "occu": 1}], "abc": [0.57515126, 0.46687075, 0.0457596], "xyz": [14.75144173480686, 4.71703189072025, 1.8075287729051999], "label": "Li", "properties": {}}, {"species": [{"element": "Li", "occu": 1}], "abc": [0.64385856, 0.72808802, 0.02128128], "xyz": [19.40533126759696, 7.35624240668614, 0.84062198804736], "label": "Li", "properties": {}}, {"species": [{"element": "Li", "occu": 1}], "abc": [0.07508394, 0.46691724, 0.0457719], "xyz": [7.639858129907941, 4.71750160276068, 1.8080146295103], "label": "Li", "properties": {}}, {"species": [{"element": "Li", "occu": 1}], "abc": [0.260318, 0.47573434, 0.02309328], "xyz": [10.3984636461396, 4.80658523433038, 0.9121969610913601], "label": "Li", "properties": {}}, {"species": [{"element": "Li", "occu": 1}], "abc": [0.50014098, 0.31638887, 0.06829826], "xyz": [11.56653487522858, 3.19663716276709, 2.69781794616562], "label": "Li", "properties": {}}, {"species": [{"element": "Li", "occu": 1}], "abc": [0.76131348, 0.47496814, 0.02316154], "xyz": [17.51311797227588, 4.79884392726698, 0.9148932677469801], "label": "Li", "properties": {}}, {"species": [{"element": "Li", "occu": 1}], "abc": [8.589e-05, 0.31645836, 0.06838179], "xyz": [4.45544894277069, 3.19733925546852, 2.70111742602123], "label": "Li", "properties": {}}, {"species": [{"element": "Li", "occu": 1}], "abc": [0.27145226, 0.69249816, 0.08369702999999999], "xyz": [13.607824127996262, 6.99666000704712, 3.3060776303051096], "label": "Li", "properties": {}}, {"species": [{"element": "Li", "occu": 1}], "abc": [0.77146627, 0.69247412, 0.08371121], "xyz": [20.718965517306273, 6.99641711873884, 3.30663774791977], "label": "Li", "properties": {}}, {"species": [{"element": "Li", "occu": 1}], "abc": [0.21945069, 0.57423622, 0.09716313], "xyz": [11.20366343820989, 5.80179966842354, 3.83799581160081], "label": "Li", "properties": {}}, {"species": [{"element": "Li", "occu": 1}], "abc": [0.71928525, 0.57435064, 0.0971552], "xyz": [18.31420144667885, 5.80295571169448, 3.8376825723424], "label": "Li", "properties": {}}, {"species": [{"element": "Li", "occu": 1}], "abc": [0.90244306, 0.24040326, 0.11442257], "xyz": [16.21878505115906, 2.4289160202328204, 4.5197529599200905], "label": "Li", "properties": {}}, {"species": [{"element": "Li", "occu": 1}], "abc": [0.32669905, 0.96185674, 0.09497749999999999], "xyz": [18.184861628384652, 9.71812630558718, 3.7516622529175], "label": "Li", "properties": {}}, {"species": [{"element": "Li", "occu": 1}], "abc": [0.40245989, 0.24039923, 0.11441646], "xyz": [9.10768719364349, 2.42887530309961, 4.51951161163902], "label": "Li", "properties": {}}, {"species": [{"element": "Li", "occu": 1}], "abc": [0.82667834, 0.96190212, 0.09496471], "xyz": [25.296486313537542, 9.71858480273484, 3.75115704104927], "label": "Li", "properties": {}}, {"species": [{"element": "Li", "occu": 1}], "abc": [0.03076003, 0.04137834, 0.07254078], "xyz": [1.01989646933843, 0.41806634783838004, 2.8653997643988602], "label": "Li", "properties": {}}, {"species": [{"element": "Li", "occu": 1}], "abc": [0.39564889, 0.78431256, 0.13211961], "xyz": [16.66652798962169, 7.9243074401479205, 5.21879554323057], "label": "Li", "properties": {}}, {"species": [{"element": "Li", "occu": 1}], "abc": [0.53074321, 0.04139157, 0.07253933], "xyz": [8.13112396128761, 0.41820001723599004, 2.86534248862021], "label": "Li", "properties": {}}, {"species": [{"element": "Li", "occu": 1}], "abc": [0.89561724, 0.78434607, 0.13212264], "xyz": [23.77783000685844, 7.924646008667491, 5.21891522985768], "label": "Li", "properties": {}}, {"species": [{"element": "Li", "occu": 1}], "abc": [0.15489161, 0.07195001, 0.17743385], "xyz": [3.21566903036561, 0.72694742968507, 7.0087323569774505], "label": "Li", "properties": {}}, {"species": [{"element": "Li", "occu": 1}], "abc": [0.65465622, 0.07235283, 0.17738375], "xyz": [10.32927146990862, 0.7310173243748102, 7.006753380073751], "label": "Li", "properties": {}}, {"species": [{"element": "Li", "occu": 1}], "abc": [0.04325797, 0.96970599, 0.15934339], "xyz": [14.264083655748772, 9.797431257906931, 6.29414947240043], "label": "Li", "properties": {}}, {"species": [{"element": "Li", "occu": 1}], "abc": [0.54325897, 0.96973137, 0.15934618], "xyz": [21.37573560790097, 9.79768768491459, 6.29425967889866], "label": "Li", "properties": {}}, {"species": [{"element": "Li", "occu": 1}], "abc": [0.64439402, 0.72742351, 0.20558610000000002], "xyz": [19.403593742377623, 7.349528525249571, 8.120761349735702], "label": "Li", "properties": {}}, {"species": [{"element": "Li", "occu": 1}], "abc": [0.03089052, 0.47774026, 0.18885595000000002], "xyz": [7.16365112218412, 4.82685206109182, 7.459911440645151], "label": "Li", "properties": {}}, {"species": [{"element": "Li", "occu": 1}], "abc": [0.14456192, 0.72731332, 0.20556961], "xyz": [12.29315025967392, 7.348415219813241, 8.120109985880571], "label": "Li", "properties": {}}, {"species": [{"element": "Li", "occu": 1}], "abc": [0.53238715, 0.47688956, 0.18905443000000002], "xyz": [14.284243726985551, 4.8182570076869204, 7.467751507228911], "label": "Li", "properties": {}}, {"species": [{"element": "Li", "occu": 1}], "abc": [0.79666494, 0.4546269, 0.18717529000000002], "xyz": [17.72959843366734, 4.5933260665383004, 7.393524468130731], "label": "Li", "properties": {}}, {"species": [{"element": "Li", "occu": 1}], "abc": [0.09402181, 0.27221666, 0.22367157000000001], "xyz": [5.1687457495538105, 2.75034292982662, 8.83514712663309], "label": "Li", "properties": {}}, {"species": [{"element": "Li", "occu": 1}], "abc": [0.29660454, 0.45464271, 0.18717820000000002], "xyz": [10.61768142052734, 4.59348580298397, 7.393639414693401], "label": "Li", "properties": {}}, {"species": [{"element": "Li", "occu": 1}], "abc": [0.59402104, 0.27219823, 0.22367315000000002], "xyz": [12.27975589150864, 2.7501567221926098, 8.835209537481552], "label": "Li", "properties": {}}, {"species": [{"element": "Li", "occu": 1}], "abc": [0.89718377, 0.56812878, 0.27311407], "xyz": [20.756799826442172, 5.74009310563146, 10.78815242725559], "label": "Li", "properties": {}}, {"species": [{"element": "Li", "occu": 1}], "abc": [0.39708304, 0.5681664, 0.27310753], "xyz": [13.64461619840144, 5.7404731995648, 10.78789409374361], "label": "Li", "properties": {}}, {"species": [{"element": "Li", "occu": 1}], "abc": [0.79148761, 0.45421839, 0.25909177], "xyz": [17.650213665632812, 4.589198682893731, 10.23426404728049], "label": "Li", "properties": {}}, {"species": [{"element": "Li", "occu": 1}], "abc": [0.29150235, 0.45420392, 0.25908946], "xyz": [10.53893913745915, 4.58905248514744, 10.23417280104002], "label": "Li", "properties": {}}, {"species": [{"element": "Li", "occu": 1}], "abc": [0.64612209, 0.06854703, 0.26253574], "xyz": [10.15432673700969, 0.69256539743421, 10.37030271169238], "label": "Li", "properties": {}}, {"species": [{"element": "Li", "occu": 1}], "abc": [0.78293776, 0.97628814, 0.3466808], "xyz": [24.876869930456962, 9.86393405650698, 13.6940777675896], "label": "Li", "properties": {}}, {"species": [{"element": "Li", "occu": 1}], "abc": [0.14611404, 0.068597, 0.26254938], "xyz": [3.04363508513644, 0.6930702696790001, 10.370841499017061], "label": "Li", "properties": {}}, {"species": [{"element": "Li", "occu": 1}], "abc": [0.28291632, 0.97629794, 0.34668812], "xyz": [17.765422436101122, 9.86403307087558, 13.69436691152044], "label": "Li", "properties": {}}, {"species": [{"element": "Li", "occu": 1}], "abc": [0.54157406, 0.95344212, 0.2765696], "xyz": [21.12249676947646, 9.63310913351484, 10.924647717875201], "label": "Li", "properties": {}}, {"species": [{"element": "Li", "occu": 1}], "abc": [0.8451464, 0.77171124, 0.31202996], "xyz": [22.882167141628003, 7.79698991531868, 12.32535098008852], "label": "Li", "properties": {}}, {"species": [{"element": "Li", "occu": 1}], "abc": [0.04154562, 0.95346658, 0.27656852], "xyz": [14.01115606021202, 9.63335626529606, 10.92460505729524], "label": "Li", "properties": {}}, {"species": [{"element": "Li", "occu": 1}], "abc": [0.34510764, 0.7717474, 0.3120354], "xyz": [15.770844335842039, 7.7973552581318, 12.325565863009802], "label": "Li", "properties": {}}, {"species": [{"element": "Li", "occu": 1}], "abc": [0.39528499, 0.22658903, 0.33021851], "xyz": [8.81125986127659, 2.2893438507282102, 13.04380847233987], "label": "Li", "properties": {}}, {"species": [{"element": "Li", "occu": 1}], "abc": [0.89526339, 0.22667846, 0.33030984], "xyz": [15.92349190267219, 2.29024740735922, 13.047416056384082], "label": "Li", "properties": {}}, {"species": [{"element": "Li", "occu": 1}], "abc": [0.54779172, 0.95463601, 0.34873814000000003], "xyz": [21.22773210638732, 9.64517160948707, 13.775343802381181], "label": "Li", "properties": {}}, {"species": [{"element": "Li", "occu": 1}], "abc": [0.04786682, 0.95447915, 0.34868987], "xyz": [14.11531187857202, 9.64358677337905, 13.773437111460192], "label": "Li", "properties": {}}, {"species": [{"element": "Li", "occu": 1}], "abc": [0.4055684, 0.5718019, 0.35801248], "xyz": [13.8164702836284, 5.7772044992633, 14.141685212701761], "label": "Li", "properties": {}}, {"species": [{"element": "Li", "occu": 1}], "abc": [0.57800265, 0.46143646, 0.44045090000000003], "xyz": [14.71550686703705, 4.66212650366522, 17.398047072133302], "label": "Li", "properties": {}}, {"species": [{"element": "Li", "occu": 1}], "abc": [0.90527, 0.57204528, 0.35799465], "xyz": [20.9269324033372, 5.77966349079696, 14.14098091812705], "label": "Li", "properties": {}}, {"species": [{"element": "Li", "occu": 1}], "abc": [0.07815606, 0.46135768, 0.44050131000000003], "xyz": [7.605299402712861, 4.66133054938376, 17.400038294203473], "label": "Li", "properties": {}}, {"species": [{"element": "Li", "occu": 1}], "abc": [0.2944674, 0.46997149, 0.37561032], "xyz": [10.803042073919, 4.7483602390154305, 14.83680934274184], "label": "Li", "properties": {}}, {"species": [{"element": "Li", "occu": 1}], "abc": [0.6468375, 0.2835895, 0.40383423], "xyz": [13.1912760748175, 2.8652484983765, 15.951668943981511], "label": "Li", "properties": {}}, {"species": [{"element": "Li", "occu": 1}], "abc": [0.79452941, 0.47004232, 0.37565333], "xyz": [17.916201464175813, 4.74907587041624, 14.83850826083821], "label": "Li", "properties": {}}, {"species": [{"element": "Li", "occu": 1}], "abc": [0.14717622, 0.2840663, 0.40369856], "xyz": [6.091524115111421, 2.8700658505141, 15.94630990612672], "label": "Li", "properties": {}}, {"species": [{"element": "Li", "occu": 1}], "abc": [0.15165524, 0.74118006, 0.42132232000000003], "xyz": [12.58921312958404, 7.488517924470421, 16.64245789008584], "label": "Li", "properties": {}}, {"species": [{"element": "Li", "occu": 1}], "abc": [0.65159605, 0.7412221, 0.42132639], "xyz": [19.70024351928805, 7.4889426759047, 16.64261865727143], "label": "Li", "properties": {}}, {"species": [{"element": "Li", "occu": 1}], "abc": [0.28120465, 0.54051448, 0.4625615], "xyz": [11.60732131758385, 5.461091832281361, 18.271427645525502], "label": "Li", "properties": {}}, {"species": [{"element": "Li", "occu": 1}], "abc": [0.78119302, 0.54052887, 0.46255563], "xyz": [18.718638951903024, 5.461237221747091, 18.27119577737331], "label": "Li", "properties": {}}, {"species": [{"element": "Li", "occu": 1}], "abc": [0.0237732, 0.19031142, 0.45178542], "xyz": [3.016794698406, 1.9228127641499402, 17.84576669877054], "label": "Li", "properties": {}}, {"species": [{"element": "Li", "occu": 1}], "abc": [0.3267719, 0.9654126, 0.48976332], "xyz": [18.2359473248599, 9.7540529619882, 19.345914142902842], "label": "Li", "properties": {}}, {"species": [{"element": "Li", "occu": 1}], "abc": [0.52379609, 0.19030426, 0.45179873000000004], "xyz": [10.128299974108891, 1.9227404230398202, 17.84629245091801], "label": "Li", "properties": {}}, {"species": [{"element": "Li", "occu": 1}], "abc": [0.82679441, 0.96536976, 0.48977685], "xyz": [25.34694499142641, 9.75362012774832, 19.34644858516845], "label": "Li", "properties": {}}, {"species": [{"element": "Li", "occu": 1}], "abc": [0.9718372, 0.07208557, 0.43879382], "xyz": [14.836635557356, 0.7283170610939901, 17.33259152228134], "label": "Li", "properties": {}}, {"species": [{"element": "Li", "occu": 1}], "abc": [0.25107409, 0.8158944, 0.46815469], "xyz": [15.05482605520049, 8.2433947816608, 18.49236165406853], "label": "Li", "properties": {}}, {"species": [{"element": "Li", "occu": 1}], "abc": [0.47181578, 0.07208175, 0.4387994], "xyz": [7.724996642682581, 0.7282784656972501, 17.3328119352778], "label": "Li", "properties": {}}, {"species": [{"element": "Li", "occu": 1}], "abc": [0.7511827, 0.81590927, 0.46813910000000003], "xyz": [22.1678605663695, 8.24354502080989, 18.4917458406967], "label": "Li", "properties": {}}, {"species": [{"element": "Li", "occu": 1}], "abc": [0.89564114, 0.22749942, 0.51422247], "xyz": [15.94041968412034, 2.2985419824659403, 20.31206370246639], "label": "Li", "properties": {}}, {"species": [{"element": "Li", "occu": 1}], "abc": [0.39561729, 0.22738852, 0.51422086], "xyz": [8.827239031924492, 2.29742150353964, 20.312000106601822], "label": "Li", "properties": {}}, {"species": [{"element": "Li", "occu": 1}], "abc": [0.00980652, 0.97552462, 0.51283179], "xyz": [13.870216981306521, 9.85621982684234, 20.25713109567123], "label": "Li", "properties": {}}, {"species": [{"element": "Li", "occu": 1}], "abc": [0.50982816, 0.97549284, 0.51282701], "xyz": [20.98135794639936, 9.85589873738988, 20.25694228310437], "label": "Li", "properties": {}}, {"species": [{"element": "P", "occu": 1}], "abc": [0.88109906, 0.7511955, 0.038799959999999994], "xyz": [23.104742077312665, 7.5897089926185, 1.5326192555785199], "label": "P", "properties": {}}, {"species": [{"element": "P", "occu": 1}], "abc": [0.38133335, 0.75108614, 0.03880492], "xyz": [15.995254512882951, 7.58860407309298, 1.53281517824204], "label": "P", "properties": {}}, {"species": [{"element": "P", "occu": 1}], "abc": [0.65141752, 0.25318341, 0.13259686], "xyz": [12.82844267443712, 2.55804035521887, 5.23764717451382], "label": "P", "properties": {}}, {"species": [{"element": "P", "occu": 1}], "abc": [0.15144134, 0.25308938, 0.13259777], "xyz": [5.71617746102294, 2.55709032245566, 5.23768312000249], "label": "P", "properties": {}}, {"species": [{"element": "P", "occu": 1}], "abc": [0.37726686, 0.75569056, 0.22021782], "xyz": [16.002226927362862, 7.63512486279392, 8.69872214696934], "label": "P", "properties": {}}, {"species": [{"element": "P", "occu": 1}], "abc": [0.87713975, 0.75579956, 0.22020799000000002], "xyz": [23.113233798794152, 7.636226145056921, 8.698333856690631], "label": "P", "properties": {}}, {"species": [{"element": "P", "occu": 1}], "abc": [0.12798674, 0.25506863, 0.31549032], "xyz": [5.41045140056234, 2.57708768868541, 12.46203705830184], "label": "P", "properties": {}}, {"species": [{"element": "P", "occu": 1}], "abc": [0.62795538, 0.25508931, 0.31546793], "xyz": [12.52157695701258, 2.57729662921017, 12.46115264127841], "label": "P", "properties": {}}, {"species": [{"element": "P", "occu": 1}], "abc": [0.90199939, 0.75267395, 0.40323958], "xyz": [23.42280783423579, 7.604646522542651, 15.92817994965446], "label": "P", "properties": {}}, {"species": [{"element": "P", "occu": 1}], "abc": [0.40201686, 0.75263343, 0.40324128000000004], "xyz": [16.31120547365166, 7.604237128439011, 15.928247100567361], "label": "P", "properties": {}}, {"species": [{"element": "P", "occu": 1}], "abc": [0.63168733, 0.25062415, 0.49671619], "xyz": [12.51180664489813, 2.53218285389405, 19.62055624159403], "label": "P", "properties": {}}, {"species": [{"element": "P", "occu": 1}], "abc": [0.13167522, 0.25062532, 0.49666239], "xyz": [5.40037037771522, 2.53219467499724, 19.61843111270343], "label": "P", "properties": {}}, {"species": [{"element": "S", "occu": 1}], "abc": [0.1496894, 0.86044261, 0.039741809999999995], "xyz": [14.2399028645298, 8.69348793323327, 1.56982283635197], "label": "S", "properties": {}}, {"species": [{"element": "S", "occu": 1}], "abc": [0.49151108, 0.63901953, 0.08399390999999999], "xyz": [15.98489956691308, 6.456338294491711, 3.3178045497296695], "label": "S", "properties": {}}, {"species": [{"element": "S", "occu": 1}], "abc": [0.64946706, 0.86052376, 0.039792179999999996], "xyz": [21.34916332604306, 8.69430783282632, 1.57181247840066], "label": "S", "properties": {}}, {"species": [{"element": "S", "occu": 1}], "abc": [0.99149718, 0.63905681, 0.08397215], "xyz": [23.096507098262382, 6.45671495323267, 3.31694501804455], "label": "S", "properties": {}}, {"species": [{"element": "S", "occu": 1}], "abc": [0.3588812, 0.52113714, 0.048330189999999995], "xyz": [12.4393400771668, 5.26531274194998, 1.9090684583120299], "label": "S", "properties": {}}, {"species": [{"element": "S", "occu": 1}], "abc": [0.85896406, 0.52110733, 0.048360719999999996], "xyz": [19.551379475666863, 5.26501155640631, 1.91027440970664], "label": "S", "properties": {}}, {"species": [{"element": "S", "occu": 1}], "abc": [0.86699716, 0.87805535, 0.03634692], "xyz": [24.68975977946076, 8.87143837511245, 1.43572285829604], "label": "S", "properties": {}}, {"species": [{"element": "S", "occu": 1}], "abc": [0.36725698, 0.87794102, 0.03638449], "xyz": [17.58056536307058, 8.87028324115714, 1.43720689347113], "label": "S", "properties": {}}, {"species": [{"element": "S", "occu": 1}], "abc": [0.00575349, 0.61868446, 0.00010000000000000026], "xyz": [8.78996162125829, 6.25088277240122, 0.0039500537000000105], "label": "S", "properties": {}}, {"species": [{"element": "S", "occu": 1}], "abc": [0.50637688, 0.61839191, 0.0001374000000000002], "xyz": [15.90599061209808, 6.247926991428371, 0.005427373783800008], "label": "S", "properties": {}}, {"species": [{"element": "S", "occu": 1}], "abc": [0.91727893, 0.36486034, 0.13101638000000002], "xyz": [18.181552387921332, 3.6863689992123803, 5.175217365796061], "label": "S", "properties": {}}, {"species": [{"element": "S", "occu": 1}], "abc": [0.26557251, 0.1321955, 0.17451954], "xyz": [5.63780461281811, 1.3356381596185, 6.89361554699298], "label": "S", "properties": {}}, {"species": [{"element": "S", "occu": 1}], "abc": [0.41732931, 0.36484284, 0.13100596], "xyz": [11.07074210384451, 3.6861921878398802, 5.17480577020052], "label": "S", "properties": {}}, {"species": [{"element": "S", "occu": 1}], "abc": [0.76559473, 0.1322991, 0.17452329000000003], "xyz": [12.750859332987531, 1.3366848829437001, 6.893763674006731], "label": "S", "properties": {}}, {"species": [{"element": "S", "occu": 1}], "abc": [0.1370333, 0.01070967, 0.12651311], "xyz": [2.0997056438521002, 0.10820522581269, 4.997335782540071], "label": "S", "properties": {}}, {"species": [{"element": "S", "occu": 1}], "abc": [0.63703818, 0.01074232, 0.12651039], "xyz": [9.211515106535781, 0.10853510531624, 4.99722834107943], "label": "S", "properties": {}}, {"species": [{"element": "S", "occu": 1}], "abc": [0.63604115, 0.38019426, 0.1336836], "xyz": [14.397459510507552, 3.84129536726982, 5.2805739880932006], "label": "S", "properties": {}}, {"species": [{"element": "S", "occu": 1}], "abc": [0.1361323, 0.38006934, 0.13365563000000003], "xyz": [7.2857171179619, 3.84003323717538, 5.2794691580733115], "label": "S", "properties": {}}, {"species": [{"element": "S", "occu": 1}], "abc": [0.76994405, 0.13941674, 0.08924834], "xyz": [12.91290029322965, 1.40859800850718, 3.52535735635858], "label": "S", "properties": {}}, {"species": [{"element": "S", "occu": 1}], "abc": [0.26994883, 0.13935634, 0.08925456], "xyz": [5.80083763257523, 1.40798775668438, 3.52560304969872], "label": "S", "properties": {}}, {"species": [{"element": "S", "occu": 1}], "abc": [0.64496572, 0.8679892, 0.21800293], "xyz": [21.39022060301692, 8.7697349581244, 8.611232802573412], "label": "S", "properties": {}}, {"species": [{"element": "S", "occu": 1}], "abc": [0.99694983, 0.63510176, 0.26223523], "xyz": [23.118389467537032, 6.4167550778723195, 10.35843240531851], "label": "S", "properties": {}}, {"species": [{"element": "S", "occu": 1}], "abc": [0.14512132, 0.86785453, 0.21799301000000001], "xyz": [14.27925762093772, 8.768374318836711, 8.61084095724637], "label": "S", "properties": {}}, {"species": [{"element": "S", "occu": 1}], "abc": [0.49696851, 0.63506239, 0.26225581000000003], "xyz": [16.00682050277771, 6.41635730280173, 10.359245326369972], "label": "S", "properties": {}}, {"species": [{"element": "S", "occu": 1}], "abc": [0.87300303, 0.50590922, 0.22399213], "xyz": [19.53713253707263, 5.111457345634541, 8.84780941877381], "label": "S", "properties": {}}, {"species": [{"element": "S", "occu": 1}], "abc": [0.37326825, 0.50576278, 0.22398796], "xyz": [12.42756296655545, 5.10997778806946, 8.84764470153452], "label": "S", "properties": {}}, {"species": [{"element": "S", "occu": 1}], "abc": [0.36512534, 0.88231292, 0.22022748], "xyz": [17.61178352489654, 8.91445476341044, 8.69910372215676], "label": "S", "properties": {}}, {"species": [{"element": "S", "occu": 1}], "abc": [0.86509152, 0.88234254, 0.22018217], "xyz": [24.72299992649232, 8.914754029287781, 8.69731395282529], "label": "S", "properties": {}}, {"species": [{"element": "S", "occu": 1}], "abc": [0.50139011, 0.63496452, 0.17809092], "xyz": [16.068329434756514, 6.4153684725716404, 7.034686974824041], "label": "S", "properties": {}}, {"species": [{"element": "S", "occu": 1}], "abc": [0.00130593, 0.6350194, 0.17808451], "xyz": [8.956624128742732, 6.415922953035801, 7.034433776381871], "label": "S", "properties": {}}, {"species": [{"element": "S", "occu": 1}], "abc": [0.39585148, 0.36701445, 0.31754669], "xyz": [10.795838288458281, 3.70813306467615, 12.543264777572531], "label": "S", "properties": {}}, {"species": [{"element": "S", "occu": 1}], "abc": [0.75203334, 0.13454017, 0.35760832000000004], "xyz": [12.589525234574541, 1.3593275493761898, 14.125720675667841], "label": "S", "properties": {}}, {"species": [{"element": "S", "occu": 1}], "abc": [0.89589632, 0.36701501, 0.31756743000000004], "xyz": [17.90776441022792, 3.70813872264007, 12.544084018709912], "label": "S", "properties": {}}, {"species": [{"element": "S", "occu": 1}], "abc": [0.25206581, 0.13452699, 0.35763453], "xyz": [5.478521029467011, 1.35919438515393, 14.12675598474261], "label": "S", "properties": {}}, {"species": [{"element": "S", "occu": 1}], "abc": [0.62368054, 0.00528918, 0.31165835000000003], "xyz": [8.94478100256614, 0.053439267154260006, 12.310672185533951], "label": "S", "properties": {}}, {"species": [{"element": "S", "occu": 1}], "abc": [0.12355065, 0.0054116, 0.31167892], "xyz": [1.83337622499865, 0.0546761384812, 12.311484711580041], "label": "S", "properties": {}}, {"species": [{"element": "S", "occu": 1}], "abc": [0.11588722, 0.38170243, 0.31538710000000003], "xyz": [7.02076636640362, 3.85653317342201, 12.457959812872701], "label": "S", "properties": {}}, {"species": [{"element": "S", "occu": 1}], "abc": [0.61590703, 0.38169266, 0.31534302000000003], "xyz": [14.132191100242231, 3.8564344621586204, 12.456218629201741], "label": "S", "properties": {}}, {"species": [{"element": "S", "occu": 1}], "abc": [0.24730874, 0.13465404, 0.27342097], "xyz": [5.4126515704527405, 1.3604780357182802, 10.80027514206089], "label": "S", "properties": {}}, {"species": [{"element": "S", "occu": 1}], "abc": [0.74730482, 0.1346044, 0.27341012000000003], "xyz": [12.523177623100022, 1.3599764976308002, 10.799846561234443], "label": "S", "properties": {}}, {"species": [{"element": "S", "occu": 1}], "abc": [0.16802469, 0.86427228, 0.40485424000000003], "xyz": [14.554581169378292, 8.732181030885961, 15.991959886726882], "label": "S", "properties": {}}, {"species": [{"element": "S", "occu": 1}], "abc": [0.52033935, 0.6391725, 0.44660479000000003], "xyz": [16.397064484975353, 6.457883827957501, 17.64112903177223], "label": "S", "properties": {}}, {"species": [{"element": "S", "occu": 1}], "abc": [0.66800395, 0.8643324, 0.40485781], "xyz": [21.666412896891952, 8.732788453726801, 15.99210090364397], "label": "S", "properties": {}}, {"species": [{"element": "S", "occu": 1}], "abc": [0.02033178, 0.63920085, 0.44660209], "xyz": [9.286075353242582, 6.458170262380951, 17.64102238032233], "label": "S", "properties": {}}, {"species": [{"element": "S", "occu": 1}], "abc": [0.3875023, 0.51080965, 0.40890297000000003], "xyz": [12.701043517456302, 5.16096887444255, 16.151886895894894], "label": "S", "properties": {}}, {"species": [{"element": "S", "occu": 1}], "abc": [0.88751105, 0.51097624, 0.40892427000000003], "xyz": [19.81479325909665, 5.16265201767368, 16.152728257332992], "label": "S", "properties": {}}, {"species": [{"element": "S", "occu": 1}], "abc": [0.88603629, 0.88009022, 0.40212304], "xyz": [24.989186250891493, 8.891997698401541, 15.88407602007248], "label": "S", "properties": {}}, {"species": [{"element": "S", "occu": 1}], "abc": [0.38600783, 0.88008517, 0.40212872], "xyz": [17.87742989684343, 8.891946675691191, 15.88430038312264], "label": "S", "properties": {}}, {"species": [{"element": "S", "occu": 1}], "abc": [0.01621213, 0.63186559, 0.36128857000000003], "xyz": [9.12423783485653, 6.38405841162413, 14.271092526962091], "label": "S", "properties": {}}, {"species": [{"element": "S", "occu": 1}], "abc": [0.51627513, 0.63182348, 0.36129053], "xyz": [16.23582164784313, 6.38363295294436, 14.271169948014611], "label": "S", "properties": {}}, {"species": [{"element": "S", "occu": 1}], "abc": [0.90001681, 0.36008846, 0.49542218000000005], "xyz": [17.86887547698081, 3.6381562762292203, 19.569442151710664], "label": "S", "properties": {}}, {"species": [{"element": "S", "occu": 1}], "abc": [0.25494763, 0.11874101, 0.53548226], "xyz": [5.2973164330728295, 1.19970062572207, 21.15183682397362], "label": "S", "properties": {}}, {"species": [{"element": "S", "occu": 1}], "abc": [0.40006204, 0.36002504, 0.49544953999999997], "xyz": [10.757345611694042, 3.6375155118152804, 19.57052288640298], "label": "S", "properties": {}}, {"species": [{"element": "S", "occu": 1}], "abc": [0.75498319, 0.11876988, 0.53553988], "xyz": [12.409509039520792, 1.19999231396916, 21.15411284491556], "label": "S", "properties": {}}, {"species": [{"element": "S", "occu": 1}], "abc": [0.11011685, 0.02002917, 0.4876573], "xyz": [1.8480589910036502, 0.20236485929919, 19.2627252219701], "label": "S", "properties": {}}, {"species": [{"element": "S", "occu": 1}], "abc": [0.61012473, 0.02001276, 0.48765649], "xyz": [8.95922059009593, 0.20219906074932, 19.26269322653513], "label": "S", "properties": {}}, {"species": [{"element": "S", "occu": 1}], "abc": [0.61864136, 0.3767847, 0.49907089000000004], "xyz": [14.101999560550961, 3.8068468539428997, 19.713568156067932], "label": "S", "properties": {}}, {"species": [{"element": "S", "occu": 1}], "abc": [0.11866328, 0.37676468, 0.49906959000000006], "xyz": [6.990749032783281, 3.8066445817327605, 19.71351680536983], "label": "S", "properties": {}}, {"species": [{"element": "S", "occu": 1}], "abc": [0.7428875, 0.13783009, 0.45165526], "xyz": [12.5057543808591, 1.39256727912563, 17.84062530887462], "label": "S", "properties": {}}, {"species": [{"element": "S", "occu": 1}], "abc": [0.24266198, 0.13807737, 0.45157086], "xyz": [5.39474693424958, 1.3950656743365901, 17.83729146355182], "label": "S", "properties": {}}, {"species": [{"element": "Cl", "occu": 1}], "abc": [0.37437705, 0.28165706, 0.05014108], "xyz": [9.288991147819452, 2.8457240773094203, 1.9805995857599599], "label": "Cl", "properties": {}}, {"species": [{"element": "Cl", "occu": 1}], "abc": [0.87466065, 0.28140614, 0.0501661], "xyz": [16.400773406898253, 2.84318890533298, 1.9815878891957], "label": "Cl", "properties": {}}, {"species": [{"element": "Cl", "occu": 1}], "abc": [0.09219635, 0.76579941, 0.12729737000000002], "xyz": [12.09007869946075, 7.73725969953087, 5.028314473687691], "label": "Cl", "properties": {}}, {"species": [{"element": "Cl", "occu": 1}], "abc": [0.59216725, 0.7658174, 0.12733872000000002], "xyz": [19.20119853650325, 7.7374414616218, 5.029947820892641], "label": "Cl", "properties": {}}, {"species": [{"element": "Cl", "occu": 1}], "abc": [0.92805287, 0.26051867, 0.22083006000000002], "xyz": [16.86615135953087, 2.6321522059756903, 8.72290595574222], "label": "Cl", "properties": {}}, {"species": [{"element": "Cl", "occu": 1}], "abc": [0.42820273, 0.2604499, 0.22081836000000002], "xyz": [9.75603429826753, 2.6314573877993004, 8.72244379945932], "label": "Cl", "properties": {}}, {"species": [{"element": "Cl", "occu": 1}], "abc": [0.67891838, 0.75992109, 0.31494309000000004], "xyz": [20.35202979638278, 7.67786805226263, 12.440421179439332], "label": "Cl", "properties": {}}, {"species": [{"element": "Cl", "occu": 1}], "abc": [0.17889228, 0.75993063, 0.31494352000000003], "xyz": [13.24051236533028, 7.6779644397194104, 12.440438164670242], "label": "Cl", "properties": {}}, {"species": [{"element": "Cl", "occu": 1}], "abc": [0.34397637, 0.26395755, 0.40838179], "xyz": [8.607490770945569, 2.66689695412785, 16.13130000602123], "label": "Cl", "properties": {}}, {"species": [{"element": "Cl", "occu": 1}], "abc": [0.84389266, 0.26389108, 0.40838872000000004], "xyz": [15.71664511916146, 2.6662253740175603, 16.131573744742642], "label": "Cl", "properties": {}}, {"species": [{"element": "Cl", "occu": 1}], "abc": [0.12480277, 0.78135823, 0.4856557], "xyz": [12.77281962251917, 7.894458346312611, 19.1836609471109], "label": "Cl", "properties": {}}, {"species": [{"element": "Cl", "occu": 1}], "abc": [0.62478578, 0.78138586, 0.48564887], "xyz": [19.88424738008898, 7.89473750621102, 19.18339115844319], "label": "Cl", "properties": {}}]}, "formula": "(Li3PS4)12.0(Li2S)12.0(LiCl)12.0", "bandgap": 2.2338, "slab_thickness": 21.15016279121556}