{"miller": "20-1_0.13", "final_energy": -218.54502099, "gamma": 0.041196249108181024, "work_function": 4.471430870006484, "ionization_potentail": -4.820530870006484, "electron_affinity": -2.9713308700064847, "is_stochiometric": false, "incar_parameters": {"SYSTEM": "unknown system", "LCOMPAT": false, "PREC": "normal", "ENMAX": 520.0, "ENAUG": 628.945, "EDIFF": 1e-05, "IALGO": 38, "IWAVPR": 11, "NBANDS": 152, "NBANDSLOW": -1, "NBANDSHIGH": -1, "NELECT": 248.0, "TURBO": 0, "IRESTART": 0, "NREBOOT": 0, "NMIN": 0, "EREF": 0.0, "ISMEAR": 0, "SIGMA": 0.05, "KSPACING": 0.5, "KGAMMA": true, "KBLOWUP": false, "LREAL": true, "ROPT": [-0.0005, -0.0005, -0.0005, -0.0005], "LMAXPAW": -100, "LMAXMIX": 2, "NLSPLINE": false, "ISTART": 0, "ICHARG": 2, "INIWAV": 1, "ISPIN": 1, "LNONCOLLINEAR": false, "MAGMOM": [0.6, 0.6, 0.6, 0.6, 0.6, 0.6, 0.6, 0.6, 0.6, 0.6, 0.6, 0.6, 0.6, 0.6, 0.6, 0.6, 0.6, 0.6, 0.6, 0.6, 0.6, 0.6, 0.6, 0.6, 0.6, 0.6, 0.6, 0.6, 0.6, 0.6, 0.6, 0.6, 0.6, 0.6, 0.6, 0.6, 0.6, 0.6, 0.6, 0.6, 0.6, 0.6, 0.6, 0.6, 0.6, 0.6, 0.6, 0.6, 0.6, 0.6, 0.6, 0.6, 0.6, 0.6, 0.6], "NUPDOWN": -1.0, "LSORBIT": false, "SAXIS": [0.0, 0.0, 1.0], "LSPIRAL": false, "QSPIRAL": [0.0, 0.0, 0.0], "LZEROZ": false, "LASPH": false, "LMETAGGA": false, "NELM": 100, "NELMDL": -5, "NELMIN": 6, "ENINI": 520.0, "LDIAG": true, "LSUBROT": false, "WEIMIN": 0.001, "EBREAK": 2e-08, "DEPER": 0.3, "NRMM": 4, "TIME": 0.4, "AMIX": 0.4, "BMIX": 1.0, "AMIN": 0.1, "AMIX_MAG": 1.6, "BMIX_MAG": 1.0, "IMIX": 4, "MIXFIRST": false, "MAXMIX": -45, "WC": 100.0, "INIMIX": 1, "MIXPRE": 1, "MREMOVE": 5, "LDIPOL": false, "LMONO": false, "IDIPOL": 0, "EPSILON": 1.0, "DIPOL": [-100.0, -100.0, -100.0], "EFIELD": 0.0, "NGX": 40, "NGY": 72, "NGZ": 240, "NGXF": 80, "NGYF": 144, "NGZF": 480, "ADDGRID": false, "NSW": 150, "IBRION": 2, "MDALGO": 0, "ISIF": 2, "PSTRESS": 0.0, "EDIFFG": -0.01, "NFREE": 1, "POTIM": 0.5, "SMASS": -3.0, "SCALEE": 1.0, "TEBEG": 0.0001, "TEEND": 0.0001, "NBLOCK": 1, "KBLOCK": 150, "NPACO": 256, "APACO": 10.0, "ISYM": 0, "SYMPREC": 1e-05, "LORBIT": 11, "RWIGS": [-1.0, -1.0, -1.0, -1.0], "NEDOS": 301, "EMIN": 10.0, "EMAX": -10.0, "EFERMI": 0.0, "NWRITE": 2, "LWAVE": false, "LDOWNSAMPLE": false, "LCHARG": false, "LPARD": false, "LVTOT": false, "LVHAR": false, "LELF": false, "LOPTICS": false, "STM": [0.0, 0.0, 0.0, 0.0, 0.0, 0.0, 0.0], "NPAR": 1, "NSIM": 4, "NBLK": -1, "LPLANE": true, "LSCALAPACK": true, "LSCAAWARE": false, "LSCALU": false, "LASYNC": false, "LORBITALREAL": false, "IDIOT": 3, "PHON_NSTRUCT": -1, "LMUSIC": false, "POMASS": [7.01, 30.974, 32.066, 35.453], "DARWINR": [0.0, 0.0, 0.0, 0.0], "DARWINV": [1.0, 1.0, 1.0, 1.0], "LCORR": true, "GGA_COMPAT": true, "LBERRY": false, "ICORELEVEL": 0, "LDAU": false, "I_CONSTRAINED_M": 0, "GGA": "--", "VOSKOWN": 0, "LHFCALC": false, "PRECFOCK": "", "LSYMGRAD": false, "LHFONE": false, "LRHFCALC": false, "LTHOMAS": false, "LMODELHF": false, "LFOCKACE": false, "ENCUT4O": -1.0, "EXXOEP": 0, "FOURORBIT": 0, "AEXX": 0.0, "HFALPHA": 0.0, "MCALPHA": 0.0, "ALDAX": 1.0, "AGGAX": 1.0, "ALDAC": 1.0, "AGGAC": 1.0, "NKREDX": 1, "NKREDY": 1, "NKREDZ": 1, "SHIFTRED": false, "ODDONLY": false, "EVENONLY": false, "LMAXFOCK": 0, "NMAXFOCKAE": 0, "LFOCKAEDFT": false, "HFSCREEN": 0.0, "HFSCREENC": 0.0, "NBANDSGWLOW": 0, "LUSE_VDW": false, "Zab_VDW": -0.8491, "PARAM1": 0.1234, "PARAM2": 1.0, "PARAM3": 0.0, "MODEL_GW": 0, "MODEL_EPS0": 33.3223065, "MODEL_ALPHA": 1.0, "LEPSILON": false, "LRPA": false, "LNABLA": false, "LVEL": false, "CSHIFT": 0.1, "OMEGAMAX": -1.0, "DEG_THRESHOLD": 0.002, "RTIME": -0.1, "WPLASMAI": 0.0, "DFIELD": [0.0, 0.0, 0.0], "WPLASMA": [0.0, 0.0, 0.0, 0.0, 0.0, 0.0, 0.0, 0.0, 0.0], "NUCIND": false, "MAGPOS": [0.0, 0.0, 0.0], "LNICSALL": true, "ORBITALMAG": false, "LMAGBLOCH": false, "LCHIMAG": false, "LGAUGE": true, "MAGATOM": 0, "MAGDIPOL": [0.0, 0.0, 0.0], "AVECCONST": [0.0, 0.0, 0.0], "LFINITE_TEMPERATURE": false, "LADDER": false, "LRPAFORCE": false, "LFXC": false, "LHARTREE": true, "IBSE": 0, "KPOINT": [-1, 0, 0, 0], "LTCTC": false, "LTCTE": false, "LTETE": false, "LTRIPLET": false, "LFXCEPS": false, "LFXHEG": false, "NATURALO": 2, "LHOLEGF": false, "L2ORDER": false, "LDMP1": false, "LMP2LT": false, "LSMP2LT": false, "LGWLF": false, "ENCUTGW": -2.0, "ENCUTGWSOFT": -2.0, "ENCUTLF": -1.0, "LESF_SPLINES": false, "LMAXMP2": -1, "SCISSOR": 0.0, "NOMEGA": 0, "NOMEGAR": 0, "NBANDSGW": -1, "NBANDSO": -1, "NBANDSV": -1, "NELMGW": 1, "NELMHF": 1, "DIM": 3, "IESPILON": 4, "ANTIRES": 0, "OMEGAMIN": -30.0, "OMEGATL": -200.0, "OMEGAGRID": 0, "LSELFENERGY": false, "LSPECTRAL": false, "LSPECTRALGW": false, "LSINGLES": false, "LFERMIGW": false, "ODDONLYGW": false, "EVENONLYGW": false, "NKREDLFX": 1, "NKREDLFY": 1, "NKREDLFZ": 1, "MAXMEM": 2800, "TELESCOPE": 0, "NTAUPAR": -1, "NOMEGAPAR": -1, "DAMP_NEWTON": 0.80000001, "LAMBDA": 1.0, "OFIELD_KAPPA": 0.0, "OFIELD_K": [0.0, 0.0, 0.0], "OFIELD_Q6_NEAR": 0.0, "OFIELD_Q6_FAR": 0.0, "OFIELD_A": 0.0, "KPOINTS_OPT_MODE": 1, "LKPOINTS_OPT": false, "@module": "pymatgen.io.vasp.inputs", "@class": "Incar"}, "relaxed_structures": {"@module": "pymatgen.core.structure", "@class": "Structure", "charge": 0, "lattice": {"matrix": [[7.090324, 0.0, 0.0], [-7.090324, 10.601215, 0.0], [0.0, 0.0, 40.637293]], "a": 7.090324, "b": 12.753762342979462, "c": 40.637293, "alpha": 90.0, "beta": 90.0, "gamma": 123.77546982652186, "volume": 3054.5447627033104}, "sites": [{"species": [{"element": "Li", "occu": 1}], "abc": [0.52366017, 0.72606817, 0.07745781], "xyz": [-1.435138300192, 7.69720477482655, 3.14767572010833], "label": "Li", "properties": {}}, {"species": [{"element": "Li", "occu": 1}], "abc": [0.56704817, 0.25214848, 0.10352601], "xyz": [2.2327408295995594, 2.6730802484032, 4.20701680149093], "label": "Li", "properties": {}}, {"species": [{"element": "Li", "occu": 1}], "abc": [0.44063851, 0.42422717, 0.08131702], "xyz": [0.11636171787416005, 4.497323438011549, 3.30450356762686], "label": "Li", "properties": {}}, {"species": [{"element": "Li", "occu": 1}], "abc": [0.34149502, 0.39513161, 0.01742477], "xyz": [-0.38030080135516053, 4.18887515090615, 0.7080954839476099], "label": "Li", "properties": {}}, {"species": [{"element": "Li", "occu": 1}], "abc": [0.88725497, 0.48656095, 0.03334007], "xyz": [2.84105042666248, 5.1581372415542495, 1.35485019323051], "label": "Li", "properties": {}}, {"species": [{"element": "Li", "occu": 1}], "abc": [0.86450299, 0.2929847, 0.05477379], "xyz": [4.05224984802596, 3.1059937964105, 2.22585855295047], "label": "Li", "properties": {}}, {"species": [{"element": "Li", "occu": 1}], "abc": [0.13350102, 0.93799287, 0.14257515999999998], "xyz": [-5.704107871859399, 9.943864083337049, 5.7938685514418795], "label": "Li", "properties": {}}, {"species": [{"element": "Li", "occu": 1}], "abc": [0.63406466, 0.25509672, 9.99999999999994e-05], "xyz": [2.6870054802125596, 2.7043351745148, 0.004063729299999976], "label": "Li", "properties": {}}, {"species": [{"element": "Li", "occu": 1}], "abc": [0.72294668, 0.96198964, 0.14403228], "xyz": [-1.6948920363190405, 10.1982590014126, 5.85308196381804], "label": "Li", "properties": {}}, {"species": [{"element": "Li", "occu": 1}], "abc": [0.47028971, 0.1309117, 0.18338295999999998], "xyz": [2.4063000493752402, 1.3878230777154998, 7.452187076727279], "label": "Li", "properties": {}}, {"species": [{"element": "Li", "occu": 1}], "abc": [0.55506439, 0.73600104, 0.33129965], "xyz": [-1.2828994719746003, 7.8025052652635996, 13.46312094784745], "label": "Li", "properties": {}}, {"species": [{"element": "Li", "occu": 1}], "abc": [0.87334377, 0.21354006, 0.24853617], "xyz": [4.67822208030204, 2.2637840871729, 10.09983716138781], "label": "Li", "properties": {}}, {"species": [{"element": "Li", "occu": 1}], "abc": [0.84411052, 0.67790951, 0.094579], "xyz": [1.1784190100272403, 7.1866644660546495, 3.843434534647], "label": "Li", "properties": {}}, {"species": [{"element": "Li", "occu": 1}], "abc": [0.54205215, 0.29640229, 0.24872530999999998], "xyz": [1.7417370979546396, 3.1422244027823503, 10.107523298985829], "label": "Li", "properties": {}}, {"species": [{"element": "Li", "occu": 1}], "abc": [0.58781605, 0.70450481, 0.16693080999999999], "xyz": [-0.8273611155582392, 7.468606959344149, 6.78361623669733], "label": "Li", "properties": {}}, {"species": [{"element": "Li", "occu": 1}], "abc": [0.94088288, 0.25980363, 0.16245496999999998], "xyz": [4.829072552176999, 2.75423413941045, 6.601730215196209], "label": "Li", "properties": {}}, {"species": [{"element": "Li", "occu": 1}], "abc": [0.79270487, 0.69052853, 0.25051316], "xyz": [0.7244633557341595, 7.320441410163951, 10.18017668327588], "label": "Li", "properties": {}}, {"species": [{"element": "Li", "occu": 1}], "abc": [0.16019775, 0.49009058, 0.22136645], "xyz": [-2.3390470499769203, 5.1955556080547, 8.99573328901985], "label": "Li", "properties": {}}, {"species": [{"element": "Li", "occu": 1}], "abc": [0.19555249, 0.97042519, 0.26941775], "xyz": [-5.4940985017548, 10.28768608060585, 10.94840804615075], "label": "Li", "properties": {}}, {"species": [{"element": "Li", "occu": 1}], "abc": [0.78280578, 0.48475793, 0.18693591999999998], "xyz": [2.1132558240034, 5.13902303888495, 7.596569753264559], "label": "Li", "properties": {}}, {"species": [{"element": "Li", "occu": 1}], "abc": [0.72834645, 0.9409092, 0.26908562999999996], "xyz": [-1.507138767831, 9.974780724678, 10.934911588399588], "label": "Li", "properties": {}}, {"species": [{"element": "Li", "occu": 1}], "abc": [0.84370761, 0.23946691, 0.32028801], "xyz": [4.284262336986799, 2.53864019829565, 13.01563770675693], "label": "Li", "properties": {}}, {"species": [{"element": "Li", "occu": 1}], "abc": [0.9453733, 0.72381062, 0.33160777999999996], "xyz": [1.57095118750832, 7.6732720019033, 13.475642516939539], "label": "Li", "properties": {}}, {"species": [{"element": "Li", "occu": 1}], "abc": [0.24946165, 0.5166774, 0.38965280999999996], "xyz": [-1.8946462454029998, 5.477408203041, 15.834435408243328], "label": "Li", "properties": {}}, {"species": [{"element": "Li", "occu": 1}], "abc": [0.35654086, 0.4025483, 0.33158136], "xyz": [-0.32620765601056023, 4.2675010761845, 13.474568879658479], "label": "Li", "properties": {}}, {"species": [{"element": "Li", "occu": 1}], "abc": [0.79054272, 0.5804551, 0.41648147999999996], "xyz": [1.48958929418888, 6.1535293129465, 16.924679931833637], "label": "Li", "properties": {}}, {"species": [{"element": "Li", "occu": 1}], "abc": [0.93150736, 0.29714656, 0.41927622999999997], "xyz": [4.4978236048991995, 3.1501145690704, 17.03825100644539], "label": "Li", "properties": {}}, {"species": [{"element": "Li", "occu": 1}], "abc": [0.86336043, 0.41171126, 0.36789767], "xyz": [3.2023389496310792, 4.364639585180901, 14.95036540980731], "label": "Li", "properties": {}}, {"species": [{"element": "P", "occu": 1}], "abc": [0.02051034, 0.52574757, 0.11984313], "xyz": [-3.58229565756252, 5.573563025297551, 4.87010038784709], "label": "P", "properties": {}}, {"species": [{"element": "P", "occu": 1}], "abc": [0.01531989, 0.51419822, 0.29368213], "xyz": [-3.53720899627892, 5.4511258828373, 11.934446765674089], "label": "P", "properties": {}}, {"species": [{"element": "P", "occu": 1}], "abc": [0.01108615, 0.02782304, 0.20627224], "xyz": [-0.11866997285236001, 0.2949580289936, 8.38234545464632], "label": "P", "properties": {}}, {"species": [{"element": "S", "occu": 1}], "abc": [0.68142114, 0.4571842, 0.12844422], "xyz": [1.5899125573685602, 4.846707998803, 5.21962540229646], "label": "S", "properties": {}}, {"species": [{"element": "S", "occu": 1}], "abc": [0.05043061, 0.37465267, 0.10993855000000001], "xyz": [-2.29883945334744, 3.9717735049940504, 4.467605068345151], "label": "S", "properties": {}}, {"species": [{"element": "S", "occu": 1}], "abc": [0.01097154, 0.37227116, 0.004274099999999999], "xyz": [-2.56173136687688, 3.9465266054594, 0.17368785401129996], "label": "S", "properties": {}}, {"species": [{"element": "S", "occu": 1}], "abc": [0.12719755, 0.64040265, 0.07908848], "xyz": [-3.6387904374524, 6.789046179219749, 3.21394173468464], "label": "S", "properties": {}}, {"species": [{"element": "S", "occu": 1}], "abc": [0.50381522, 0.29114591, 0.04842839], "xyz": [1.5078943127564401, 3.08650038828065, 1.96799867394827], "label": "S", "properties": {}}, {"species": [{"element": "S", "occu": 1}], "abc": [0.78177809, 0.81795292, 0.11933653000000001], "xyz": [-0.2564912653449207, 8.6712947647978, 4.8495135352132905], "label": "S", "properties": {}}, {"species": [{"element": "S", "occu": 1}], "abc": [0.67707432, 0.37847808, 0.30634321], "xyz": [2.1171440867817597, 4.0123274988672, 12.448958783330529], "label": "S", "properties": {}}, {"species": [{"element": "S", "occu": 1}], "abc": [0.66690155, 0.91678649, 0.20684640999999998], "xyz": [-1.771765187320561, 9.71905068958535, 8.405678169168128], "label": "S", "properties": {}}, {"species": [{"element": "S", "occu": 1}], "abc": [0.16367559, 0.41728671, 0.28267359999999997], "xyz": [-1.79818501080288, 4.42374612935265, 11.4870899065648], "label": "S", "properties": {}}, {"species": [{"element": "S", "occu": 1}], "abc": [0.15728269, 0.92699297, 0.20608418], "xyz": [-5.457495271330719, 9.82725177845855, 8.37470320532474], "label": "S", "properties": {}}, {"species": [{"element": "S", "occu": 1}], "abc": [0.12436112, 0.13774793, 0.24886633999999996], "xyz": [-0.09491682022643988, 1.46029542173495, 10.113254376417618], "label": "S", "properties": {}}, {"species": [{"element": "S", "occu": 1}], "abc": [0.17795446, 0.62147492, 0.16182190000000002], "xyz": [-3.1447037620290406, 6.5883892440278, 6.5760039641167], "label": "S", "properties": {}}, {"species": [{"element": "S", "occu": 1}], "abc": [0.12633395, 0.13996506, 0.16472230999999998], "xyz": [-0.09664898637964003, 1.4837996935479, 6.6938687751068295], "label": "S", "properties": {}}, {"species": [{"element": "S", "occu": 1}], "abc": [0.06333663, 0.62300781, 0.25423820999999996], "xyz": [-3.96824999966232, 6.604639740489151, 10.331552631565529], "label": "S", "properties": {}}, {"species": [{"element": "S", "occu": 1}], "abc": [0.78347464, 0.30547852, 0.20725837000000003], "xyz": [3.38914736154288, 3.2384434684017998, 8.422419108392411], "label": "S", "properties": {}}, {"species": [{"element": "S", "occu": 1}], "abc": [0.84517909, 0.82102029, 0.29490737], "xyz": [0.1712937194512003, 8.70381261365235, 11.98423720254941], "label": "S", "properties": {}}, {"species": [{"element": "S", "occu": 1}], "abc": [0.14881153, 0.62148788, 0.33642506], "xyz": [-3.3514284686373994, 6.588526635774199, 13.67140373576258], "label": "S", "properties": {}}, {"species": [{"element": "S", "occu": 1}], "abc": [0.9517194, 0.47890161, 0.42389498], "xyz": [3.3524313240639603, 5.07693893145615, 17.22594450348914], "label": "S", "properties": {}}, {"species": [{"element": "S", "occu": 1}], "abc": [0.05983989, 0.30156843, 0.36782405], "xyz": [-1.71393366864696, 3.19699176364245, 14.947373692296651], "label": "S", "properties": {}}, {"species": [{"element": "Cl", "occu": 1}], "abc": [0.5368752, 0.07111997, 0.13055837999999997], "xyz": [3.30235548539452, 0.7539580927635501, 5.305539141665339], "label": "Cl", "properties": {}}, {"species": [{"element": "Cl", "occu": 1}], "abc": [0.60744628, 0.60256826, 0.046228679999999994], "xyz": [0.034586742278480465, 6.387955676435899, 1.8786084141632398], "label": "Cl", "properties": {}}, {"species": [{"element": "Cl", "occu": 1}], "abc": [0.58424287, 0.06234137, 0.28707595999999996], "xyz": [3.7004507310859993, 0.66089426676455, 11.665989899776278], "label": "Cl", "properties": {}}, {"species": [{"element": "Cl", "occu": 1}], "abc": [0.55203017, 0.557419, 0.20830294], "xyz": [-0.038208550680919995, 5.909318664085, 8.46486760554142], "label": "Cl", "properties": {}}, {"species": [{"element": "Cl", "occu": 1}], "abc": [0.65105515, 0.64405943, 0.37539028999999996], "xyz": [0.049601921413279904, 6.8278124902074495, 15.254845204084969], "label": "Cl", "properties": {}}]}, "formula": "(Li3PS4)3.0(Li2S)7.0(LiCl)5.0", "bandgap": 1.8492000000000002, "slab_thickness": 17.221880774189138}