{"miller": "100_0.17", "final_energy": -460.9622322, "sigma": -0.0003081679426513782, "incar_parameters": {"SYSTEM": "unknown system", "LCOMPAT": false, "PREC": "normal", "ENMAX": 520.0, "ENAUG": 368.056, "EDIFF": 1e-05, "IALGO": 38, "IWAVPR": 11, "NBANDS": 420, "NBANDSLOW": -1, "NBANDSHIGH": -1, "NELECT": 700.0, "TURBO": 0, "IRESTART": 0, "NREBOOT": 0, "NMIN": 0, "EREF": 0.0, "ISMEAR": 0, "SIGMA": 0.05, "KSPACING": 0.5, "KGAMMA": true, "KBLOWUP": true, "LREAL": true, "ROPT": [-0.0005, -0.0005, -0.0005], "LMAXPAW": -100, "LMAXMIX": 2, "NLSPLINE": false, "ISTART": 0, "ICHARG": 2, "INIWAV": 1, "ISPIN": 1, "LNONCOLLINEAR": false, "MAGMOM": [0.6, 0.6, 0.6, 0.6, 0.6, 0.6, 0.6, 0.6, 0.6, 0.6, 0.6, 0.6, 0.6, 0.6, 0.6, 0.6, 0.6, 0.6, 0.6, 0.6, 0.6, 0.6, 0.6, 0.6, 0.6, 0.6, 0.6, 0.6, 0.6, 0.6, 0.6, 0.6, 0.6, 0.6, 0.6, 0.6, 0.6, 0.6, 0.6, 0.6, 0.6, 0.6, 0.6, 0.6, 0.6, 0.6, 0.6, 0.6, 0.6, 0.6, 0.6, 0.6, 0.6, 0.6, 0.6, 0.6, 0.6, 0.6, 0.6, 0.6, 0.6, 0.6, 0.6, 0.6, 0.6, 0.6, 0.6, 0.6, 0.6, 0.6, 0.6, 0.6, 0.6, 0.6, 0.6, 0.6, 0.6, 0.6, 0.6, 0.6, 0.6, 0.6, 0.6, 0.6, 0.6, 0.6, 0.6, 0.6, 0.6, 0.6, 0.6, 0.6, 0.6, 0.6, 0.6, 0.6, 0.6, 0.6, 0.6, 0.6, 0.6, 0.6, 0.6, 0.6, 0.6, 0.6, 0.6, 0.6, 0.6, 0.6, 0.6, 0.6], "NUPDOWN": -1.0, "LSORBIT": false, "SAXIS": [0.0, 0.0, 1.0], "LSPIRAL": false, "QSPIRAL": [0.0, 0.0, 0.0], "LZEROZ": false, "LASPH": false, "LMETAGGA": false, "NELM": 100, "NELMDL": -5, "NELMIN": 6, "ENINI": 520.0, "LDIAG": true, "LSUBROT": false, "WEIMIN": 0.001, "EBREAK": 1e-08, "DEPER": 0.3, "NRMM": 4, "TIME": 0.4, "AMIX": 0.4, "BMIX": 1.0, "AMIN": 0.1, "AMIX_MAG": 1.6, "BMIX_MAG": 1.0, "IMIX": 4, "MIXFIRST": false, "MAXMIX": -45, "WC": 100.0, "INIMIX": 1, "MIXPRE": 1, "MREMOVE": 5, "LDIPOL": false, "LMONO": false, "IDIPOL": 0, "EPSILON": 1.0, "DIPOL": [-100.0, -100.0, -100.0], "EFIELD": 0.0, "NGX": 40, "NGY": 40, "NGZ": 280, "NGXF": 80, "NGYF": 80, "NGZF": 560, "ADDGRID": false, "NSW": 150, "IBRION": 2, "MDALGO": 0, "ISIF": 3, "PSTRESS": 0.0, "EDIFFG": -0.01, "NFREE": 1, "POTIM": 0.5, "SMASS": -3.0, "SCALEE": 1.0, "TEBEG": 0.0001, "TEEND": 0.0001, "NBLOCK": 1, "KBLOCK": 150, "NPACO": 256, "APACO": 10.0, "ISYM": 0, "SYMPREC": 1e-05, "LORBIT": 11, "RWIGS": [-1.0, -1.0, -1.0], "NEDOS": 301, "EMIN": 10.0, "EMAX": -10.0, "EFERMI": 0.0, "NWRITE": 2, "LWAVE": false, "LDOWNSAMPLE": false, "LCHARG": false, "LPARD": false, "LVTOT": false, "LVHAR": false, "LELF": false, "LOPTICS": false, "STM": [0.0, 0.0, 0.0, 0.0, 0.0, 0.0, 0.0], "NPAR": 1, "NSIM": 4, "NBLK": -1, "LPLANE": true, "LSCALAPACK": true, "LSCAAWARE": false, "LSCALU": false, "LASYNC": false, "LORBITALREAL": false, "IDIOT": 3, "PHON_NSTRUCT": -1, "LMUSIC": false, "POMASS": [22.99, 30.974, 32.066], "DARWINR": [0.0, 0.0, 0.0], "DARWINV": [1.0, 1.0, 1.0], "LCORR": true, "GGA_COMPAT": true, "LBERRY": false, "ICORELEVEL": 0, "LDAU": false, "I_CONSTRAINED_M": 0, "GGA": "--", "VOSKOWN": 0, "LHFCALC": false, "PRECFOCK": "", "LSYMGRAD": false, "LHFONE": false, "LRHFCALC": false, "LTHOMAS": false, "LMODELHF": false, "LFOCKACE": false, "ENCUT4O": -1.0, "EXXOEP": 0, "FOURORBIT": 0, "AEXX": 0.0, "HFALPHA": 0.0, "MCALPHA": 0.0, "ALDAX": 1.0, "AGGAX": 1.0, "ALDAC": 1.0, "AGGAC": 1.0, "NKREDX": 1, "NKREDY": 1, "NKREDZ": 1, "SHIFTRED": false, "ODDONLY": false, "EVENONLY": false, "LMAXFOCK": 0, "NMAXFOCKAE": 0, "LFOCKAEDFT": false, "HFSCREEN": 0.0, "HFSCREENC": 0.0, "NBANDSGWLOW": 0, "LUSE_VDW": false, "Zab_VDW": -0.8491, "PARAM1": 0.1234, "PARAM2": 1.0, "PARAM3": 0.0, "MODEL_GW": 0, "MODEL_EPS0": 13.21027584, "MODEL_ALPHA": 1.0, "LEPSILON": false, "LRPA": false, "LNABLA": false, "LVEL": false, "CSHIFT": 0.1, "OMEGAMAX": -1.0, "DEG_THRESHOLD": 0.002, "RTIME": -0.1, "WPLASMAI": 0.0, "DFIELD": [0.0, 0.0, 0.0], "WPLASMA": [0.0, 0.0, 0.0, 0.0, 0.0, 0.0, 0.0, 0.0, 0.0], "NUCIND": false, "MAGPOS": [0.0, 0.0, 0.0], "LNICSALL": true, "ORBITALMAG": false, "LMAGBLOCH": false, "LCHIMAG": false, "LGAUGE": true, "MAGATOM": 0, "MAGDIPOL": [0.0, 0.0, 0.0], "AVECCONST": [0.0, 0.0, 0.0], "LFINITE_TEMPERATURE": false, "LADDER": false, "LRPAFORCE": false, "LFXC": false, "LHARTREE": true, "IBSE": 0, "KPOINT": [-1, 0, 0, 0], "LTCTC": false, "LTCTE": false, "LTETE": false, "LTRIPLET": false, "LFXCEPS": false, "LFXHEG": false, "NATURALO": 2, "LHOLEGF": false, "L2ORDER": false, "LDMP1": false, "LMP2LT": false, "LSMP2LT": false, "LGWLF": false, "ENCUTGW": -2.0, "ENCUTGWSOFT": -2.0, "ENCUTLF": -1.0, "LESF_SPLINES": false, "LMAXMP2": -1, "SCISSOR": 0.0, "NOMEGA": 0, "NOMEGAR": 0, "NBANDSGW": -1, "NBANDSO": -1, "NBANDSV": -1, "NELMGW": 1, "NELMHF": 1, "DIM": 3, "IESPILON": 4, "ANTIRES": 0, "OMEGAMIN": -30.0, "OMEGATL": -200.0, "OMEGAGRID": 0, "LSELFENERGY": false, "LSPECTRAL": false, "LSPECTRALGW": false, "LSINGLES": false, "LFERMIGW": false, "ODDONLYGW": false, "EVENONLYGW": false, "NKREDLFX": 1, "NKREDLFY": 1, "NKREDLFZ": 1, "MAXMEM": 2800, "TELESCOPE": 0, "NTAUPAR": -1, "NOMEGAPAR": -1, "DAMP_NEWTON": 0.80000001, "LAMBDA": 1.0, "OFIELD_KAPPA": 0.0, "OFIELD_K": [0.0, 0.0, 0.0], "OFIELD_Q6_NEAR": 0.0, "OFIELD_Q6_FAR": 0.0, "OFIELD_A": 0.0, "KPOINTS_OPT_MODE": 1, "LKPOINTS_OPT": false, "@module": "pymatgen.io.vasp.inputs", "@class": "Incar"}, "relaxed_structures": {"@module": "pymatgen.core.structure", "@class": "Structure", "charge": 0, "lattice": {"matrix": [[7.00642, 0.0, 0.0], [-0.000541, 7.169815, 0.0], [0.0, 0.0, 49.08790993]], "a": 7.00642, "b": 7.169815020410638, "c": 49.08790993, "alpha": 90.0, "beta": 90.0, "gamma": 90.00432326589427, "volume": 2465.918157458782}, "sites": [{"species": [{"element": "Na", "occu": 1}], "abc": [0.50353962, 0.40278381, 0.0354389], "xyz": [3.5277921583191896, 2.88788540269515, 1.7396215312182772], "label": "Na", "properties": {}}, {"species": [{"element": "Na", "occu": 1}], "abc": [0.50389229, 0.90257678, 0.03567919], "xyz": [3.5299927244638205, 6.4713085358957, 1.7514168650953568], "label": "Na", "properties": {}}, {"species": [{"element": "Na", "occu": 1}], "abc": [0.00470102, 0.98768072, 0.03616178], "xyz": [0.032402985278880005, 7.081488041466799, 1.7751061995484754], "label": "Na", "properties": {}}, {"species": [{"element": "Na", "occu": 1}], "abc": [0.50400778, 0.48794453, 0.10674831], "xyz": [3.53102621195687, 3.49847201036195, 5.240051426459718], "label": "Na", "properties": {}}, {"species": [{"element": "Na", "occu": 1}], "abc": [0.00322806, 0.57321018, 0.10716513], "xyz": [0.02230703743782, 4.1098109467167, 5.260512249076741], "label": "Na", "properties": {}}, {"species": [{"element": "Na", "occu": 1}], "abc": [0.00265752, 0.07305879, 0.10732386], "xyz": [0.01858017647301, 0.52381800842385, 5.26830397301993], "label": "Na", "properties": {}}, {"species": [{"element": "Na", "occu": 1}], "abc": [0.50037409, 0.40462934, 0.17845712], "xyz": [3.50561212718486, 2.9011175113721, 8.760087032927203], "label": "Na", "properties": {}}, {"species": [{"element": "Na", "occu": 1}], "abc": [0.50049407, 0.90441569, 0.17854205], "xyz": [3.50618237304111, 6.48449318039735, 8.764256069117558], "label": "Na", "properties": {}}, {"species": [{"element": "Na", "occu": 1}], "abc": [0.00026955, 0.98888579, 0.17879156], "xyz": [0.0013535932986100002, 7.09012817042885, 8.77650399352419], "label": "Na", "properties": {}}, {"species": [{"element": "Na", "occu": 1}], "abc": [0.49913366, 0.48876884, 0.24996033], "xyz": [3.49687563415476, 3.5043821605646, 12.270030165113077], "label": "Na", "properties": {}}, {"species": [{"element": "Na", "occu": 1}], "abc": [0.99940024, 0.57399522, 0.25001196], "xyz": [7.00190729812678, 4.1154395382843, 12.272564573902763], "label": "Na", "properties": {}}, {"species": [{"element": "Na", "occu": 1}], "abc": [1.11e-05, 0.07414346, 0.25000782], "xyz": [3.765965014000001e-05, 0.5315948916598999, 12.272361349955652], "label": "Na", "properties": {}}, {"species": [{"element": "Na", "occu": 1}], "abc": [0.4986903, 0.4043074, 0.32153217], "xyz": [3.4938149614226, 2.898809261131, 15.783342200557449], "label": "Na", "properties": {}}, {"species": [{"element": "Na", "occu": 1}], "abc": [0.4984385, 0.90410679, 0.32142329], "xyz": [3.49178035339661, 6.48227842454385, 15.777997508924269], "label": "Na", "properties": {}}, {"species": [{"element": "Na", "occu": 1}], "abc": [0.99839074, 0.98859145, 0.32124476], "xyz": [6.994610020576351, 7.08801780708175, 15.769233844364468], "label": "Na", "properties": {}}, {"species": [{"element": "Na", "occu": 1}], "abc": [0.49590359, 0.48784375, 0.39322061], "xyz": [3.4742449075790502, 3.49774943640625, 19.30237788629966], "label": "Na", "properties": {}}, {"species": [{"element": "Na", "occu": 1}], "abc": [0.99647651, 0.57337254, 0.39282274], "xyz": [6.981422754650061, 4.1109750378801, 19.282847279575808], "label": "Na", "properties": {}}, {"species": [{"element": "Na", "occu": 1}], "abc": [0.9971995, 0.07318265, 0.39268361], "xyz": [6.986758928976351, 0.52470606170975, 19.276017678667248], "label": "Na", "properties": {}}, {"species": [{"element": "Na", "occu": 1}], "abc": [0.49651252, 0.4031091, 0.46450906], "xyz": [3.4785571683553003, 2.8902176718165, 22.801778898948964], "label": "Na", "properties": {}}, {"species": [{"element": "Na", "occu": 1}], "abc": [0.49623886, 0.90283726, 0.46431031], "xyz": [3.47636943852354, 6.4731761293069, 22.79202267685038], "label": "Na", "properties": {}}, {"species": [{"element": "Na", "occu": 1}], "abc": [0.99530673, 0.98760843, 0.46383482], "xyz": [6.97300268304597, 7.0809697355404495, 22.768681866557763], "label": "Na", "properties": {}}, {"species": [{"element": "Na", "occu": 1}], "abc": [0.99667115, 0.07190118, 0.53549936], "xyz": [6.9830577802446205, 0.5155181588816999, 26.286544351252644], "label": "Na", "properties": {}}, {"species": [{"element": "Na", "occu": 1}], "abc": [0.99631577, 0.57219296, 0.53570734], "xyz": [6.98029718085204, 4.1025176675024, 26.296753654759886], "label": "Na", "properties": {}}, {"species": [{"element": "Na", "occu": 1}], "abc": [0.49522173, 0.48711107, 0.53614341], "xyz": [3.4694679064177305, 3.49249625635205, 26.318159419643063], "label": "Na", "properties": {}}, {"species": [{"element": "Na", "occu": 1}], "abc": [0.99694477, 0.98692543, 0.60686296], "xyz": [6.984479848765771, 7.07607275189545, 29.789634320333192], "label": "Na", "properties": {}}, {"species": [{"element": "Na", "occu": 1}], "abc": [0.4974194, 0.90195889, 0.60717331], "xyz": [3.4846412727885103, 6.466878378905349, 29.804868753179967], "label": "Na", "properties": {}}, {"species": [{"element": "Na", "occu": 1}], "abc": [0.49775261, 0.40196473, 0.60732402], "xyz": [3.48724637883727, 2.8820127506249498, 29.812266792085516], "label": "Na", "properties": {}}, {"species": [{"element": "Na", "occu": 1}], "abc": [0.99954244, 0.07061248, 0.67850768], "xyz": [7.0031759411131205, 0.5062784182912, 33.30652388265326], "label": "Na", "properties": {}}, {"species": [{"element": "Na", "occu": 1}], "abc": [0.99940476, 0.57089902, 0.67856725], "xyz": [7.00194064218938, 4.0932403570813, 33.309448049447795], "label": "Na", "properties": {}}, {"species": [{"element": "Na", "occu": 1}], "abc": [0.49944611, 0.48628354, 0.67876867], "xyz": [3.49906613463106, 3.4865630193451, 33.319335336265894], "label": "Na", "properties": {}}, {"species": [{"element": "Na", "occu": 1}], "abc": [0.00044335, 0.98650285, 0.75001062], "xyz": [0.00257259826515, 7.0730429314727505, 36.81645376110345], "label": "Na", "properties": {}}, {"species": [{"element": "Na", "occu": 1}], "abc": [0.50040514, 0.90112537, 0.74999659], "xyz": [3.5055610721736303, 6.46090219470655, 36.81576505772714], "label": "Na", "properties": {}}, {"species": [{"element": "Na", "occu": 1}], "abc": [0.49998864, 0.4010547, 0.75000715], "xyz": [3.5029134364761, 2.8754880038804997, 36.816283426055996], "label": "Na", "properties": {}}, {"species": [{"element": "Na", "occu": 1}], "abc": [0.00119266, 0.07091077, 0.82153753], "xyz": [0.008317914150629999, 0.50841710240755, 40.327560276754674], "label": "Na", "properties": {}}, {"species": [{"element": "Na", "occu": 1}], "abc": [0.00096208, 0.57107112, 0.8214309], "xyz": [0.006431787077680001, 4.094474282242801, 40.32232603291884], "label": "Na", "properties": {}}, {"species": [{"element": "Na", "occu": 1}], "abc": [0.50097388, 0.48645972, 0.82123242], "xyz": [3.50977023760108, 3.4878261973518, 40.31258306455593], "label": "Na", "properties": {}}, {"species": [{"element": "Na", "occu": 1}], "abc": [0.00354201, 0.98707312, 0.89317931], "xyz": [0.02428280314628, 7.0771316618728, 43.84430552061955], "label": "Na", "properties": {}}, {"species": [{"element": "Na", "occu": 1}], "abc": [0.5029712, 0.90168768, 0.89280666], "xyz": [3.52353966206912, 6.4649338533792, 43.82601291098413], "label": "Na", "properties": {}}, {"species": [{"element": "Na", "occu": 1}], "abc": [0.50264815, 0.40181009, 0.89267404], "xyz": [3.52154667186431, 2.88090401043335, 43.81950287236921], "label": "Na", "properties": {}}, {"species": [{"element": "Na", "occu": 1}], "abc": [0.00355621, 0.07169213, 0.96448683], "xyz": [0.024877515425870005, 0.5140193090559501, 47.344642639711225], "label": "Na", "properties": {}}, {"species": [{"element": "Na", "occu": 1}], "abc": [0.00371666, 0.57216509, 0.9643137], "xyz": [0.02573093964351, 4.102317844758351, 47.33614404986505], "label": "Na", "properties": {}}, {"species": [{"element": "Na", "occu": 1}], "abc": [0.50480348, 0.48713461, 0.96379306], "xyz": [3.53660165851759, 3.49266503379715, 47.310586920439086], "label": "Na", "properties": {}}, {"species": [{"element": "P", "occu": 1}], "abc": [0.00362535, 0.48759344, 0.03576374], "xyz": [0.02513693669596, 3.4959547600136, 1.7555672478799385], "label": "P", "properties": {}}, {"species": [{"element": "P", "occu": 1}], "abc": [0.50289129, 0.98832832, 0.10709843], "xyz": [3.5229329064606802, 7.0861312136608, 5.25723808548441], "label": "P", "properties": {}}, {"species": [{"element": "P", "occu": 1}], "abc": [0.00034841, 0.48915026, 0.17859187], "xyz": [0.00217647650154, 3.5071168714019, 8.76670162879027], "label": "P", "properties": {}}, {"species": [{"element": "P", "occu": 1}], "abc": [0.49977523, 0.98900359, 0.2499905], "xyz": [3.50110011603441, 7.09097277463585, 12.271511147355666], "label": "P", "properties": {}}, {"species": [{"element": "P", "occu": 1}], "abc": [0.99871042, 0.48873574, 0.32142278], "xyz": [6.99712025486106, 3.5041448396880996, 15.777972474090207], "label": "P", "properties": {}}, {"species": [{"element": "P", "occu": 1}], "abc": [0.49691295, 0.9881883, 0.39288922], "xyz": [3.4810462212687003, 7.0851272961645, 19.286110643827953], "label": "P", "properties": {}}, {"species": [{"element": "P", "occu": 1}], "abc": [0.99644136, 0.48755841, 0.46422949], "xyz": [6.981222904431391, 3.49570360139415, 22.788055391969838], "label": "P", "properties": {}}, {"species": [{"element": "P", "occu": 1}], "abc": [0.49656283, 0.98713714, 0.53578523], "xyz": [3.47859370217586, 7.0775906734291, 26.300577112064335], "label": "P", "properties": {}}, {"species": [{"element": "P", "occu": 1}], "abc": [0.99769275, 0.48657724, 0.607151], "xyz": [6.98999119916816, 3.4886687940106, 29.80377360190943], "label": "P", "properties": {}}, {"species": [{"element": "P", "occu": 1}], "abc": [0.49964577, 0.98600781, 0.67859228], "xyz": [3.5001946856181902, 7.06949358625515, 33.310676719833346], "label": "P", "properties": {}}, {"species": [{"element": "P", "occu": 1}], "abc": [2.31e-05, 0.48619547, 0.75000046], "xyz": [-0.00010118344727000003, 3.48593157373805, 36.81595502793857], "label": "P", "properties": {}}, {"species": [{"element": "P", "occu": 1}], "abc": [0.50115624, 0.98633929, 0.82141308], "xyz": [3.5107774935049103, 7.07187023653135, 40.32145128636389], "label": "P", "properties": {}}, {"species": [{"element": "P", "occu": 1}], "abc": [0.00296461, 0.48674004, 0.89288844], "xyz": [0.02050797643456, 3.4898360398926, 43.83002732025821], "label": "P", "properties": {}}, {"species": [{"element": "P", "occu": 1}], "abc": [0.50361621, 0.98720122, 0.96419747], "xyz": [3.5280126102081804, 7.0780501151743, 47.33043856209388], "label": "P", "properties": {}}, {"species": [{"element": "S", "occu": 1}], "abc": [0.15460379, 0.32368298, 0.06288166], "xyz": [1.08304397383962, 2.3207470852487, 3.086729262328884], "label": "S", "properties": {}}, {"species": [{"element": "S", "occu": 1}], "abc": [0.69126935, 0.82333253, 0.12871024], "xyz": [4.84287797632827, 5.903141923581949, 6.318116668188684], "label": "S", "properties": {}}, {"species": [{"element": "S", "occu": 1}], "abc": [0.1922292, 0.6528882, 0.01423011], "xyz": [1.3464852989478, 4.681087609683, 0.6985263579739923], "label": "S", "properties": {}}, {"species": [{"element": "S", "occu": 1}], "abc": [0.81335489, 0.65197956, 0.05722005], "xyz": [5.698353247451841, 4.6745728289814, 2.8088126605900965], "label": "S", "properties": {}}, {"species": [{"element": "S", "occu": 1}], "abc": [0.65407019, 0.15217103, 0.07998106], "xyz": [4.582608136092571, 1.09103813345945, 3.9261030693859262], "label": "S", "properties": {}}, {"species": [{"element": "S", "occu": 1}], "abc": [0.85355139, 0.32209577, 0.00873957], "xyz": [5.98016527611223, 2.30936708318255, 0.4290072249869301], "label": "S", "properties": {}}, {"species": [{"element": "S", "occu": 1}], "abc": [0.31324355, 0.82346252, 0.08561864], "xyz": [2.19427038036768, 5.9040739278337995, 4.202840088649095], "label": "S", "properties": {}}, {"species": [{"element": "S", "occu": 1}], "abc": [0.15106566, 0.32474017, 0.20569896], "xyz": [1.05825377710523, 2.32832694196855, 10.097332021174672], "label": "S", "properties": {}}, {"species": [{"element": "S", "occu": 1}], "abc": [0.68878648, 0.82363408, 0.27149417], "xyz": [4.82548178316432, 5.905303981295201, 13.327081363480108], "label": "S", "properties": {}}, {"species": [{"element": "S", "occu": 1}], "abc": [0.19000029, 0.65389654, 0.1571272], "xyz": [1.3308680738336598, 4.6883172209401, 7.713045841153096], "label": "S", "properties": {}}, {"species": [{"element": "S", "occu": 1}], "abc": [0.35208257, 0.15381421, 0.13405232], "xyz": [2.4667551466117903, 1.10281943007115, 6.580348210067538], "label": "S", "properties": {}}, {"species": [{"element": "S", "occu": 1}], "abc": [0.81025513, 0.65335706, 0.20006999], "xyz": [5.676634281765141, 4.6844492491439, 9.821017648816001], "label": "S", "properties": {}}, {"species": [{"element": "S", "occu": 1}], "abc": [0.65061769, 0.1534442, 0.22293354], "xyz": [4.5584177822576, 1.100166526823, 10.943341531896053], "label": "S", "properties": {}}, {"species": [{"element": "S", "occu": 1}], "abc": [0.85058143, 0.32364923, 0.15152355], "xyz": [5.959355648547169, 2.32050510399245, 7.4379743746738525], "label": "S", "properties": {}}, {"species": [{"element": "S", "occu": 1}], "abc": [0.31002625, 0.82455284, 0.22845535], "xyz": [2.17172803543856, 5.9118913205245995, 11.214395643826625], "label": "S", "properties": {}}, {"species": [{"element": "S", "occu": 1}], "abc": [0.14868842, 0.32354339, 0.3484989], "xyz": [1.04159848268241, 2.31974625077285, 17.107082613904076], "label": "S", "properties": {}}, {"species": [{"element": "S", "occu": 1}], "abc": [0.68671705, 0.8234255, 0.41436217], "xyz": [4.8109826002655005, 5.9038085012825, 20.340172879359347], "label": "S", "properties": {}}, {"species": [{"element": "S", "occu": 1}], "abc": [0.18888338, 0.6530303, 0.29996362], "xyz": [1.3230430019073, 4.6821064403945, 14.724587160836746], "label": "S", "properties": {}}, {"species": [{"element": "S", "occu": 1}], "abc": [0.34924985, 0.15355828, 0.27707623], "xyz": [2.44690805900752, 1.1009844593181999, 13.601093021983964], "label": "S", "properties": {}}, {"species": [{"element": "S", "occu": 1}], "abc": [0.80912372, 0.65362425, 0.3428731], "xyz": [5.66870700356315, 4.68636495201375, 16.830923850219882], "label": "S", "properties": {}}, {"species": [{"element": "S", "occu": 1}], "abc": [0.64755355, 0.15372311, 0.36592242], "xyz": [4.53694897958849, 1.10216625992465, 17.962366794327632], "label": "S", "properties": {}}, {"species": [{"element": "S", "occu": 1}], "abc": [0.84831321, 0.32420271, 0.29431775], "xyz": [5.94346324714209, 2.32447345319865, 14.447443202800258], "label": "S", "properties": {}}, {"species": [{"element": "S", "occu": 1}], "abc": [0.30846675, 0.82300454, 0.3713061], "xyz": [2.1608023610788605, 5.9007902959601, 18.226640393259572], "label": "S", "properties": {}}, {"species": [{"element": "S", "occu": 1}], "abc": [0.14664897, 0.32213177, 0.49125509], "xyz": [1.02731000309983, 2.30962519652255, 24.114685610574046], "label": "S", "properties": {}}, {"species": [{"element": "S", "occu": 1}], "abc": [0.186639, 0.65208695, 0.44276806], "xyz": [1.30731844334005, 4.675342795414251, 21.73455864916084], "label": "S", "properties": {}}, {"species": [{"element": "S", "occu": 1}], "abc": [0.34583004, 0.15200766, 0.42001359], "xyz": [2.42294827271274, 1.0898668007829, 20.61758927529595], "label": "S", "properties": {}}, {"species": [{"element": "S", "occu": 1}], "abc": [0.80784673, 0.65281062, 0.48577191], "xyz": [5.65976031546118, 4.6805313754353, 23.845527764604068], "label": "S", "properties": {}}, {"species": [{"element": "S", "occu": 1}], "abc": [0.84530031, 0.32357047, 0.43711634], "xyz": [5.922353946365931, 2.31994040936305, 21.457127526851256], "label": "S", "properties": {}}, {"species": [{"element": "S", "occu": 1}], "abc": [0.34558003, 0.15112453, 0.5629017], "xyz": [2.42119707542187, 1.0835349220619501, 27.63166794904388], "label": "S", "properties": {}}, {"species": [{"element": "S", "occu": 1}], "abc": [0.80905663, 0.65176862, 0.6287131], "xyz": [5.66823794674118, 4.6730604282053, 30.862212024611086], "label": "S", "properties": {}}, {"species": [{"element": "S", "occu": 1}], "abc": [0.30794537, 0.82198904, 0.51423414], "xyz": [2.15714990320476, 5.8935093488276, 25.24267914725101], "label": "S", "properties": {}}, {"species": [{"element": "S", "occu": 1}], "abc": [0.68679758, 0.82270276, 0.55722442], "xyz": [4.811547218270441, 5.8986265891894, 27.352982139756495], "label": "S", "properties": {}}, {"species": [{"element": "S", "occu": 1}], "abc": [0.84653122, 0.32245299, 0.58006983], "xyz": [5.93097882336481, 2.31192828449685, 28.474415568150413], "label": "S", "properties": {}}, {"species": [{"element": "S", "occu": 1}], "abc": [0.64674584, 0.15264496, 0.50877188], "xyz": [4.531290407369441, 1.0944361238823999, 24.974548220356766], "label": "S", "properties": {}}, {"species": [{"element": "S", "occu": 1}], "abc": [0.18734128, 0.6513179, 0.58564066], "xyz": [1.3122393280337001, 4.6698288491885, 28.747875969425756], "label": "S", "properties": {}}, {"species": [{"element": "S", "occu": 1}], "abc": [0.34886974, 0.15042838, 0.70570287], "xyz": [2.44424654197722, 1.0785436553496999, 34.6414789199025], "label": "S", "properties": {}}, {"species": [{"element": "S", "occu": 1}], "abc": [0.81048167, 0.65108554, 0.77150052], "xyz": [5.678222745044261, 4.6681628709751, 37.87134803670816], "label": "S", "properties": {}}, {"species": [{"element": "S", "occu": 1}], "abc": [0.31004904, 0.82128042, 0.65710563], "xyz": [2.17188948212958, 5.8884286745223, 32.255941979935905], "label": "S", "properties": {}}, {"species": [{"element": "S", "occu": 1}], "abc": [0.14859502, 0.32155087, 0.63414713], "xyz": [1.04094516100773, 2.30546025098905, 31.128957199808003], "label": "S", "properties": {}}, {"species": [{"element": "S", "occu": 1}], "abc": [0.68968641, 0.82167778, 0.70006286], "xyz": [4.831788129073219, 5.8912776722107, 34.3646226170182], "label": "S", "properties": {}}, {"species": [{"element": "S", "occu": 1}], "abc": [0.84948437, 0.32165632, 0.72292318], "xyz": [5.951670263586281, 2.3062163079808, 35.48678794614918], "label": "S", "properties": {}}, {"species": [{"element": "S", "occu": 1}], "abc": [0.64957222, 0.15146475, 0.65153003], "xyz": [4.55109385122265, 1.0859742365212501, 31.982247429330197], "label": "S", "properties": {}}, {"species": [{"element": "S", "occu": 1}], "abc": [0.18941629, 0.65127206, 0.72849965], "xyz": [1.32677774439734, 4.6695001848689, 35.760525203236526], "label": "S", "properties": {}}, {"species": [{"element": "S", "occu": 1}], "abc": [0.35106058, 0.15151442, 0.84848351], "xyz": [2.4595958996223803, 1.0863303612323, 41.650282115970256], "label": "S", "properties": {}}, {"species": [{"element": "S", "occu": 1}], "abc": [0.81314805, 0.65149216, 0.91435789], "xyz": [5.69690430322244, 4.6710782611504, 44.88391774810485], "label": "S", "properties": {}}, {"species": [{"element": "S", "occu": 1}], "abc": [0.31099881, 0.82200017, 0.79995651], "xyz": [2.1785435802682303, 5.89358914886855, 39.26819311079715], "label": "S", "properties": {}}, {"species": [{"element": "S", "occu": 1}], "abc": [0.15067429, 0.32174345, 0.77708021], "xyz": [1.05551329573535, 2.30684101396175, 38.14524335686549], "label": "S", "properties": {}}, {"species": [{"element": "S", "occu": 1}], "abc": [0.69062686, 0.82154175, 0.84288924], "xyz": [4.83837739035445, 5.890302362276249, 41.37567109408615], "label": "S", "properties": {}}, {"species": [{"element": "S", "occu": 1}], "abc": [0.85224473, 0.32117646, 0.86592975], "xyz": [5.971010764701741, 2.3027758005548997, 42.506681573707425], "label": "S", "properties": {}}, {"species": [{"element": "S", "occu": 1}], "abc": [0.65166287, 0.15085779, 0.79431266], "xyz": [4.56574215156101, 1.08162244560885, 38.991148310338716], "label": "S", "properties": {}}, {"species": [{"element": "S", "occu": 1}], "abc": [0.19140801, 0.65180637, 0.8712848], "xyz": [1.3407322821780299, 4.673331088721549, 42.76954978577806], "label": "S", "properties": {}}, {"species": [{"element": "S", "occu": 1}], "abc": [0.35340689, 0.15298588, 0.9911849], "xyz": [2.47603433687272, 1.0968804572122, 48.65519509517606], "label": "S", "properties": {}}, {"species": [{"element": "S", "occu": 1}], "abc": [0.31338953, 0.82269034, 0.9427591], "xyz": [2.19529359530866, 5.8985375400871, 46.278073786487866], "label": "S", "properties": {}}, {"species": [{"element": "S", "occu": 1}], "abc": [0.15408838, 0.32298389, 0.92001474], "xyz": [1.0794331731151101, 2.31573473928035, 45.16160069139237], "label": "S", "properties": {}}, {"species": [{"element": "S", "occu": 1}], "abc": [0.69222757, 0.82209008, 0.9857552], "xyz": [4.8495923402661205, 5.8942337869351995, 48.38866247062914], "label": "S", "properties": {}}, {"species": [{"element": "S", "occu": 1}], "abc": [0.65475691, 0.15093551, 0.93707704], "xyz": [4.58742025325129, 1.0821796836306499, 45.99915333699101], "label": "S", "properties": {}}]}, "formula": "", "bandgap": 2.2807000000000004}