{"miller": "101_0.39", "final_energy": -526.25571385, "sigma": 0.003722080680961546, "incar_parameters": {"SYSTEM": "unknown system", "LCOMPAT": false, "PREC": "normal", "ENMAX": 520.0, "ENAUG": 368.056, "EDIFF": 1e-05, "IALGO": 38, "IWAVPR": 11, "NBANDS": 480, "NBANDSLOW": -1, "NBANDSHIGH": -1, "NELECT": 800.0, "TURBO": 0, "IRESTART": 0, "NREBOOT": 0, "NMIN": 0, "EREF": 0.0, "ISMEAR": 0, "SIGMA": 0.05, "KSPACING": 0.5, "KGAMMA": true, "KBLOWUP": true, "LREAL": true, "ROPT": [-0.0005, -0.0005, -0.0005], "LMAXPAW": -100, "LMAXMIX": 2, "NLSPLINE": false, "ISTART": 0, "ICHARG": 2, "INIWAV": 1, "ISPIN": 1, "LNONCOLLINEAR": false, "MAGMOM": [0.6, 0.6, 0.6, 0.6, 0.6, 0.6, 0.6, 0.6, 0.6, 0.6, 0.6, 0.6, 0.6, 0.6, 0.6, 0.6, 0.6, 0.6, 0.6, 0.6, 0.6, 0.6, 0.6, 0.6, 0.6, 0.6, 0.6, 0.6, 0.6, 0.6, 0.6, 0.6, 0.6, 0.6, 0.6, 0.6, 0.6, 0.6, 0.6, 0.6, 0.6, 0.6, 0.6, 0.6, 0.6, 0.6, 0.6, 0.6, 0.6, 0.6, 0.6, 0.6, 0.6, 0.6, 0.6, 0.6, 0.6, 0.6, 0.6, 0.6, 0.6, 0.6, 0.6, 0.6, 0.6, 0.6, 0.6, 0.6, 0.6, 0.6, 0.6, 0.6, 0.6, 0.6, 0.6, 0.6, 0.6, 0.6, 0.6, 0.6, 0.6, 0.6, 0.6, 0.6, 0.6, 0.6, 0.6, 0.6, 0.6, 0.6, 0.6, 0.6, 0.6, 0.6, 0.6, 0.6, 0.6, 0.6, 0.6, 0.6, 0.6, 0.6, 0.6, 0.6, 0.6, 0.6, 0.6, 0.6, 0.6, 0.6, 0.6, 0.6, 0.6, 0.6, 0.6, 0.6, 0.6, 0.6, 0.6, 0.6, 0.6, 0.6, 0.6, 0.6, 0.6, 0.6, 0.6, 0.6], "NUPDOWN": -1.0, "LSORBIT": false, "SAXIS": [0.0, 0.0, 1.0], "LSPIRAL": false, "QSPIRAL": [0.0, 0.0, 0.0], "LZEROZ": false, "LASPH": false, "LMETAGGA": false, "NELM": 100, "NELMDL": -5, "NELMIN": 6, "ENINI": 520.0, "LDIAG": true, "LSUBROT": false, "WEIMIN": 0.001, "EBREAK": 1e-08, "DEPER": 0.3, "NRMM": 4, "TIME": 0.4, "AMIX": 0.4, "BMIX": 1.0, "AMIN": 0.1, "AMIX_MAG": 1.6, "BMIX_MAG": 1.0, "IMIX": 4, "MIXFIRST": false, "MAXMIX": -45, "WC": 100.0, "INIMIX": 1, "MIXPRE": 1, "MREMOVE": 5, "LDIPOL": false, "LMONO": false, "IDIPOL": 0, "EPSILON": 1.0, "DIPOL": [-100.0, -100.0, -100.0], "EFIELD": 0.0, "NGX": 40, "NGY": 56, "NGZ": 240, "NGXF": 80, "NGYF": 112, "NGZF": 480, "ADDGRID": false, "NSW": 150, "IBRION": 2, "MDALGO": 0, "ISIF": 3, "PSTRESS": 0.0, "EDIFFG": -0.01, "NFREE": 1, "POTIM": 0.5, "SMASS": -3.0, "SCALEE": 1.0, "TEBEG": 0.0001, "TEEND": 0.0001, "NBLOCK": 1, "KBLOCK": 150, "NPACO": 256, "APACO": 10.0, "ISYM": 0, "SYMPREC": 1e-05, "LORBIT": 11, "RWIGS": [-1.0, -1.0, -1.0], "NEDOS": 301, "EMIN": 10.0, "EMAX": -10.0, "EFERMI": 0.0, "NWRITE": 2, "LWAVE": false, "LDOWNSAMPLE": false, "LCHARG": false, "LPARD": false, "LVTOT": false, "LVHAR": false, "LELF": false, "LOPTICS": false, "STM": [0.0, 0.0, 0.0, 0.0, 0.0, 0.0, 0.0], "NPAR": 1, "NSIM": 4, "NBLK": -1, "LPLANE": true, "LSCALAPACK": true, "LSCAAWARE": false, "LSCALU": false, "LASYNC": false, "LORBITALREAL": false, "IDIOT": 3, "PHON_NSTRUCT": -1, "LMUSIC": false, "POMASS": [22.99, 30.974, 32.066], "DARWINR": [0.0, 0.0, 0.0], "DARWINV": [1.0, 1.0, 1.0], "LCORR": true, "GGA_COMPAT": true, "LBERRY": false, "ICORELEVEL": 0, "LDAU": false, "I_CONSTRAINED_M": 0, "GGA": "--", "VOSKOWN": 0, "LHFCALC": false, "PRECFOCK": "", "LSYMGRAD": false, "LHFONE": false, "LRHFCALC": false, "LTHOMAS": false, "LMODELHF": false, "LFOCKACE": false, "ENCUT4O": -1.0, "EXXOEP": 0, "FOURORBIT": 0, "AEXX": 0.0, "HFALPHA": 0.0, "MCALPHA": 0.0, "ALDAX": 1.0, "AGGAX": 1.0, "ALDAC": 1.0, "AGGAC": 1.0, "NKREDX": 1, "NKREDY": 1, "NKREDZ": 1, "SHIFTRED": false, "ODDONLY": false, "EVENONLY": false, "LMAXFOCK": 0, "NMAXFOCKAE": 0, "LFOCKAEDFT": false, "HFSCREEN": 0.0, "HFSCREENC": 0.0, "NBANDSGWLOW": 0, "LUSE_VDW": false, "Zab_VDW": -0.8491, "PARAM1": 0.1234, "PARAM2": 1.0, "PARAM3": 0.0, "MODEL_GW": 0, "MODEL_EPS0": 13.39871383, "MODEL_ALPHA": 1.0, "LEPSILON": false, "LRPA": false, "LNABLA": false, "LVEL": false, "CSHIFT": 0.1, "OMEGAMAX": -1.0, "DEG_THRESHOLD": 0.002, "RTIME": -0.1, "WPLASMAI": 0.0, "DFIELD": [0.0, 0.0, 0.0], "WPLASMA": [0.0, 0.0, 0.0, 0.0, 0.0, 0.0, 0.0, 0.0, 0.0], "NUCIND": false, "MAGPOS": [0.0, 0.0, 0.0], "LNICSALL": true, "ORBITALMAG": false, "LMAGBLOCH": false, "LCHIMAG": false, "LGAUGE": true, "MAGATOM": 0, "MAGDIPOL": [0.0, 0.0, 0.0], "AVECCONST": [0.0, 0.0, 0.0], "LFINITE_TEMPERATURE": false, "LADDER": false, "LRPAFORCE": false, "LFXC": false, "LHARTREE": true, "IBSE": 0, "KPOINT": [-1, 0, 0, 0], "LTCTC": false, "LTCTE": false, "LTETE": false, "LTRIPLET": false, "LFXCEPS": false, "LFXHEG": false, "NATURALO": 2, "LHOLEGF": false, "L2ORDER": false, "LDMP1": false, "LMP2LT": false, "LSMP2LT": false, "LGWLF": false, "ENCUTGW": -2.0, "ENCUTGWSOFT": -2.0, "ENCUTLF": -1.0, "LESF_SPLINES": false, "LMAXMP2": -1, "SCISSOR": 0.0, "NOMEGA": 0, "NOMEGAR": 0, "NBANDSGW": -1, "NBANDSO": -1, "NBANDSV": -1, "NELMGW": 1, "NELMHF": 1, "DIM": 3, "IESPILON": 4, "ANTIRES": 0, "OMEGAMIN": -30.0, "OMEGATL": -200.0, "OMEGAGRID": 0, "LSELFENERGY": false, "LSPECTRAL": false, "LSPECTRALGW": false, "LSINGLES": false, "LFERMIGW": false, "ODDONLYGW": false, "EVENONLYGW": false, "NKREDLFX": 1, "NKREDLFY": 1, "NKREDLFZ": 1, "MAXMEM": 2800, "TELESCOPE": 0, "NTAUPAR": -1, "NOMEGAPAR": -1, "DAMP_NEWTON": 0.80000001, "LAMBDA": 1.0, "OFIELD_KAPPA": 0.0, "OFIELD_K": [0.0, 0.0, 0.0], "OFIELD_Q6_NEAR": 0.0, "OFIELD_Q6_FAR": 0.0, "OFIELD_A": 0.0, "KPOINTS_OPT_MODE": 1, "LKPOINTS_OPT": false, "@module": "pymatgen.io.vasp.inputs", "@class": "Incar"}, "relaxed_structures": {"@module": "pymatgen.core.structure", "@class": "Structure", "charge": 0, "lattice": {"matrix": [[7.00642, 0.0, 0.0], [-0.000714, 10.025156, 0.0], [0.0, 0.0, 40.69438824]], "a": 7.00642, "b": 10.02515602542584, "c": 40.69438824, "alpha": 90.0, "beta": 90.0, "gamma": 90.00408065335873, "volume": 2858.392284944523}, "sites": [{"species": [{"element": "Na", "occu": 1}], "abc": [0.40070922, 0.11421398, 0.0551349], "xyz": [2.80745554441068, 1.1450129668808802, 2.2436810261735762], "label": "Na", "properties": {}}, {"species": [{"element": "Na", "occu": 1}], "abc": [0.04274839, 0.92955058, 0.00486337], "xyz": [0.29884947554968, 9.31888957439048, 0.1979118669347688], "label": "Na", "properties": {}}, {"species": [{"element": "Na", "occu": 1}], "abc": [0.01760058, 0.36805509, 0.00180206], "xyz": [0.12305426438934, 3.68980969384404, 0.07333372927177441], "label": "Na", "properties": {}}, {"species": [{"element": "Na", "occu": 1}], "abc": [0.90005072, 0.67972988, 0.06967582], "xyz": [6.30564803848808, 6.81439808486128, 2.8354148700203567], "label": "Na", "properties": {}}, {"species": [{"element": "Na", "occu": 1}], "abc": [0.39147583, 0.63266326, 0.17542376], "xyz": [2.7423923632609606, 6.34254787696856, 7.138762595960583], "label": "Na", "properties": {}}, {"species": [{"element": "Na", "occu": 1}], "abc": [0.39322119, 0.36829181, 0.11611052], "xyz": [2.7548098496874602, 3.6921828487723602, 4.725046579628285], "label": "Na", "properties": {}}, {"species": [{"element": "Na", "occu": 1}], "abc": [0.89386577, 0.40086341, 0.12867647], "xyz": [6.26251279176866, 4.01871821994196, 5.236410227532713], "label": "Na", "properties": {}}, {"species": [{"element": "Na", "occu": 1}], "abc": [0.36954008, 0.91494857, 0.1254818], "xyz": [2.58849973403462, 9.17250214622692, 5.106405086254033], "label": "Na", "properties": {}}, {"species": [{"element": "Na", "occu": 1}], "abc": [0.87510734, 0.94153846, 0.1368525], "xyz": [6.13069731066236, 9.43906994149976, 5.569128766614599], "label": "Na", "properties": {}}, {"species": [{"element": "Na", "occu": 1}], "abc": [0.89272082, 0.18757462, 0.19936022], "xyz": [6.254643079385721, 1.88046482714072, 8.112842192291813], "label": "Na", "properties": {}}, {"species": [{"element": "Na", "occu": 1}], "abc": [0.39229088, 0.17706329, 0.30034227], "xyz": [2.74842824426054, 1.7750871041232403, 12.222244940262906], "label": "Na", "properties": {}}, {"species": [{"element": "Na", "occu": 1}], "abc": [0.39362248, 0.88630166, 0.24208891], "xyz": [2.75725159693636, 8.885312404558961, 9.851660092138419], "label": "Na", "properties": {}}, {"species": [{"element": "Na", "occu": 1}], "abc": [0.89416058, 0.89248965, 0.2562952], "xyz": [6.2642273333135, 8.9473479696354, 10.42977637284845], "label": "Na", "properties": {}}, {"species": [{"element": "Na", "occu": 1}], "abc": [0.38453932, 0.44180327, 0.24326234], "xyz": [2.6939285348996203, 4.429146703060121, 9.899412108130882], "label": "Na", "properties": {}}, {"species": [{"element": "Na", "occu": 1}], "abc": [0.88491055, 0.44655948, 0.25787597], "xyz": [6.19973613226228, 4.47682845027888, 10.494104840946594], "label": "Na", "properties": {}}, {"species": [{"element": "Na", "occu": 1}], "abc": [0.89056772, 0.64955493, 0.32416938], "xyz": [6.2392277025423795, 6.511889503819081, 13.191874605240093], "label": "Na", "properties": {}}, {"species": [{"element": "Na", "occu": 1}], "abc": [0.40151776, 0.68056211, 0.43080038], "xyz": [2.8127161426726603, 6.82274132043916, 17.53115791765953], "label": "Na", "properties": {}}, {"species": [{"element": "Na", "occu": 1}], "abc": [0.39561789, 0.40191879, 0.36971036], "xyz": [2.77157812683774, 4.029298569081241, 15.045136926190168], "label": "Na", "properties": {}}, {"species": [{"element": "Na", "occu": 1}], "abc": [0.89398764, 0.37815916, 0.38271305], "xyz": [6.26338287500856, 3.7911045718289604, 15.574273441214533], "label": "Na", "properties": {}}, {"species": [{"element": "Na", "occu": 1}], "abc": [0.37366404, 0.94219874, 0.3642509], "xyz": [2.61737447323644, 9.445689351503441, 14.822967541369417], "label": "Na", "properties": {}}, {"species": [{"element": "Na", "occu": 1}], "abc": [0.86944404, 0.9269587, 0.37601281], "xyz": [6.091028262225, 9.292905573057201, 15.301611273353354], "label": "Na", "properties": {}}, {"species": [{"element": "Na", "occu": 1}], "abc": [0.9043361, 0.12527518, 0.44515268], "xyz": [6.3360690912834805, 1.2559032224280802, 18.115215985996485], "label": "Na", "properties": {}}, {"species": [{"element": "Na", "occu": 1}], "abc": [0.54085642, 0.93736541, 0.49562884], "xyz": [3.7887979593136603, 9.39723446425396, 20.169312437900842], "label": "Na", "properties": {}}, {"species": [{"element": "Na", "occu": 1}], "abc": [0.54234867, 0.37136908, 0.4989528], "xyz": [3.79965741093828, 3.7230329605764805, 20.304578956635073], "label": "Na", "properties": {}}, {"species": [{"element": "Na", "occu": 1}], "abc": [0.67402776, 0.66119437, 0.55518787], "xyz": [4.72204948543902, 6.628576705571721, 22.593030727918652], "label": "Na", "properties": {}}, {"species": [{"element": "Na", "occu": 1}], "abc": [0.03352609, 0.84481153, 0.50442198], "xyz": [0.23429467206538004, 8.46936737884868, 20.527143890909517], "label": "Na", "properties": {}}, {"species": [{"element": "Na", "occu": 1}], "abc": [0.06184252, 0.40787371, 0.50151607], "xyz": [0.43300344714946004, 4.08899757104876, 20.408889661179018], "label": "Na", "properties": {}}, {"species": [{"element": "Na", "occu": 1}], "abc": [0.17325857, 0.09477264, 0.56977838], "xyz": [1.21385464235444, 0.9501105005318401, 23.186782606478253], "label": "Na", "properties": {}}, {"species": [{"element": "Na", "occu": 1}], "abc": [0.68222642, 0.14336172, 0.67551928], "xyz": [4.77986247334832, 1.43722360742832, 27.48984384392527], "label": "Na", "properties": {}}, {"species": [{"element": "Na", "occu": 1}], "abc": [0.68291972, 0.40751981, 0.61617458], "xyz": [4.78453141545806, 4.0854496683403605, 25.07484758213894], "label": "Na", "properties": {}}, {"species": [{"element": "Na", "occu": 1}], "abc": [0.18208407, 0.37398996, 0.6284319], "xyz": [1.2754904408979602, 3.7493076914337604, 25.57365172100086], "label": "Na", "properties": {}}, {"species": [{"element": "Na", "occu": 1}], "abc": [0.70121737, 0.86040761, 0.62562771], "xyz": [4.91240907448186, 8.62572051383716, 25.45953692444213], "label": "Na", "properties": {}}, {"species": [{"element": "Na", "occu": 1}], "abc": [0.19613335, 0.83310771, 0.6371717], "xyz": [1.3735977872020602, 8.35203475755276, 25.92931253534081], "label": "Na", "properties": {}}, {"species": [{"element": "Na", "occu": 1}], "abc": [0.18210104, 0.58464902, 0.69943474], "xyz": [1.27545892927652, 5.86119763074712, 28.463068858103462], "label": "Na", "properties": {}}, {"species": [{"element": "Na", "occu": 1}], "abc": [0.68316178, 0.59867323, 0.80030244], "xyz": [4.78609090594138, 6.00179252377388, 32.56781820277931], "label": "Na", "properties": {}}, {"species": [{"element": "Na", "occu": 1}], "abc": [0.68177752, 0.88957177, 0.74204376], "xyz": [4.77618449743462, 8.91809576744612, 30.197016860509386], "label": "Na", "properties": {}}, {"species": [{"element": "Na", "occu": 1}], "abc": [0.1815375, 0.88162972, 0.75612436], "xyz": [1.27129848712992, 8.83847547723632, 30.77001826356153], "label": "Na", "properties": {}}, {"species": [{"element": "Na", "occu": 1}], "abc": [0.68930013, 0.33351301, 0.74345501], "xyz": [4.829288088545461, 3.3435199532795603, 30.254446815913084], "label": "Na", "properties": {}}, {"species": [{"element": "Na", "occu": 1}], "abc": [0.18822862, 0.32746788, 0.75834927], "xyz": [1.3185749556740802, 3.28291658198928, 30.860559614900584], "label": "Na", "properties": {}}, {"species": [{"element": "Na", "occu": 1}], "abc": [0.1842057, 0.12395544, 0.82442906], "xyz": [1.29053399640984, 1.24267262304864, 33.549636243978256], "label": "Na", "properties": {}}, {"species": [{"element": "Na", "occu": 1}], "abc": [0.67389232, 0.09414356, 0.93052545], "xyz": [4.7215054101925595, 0.94380387539536, 37.86716392950071], "label": "Na", "properties": {}}, {"species": [{"element": "Na", "occu": 1}], "abc": [0.68134187, 0.37378287, 0.86953948], "xyz": [4.77350042383622, 3.7472315818777204, 35.385377189127716], "label": "Na", "properties": {}}, {"species": [{"element": "Na", "occu": 1}], "abc": [0.1820144, 0.39554894, 0.88289034], "xyz": [1.27498691050484, 3.9654398291346404, 35.928682269305604], "label": "Na", "properties": {}}, {"species": [{"element": "Na", "occu": 1}], "abc": [0.69940078, 0.83143886, 0.86405322], "xyz": [4.899701965661561, 8.33530427596216, 35.162117194702134], "label": "Na", "properties": {}}, {"species": [{"element": "Na", "occu": 1}], "abc": [0.20239612, 0.84690331, 0.8766061], "xyz": [1.4174675341270602, 8.49033779966636, 35.67294896695227], "label": "Na", "properties": {}}, {"species": [{"element": "Na", "occu": 1}], "abc": [0.17331104, 0.6482341, 0.94547116], "xyz": [1.2138270977294001, 6.498647977019601, 38.47537045476316], "label": "Na", "properties": {}}, {"species": [{"element": "Na", "occu": 1}], "abc": [0.53525281, 0.83784276, 0.99542167], "xyz": [3.7496077733095605, 8.399504372470561, 40.508075901489164], "label": "Na", "properties": {}}, {"species": [{"element": "Na", "occu": 1}], "abc": [0.53880627, 0.40008813, 0.99847897], "xyz": [3.7748173633285806, 4.01094591699828, 40.632490854655316], "label": "Na", "properties": {}}, {"species": [{"element": "P", "occu": 1}], "abc": [0.89892107, 0.14800153, 0.06628719], "xyz": [6.298112890176981, 1.4837384264886802, 2.6975166451986454], "label": "P", "properties": {}}, {"species": [{"element": "P", "occu": 1}], "abc": [0.40316107, 0.65191992, 0.06347028], "xyz": [2.8242503132465204, 6.53559889750752, 2.5828842160215073], "label": "P", "properties": {}}, {"species": [{"element": "P", "occu": 1}], "abc": [0.89252095, 0.66179905, 0.18826603], "xyz": [6.2529041099773, 6.634638716901801, 7.661370917223488], "label": "P", "properties": {}}, {"species": [{"element": "P", "occu": 1}], "abc": [0.39281733, 0.16774506, 0.18776617], "xyz": [2.75212342728576, 1.68167039472936, 7.6410294203178415], "label": "P", "properties": {}}, {"species": [{"element": "P", "occu": 1}], "abc": [0.89299683, 0.16961346, 0.31217593], "xyz": [6.25658974563816, 1.7004013961997602, 12.703808494603063], "label": "P", "properties": {}}, {"species": [{"element": "P", "occu": 1}], "abc": [0.39199991, 0.66564601, 0.31126424], "xyz": [2.74604073817106, 6.673205091027561, 12.666707827788539], "label": "P", "properties": {}}, {"species": [{"element": "P", "occu": 1}], "abc": [0.90383449, 0.6619269, 0.43620099], "xyz": [6.332171431619201, 6.6359204330964, 17.75093243773236], "label": "P", "properties": {}}, {"species": [{"element": "P", "occu": 1}], "abc": [0.40255474, 0.15685127, 0.43377314], "xyz": [2.8203555896240204, 1.57245845054812, 17.652132567243875], "label": "P", "properties": {}}, {"species": [{"element": "P", "occu": 1}], "abc": [0.17576695, 0.62842733, 0.56621032], "xyz": [1.2310483767053801, 6.30008201791348, 23.04158258757464], "label": "P", "properties": {}}, {"species": [{"element": "P", "occu": 1}], "abc": [0.67048674, 0.12318941, 0.56386391], "xyz": [4.6976237476320595, 1.23499305279796, 22.94609686806442], "label": "P", "properties": {}}, {"species": [{"element": "P", "occu": 1}], "abc": [0.18114537, 0.11412428, 0.68841118], "xyz": [1.26909905853948, 1.14411371038768, 28.014471827676527], "label": "P", "properties": {}}, {"species": [{"element": "P", "occu": 1}], "abc": [0.68182165, 0.60809771, 0.68786536], "xyz": [4.77669466322806, 6.0962744059927605, 27.992260016687368], "label": "P", "properties": {}}, {"species": [{"element": "P", "occu": 1}], "abc": [0.182919, 0.60462922, 0.81232528], "xyz": [1.28117563471692, 6.06150225265832, 33.05708032148671], "label": "P", "properties": {}}, {"species": [{"element": "P", "occu": 1}], "abc": [0.68259115, 0.10893038, 0.81134534], "xyz": [4.78244250889168, 1.09204405263928, 33.01720226267481], "label": "P", "properties": {}}, {"species": [{"element": "P", "occu": 1}], "abc": [0.17127203, 0.11366824, 0.9366855], "xyz": [1.1999226173092399, 1.13954183824544, 38.11784339577852], "label": "P", "properties": {}}, {"species": [{"element": "P", "occu": 1}], "abc": [0.67500642, 0.61792472, 0.93370359], "xyz": [4.728937282966321, 6.19479171425632, 37.996496392541786], "label": "P", "properties": {}}, {"species": [{"element": "S", "occu": 1}], "abc": [0.05602992, 0.97437679, 0.07218588], "xyz": [0.39187344705834, 9.76827932252924, 2.937560226166051], "label": "S", "properties": {}}, {"species": [{"element": "S", "occu": 1}], "abc": [0.58763475, 0.49244, 0.06274286], "xyz": [4.116864262935, 4.93678782064, 2.5532823041279666], "label": "S", "properties": {}}, {"species": [{"element": "S", "occu": 1}], "abc": [0.082933, 0.30862778, 0.06722442], "xyz": [0.58084306962508, 3.0940416404336806, 2.735656646688821], "label": "S", "properties": {}}, {"species": [{"element": "S", "occu": 1}], "abc": [0.23738335, 0.64281478, 0.10546122], "xyz": [1.66274848135408, 6.444318448605681, 4.2916798309440525], "label": "S", "properties": {}}, {"species": [{"element": "S", "occu": 1}], "abc": [0.70203545, 0.1613023, 0.10376378], "xyz": [4.9186400477468, 1.6170807206588003, 4.222603548569947], "label": "S", "properties": {}}, {"species": [{"element": "S", "occu": 1}], "abc": [0.55647717, 0.82782859, 0.06379684], "xyz": [3.89832170381814, 8.299110756010041, 2.5961733754451615], "label": "S", "properties": {}}, {"species": [{"element": "S", "occu": 1}], "abc": [0.7631497, 0.14315073, 0.02106963], "xyz": [5.34684511145278, 1.43510839976388, 0.8574157032931512], "label": "S", "properties": {}}, {"species": [{"element": "S", "occu": 1}], "abc": [0.22675936, 0.64823745, 0.02200419], "xyz": [1.5883084735519, 6.498681561292201, 0.8954470507667256], "label": "S", "properties": {}}, {"species": [{"element": "S", "occu": 1}], "abc": [0.05003139, 0.48761167, 0.19167459], "xyz": [0.35019277679142, 4.88838305917052, 7.800080181202822], "label": "S", "properties": {}}, {"species": [{"element": "S", "occu": 1}], "abc": [0.56997465, 0.00305093, 0.18591101], "xyz": [3.9934796088889803, 0.03058604919508, 7.565534819030522], "label": "S", "properties": {}}, {"species": [{"element": "S", "occu": 1}], "abc": [0.0752498, 0.82356979, 0.19075095], "xyz": [0.52664367488594, 8.25641562163724, 7.762493216448829], "label": "S", "properties": {}}, {"species": [{"element": "S", "occu": 1}], "abc": [0.24811931, 0.16707333, 0.23198515], "xyz": [1.7383088056125802, 1.67493619668948, 9.440493760014636], "label": "S", "properties": {}}, {"species": [{"element": "S", "occu": 1}], "abc": [0.69804337, 0.66873411, 0.22654795], "xyz": [4.890307552280861, 6.704163775271161, 9.219230232276109], "label": "S", "properties": {}}, {"species": [{"element": "S", "occu": 1}], "abc": [0.55443907, 0.33945512, 0.18330725], "xyz": [3.8843906178737204, 3.4030905329987204, 7.459576398706741], "label": "S", "properties": {}}, {"species": [{"element": "S", "occu": 1}], "abc": [0.74775684, 0.66646711, 0.14408552], "xyz": [5.23862262139626, 6.681436746619161, 5.863472090642285], "label": "S", "properties": {}}, {"species": [{"element": "S", "occu": 1}], "abc": [0.19700922, 0.15903564, 0.14979498], "xyz": [1.3802157877454402, 1.5943571005598403, 6.095815072523036], "label": "S", "properties": {}}, {"species": [{"element": "S", "occu": 1}], "abc": [0.06444458, 0.00194564, 0.31460779], "xyz": [0.45152440501664, 0.019505344519840002, 12.80277154958839], "label": "S", "properties": {}}, {"species": [{"element": "S", "occu": 1}], "abc": [0.5555666, 0.49403567, 0.30814185], "xyz": [3.89218019610362, 4.95278466131452, 12.539644076891845], "label": "S", "properties": {}}, {"species": [{"element": "S", "occu": 1}], "abc": [0.05919669, 0.33919416, 0.3162546], "xyz": [0.41451468811956005, 3.4004743682889607, 12.869787475085905], "label": "S", "properties": {}}, {"species": [{"element": "S", "occu": 1}], "abc": [0.24916523, 0.66821831, 0.35559106], "xyz": [1.74527914290326, 6.69899279980636, 14.470560650313136], "label": "S", "properties": {}}, {"species": [{"element": "S", "occu": 1}], "abc": [0.69615745, 0.16503733, 0.35006589], "xyz": [4.877453644175381, 1.6545249790734802, 14.245717237241134], "label": "S", "properties": {}}, {"species": [{"element": "S", "occu": 1}], "abc": [0.56800474, 0.8306863, 0.30819727], "xyz": [3.9790866604126003, 8.327759744562801, 12.541899359888106], "label": "S", "properties": {}}, {"species": [{"element": "S", "occu": 1}], "abc": [0.74924122, 0.16979796, 0.26786225], "xyz": [5.24937743288896, 1.70225103748176, 10.900490396339942], "label": "S", "properties": {}}, {"species": [{"element": "S", "occu": 1}], "abc": [0.19572375, 0.66786466, 0.27312402], "xyz": [1.37084594110776, 6.695447403386961, 11.114614907549527], "label": "S", "properties": {}}, {"species": [{"element": "S", "occu": 1}], "abc": [0.08399469, 0.50008333, 0.4367313], "xyz": [0.58814501641218, 5.013413396249481, 17.772513078759914], "label": "S", "properties": {}}, {"species": [{"element": "S", "occu": 1}], "abc": [0.55963859, 0.98314802, 0.42838461], "xyz": [3.9203610420615207, 9.85621227159112, 17.432849635380986], "label": "S", "properties": {}}, {"species": [{"element": "S", "occu": 1}], "abc": [0.06210536, 0.83598115, 0.43620651], "xyz": [0.4345393458701, 8.3808414418094, 17.751157070755443], "label": "S", "properties": {}}, {"species": [{"element": "S", "occu": 1}], "abc": [0.26775086, 0.1536682, 0.47914972], "xyz": [1.8758652614264, 1.5405476772392002, 19.498704730767294], "label": "S", "properties": {}}, {"species": [{"element": "S", "occu": 1}], "abc": [0.72763848, 0.65899062, 0.47774546], "xyz": [5.09767027973892, 6.60648376803672, 19.441559229137393], "label": "S", "properties": {}}, {"species": [{"element": "S", "occu": 1}], "abc": [0.58530989, 0.31818123, 0.43237928], "xyz": [4.100699738095581, 3.1898164670218803, 17.595410287251667], "label": "S", "properties": {}}, {"species": [{"element": "S", "occu": 1}], "abc": [0.73819903, 0.65556429, 0.39418353], "xyz": [5.17166437486954, 6.572134275279241, 16.04105760763369], "label": "S", "properties": {}}, {"species": [{"element": "S", "occu": 1}], "abc": [0.20449252, 0.16836651, 0.39638909], "xyz": [1.4326402682902601, 1.6879005279255601, 16.130811522560304], "label": "S", "properties": {}}, {"species": [{"element": "S", "occu": 1}], "abc": [0.01777232, 0.80159831, 0.57199216], "xyz": [0.12394799710106001, 8.036148107086362, 23.276871029276197], "label": "S", "properties": {}}, {"species": [{"element": "S", "occu": 1}], "abc": [0.48575373, 0.28270306, 0.56333175], "xyz": [3.40319279896176, 2.83414227817736, 22.924440942418624], "label": "S", "properties": {}}, {"species": [{"element": "S", "occu": 1}], "abc": [0.99190738, 0.46744283, 0.56702294], "xyz": [6.94938595119898, 4.68618729183148, 23.074651661346227], "label": "S", "properties": {}}, {"species": [{"element": "S", "occu": 1}], "abc": [0.83637003, 0.13162859, 0.60582314], "xyz": [5.8598657227793405, 1.31959714881004, 24.653602063935878], "label": "S", "properties": {}}, {"species": [{"element": "S", "occu": 1}], "abc": [0.37205705, 0.61480127, 0.603792], "xyz": [2.60634898815422, 6.16347864074812, 24.57094606420608], "label": "S", "properties": {}}, {"species": [{"element": "S", "occu": 1}], "abc": [0.51709256, 0.94735147, 0.56395418], "xyz": [3.6222912452856204, 9.497346273579321, 22.949770350490844], "label": "S", "properties": {}}, {"species": [{"element": "S", "occu": 1}], "abc": [0.31280441, 0.63287307, 0.52105358], "xyz": [2.19118720294022, 6.344651254948921, 21.2039566783619], "label": "S", "properties": {}}, {"species": [{"element": "S", "occu": 1}], "abc": [0.84631971, 0.12789187, 0.52229502], "xyz": [5.929580027743019, 1.28213594788172, 21.25447631969857], "label": "S", "properties": {}}, {"species": [{"element": "S", "occu": 1}], "abc": [0.02384118, 0.28854257, 0.69170673], "xyz": [0.16683530098062002, 2.8926842768909204, 28.148582218840858], "label": "S", "properties": {}}, {"species": [{"element": "S", "occu": 1}], "abc": [0.5029619, 0.77192586, 0.68613166], "xyz": [3.5234111603339597, 7.73867716693416, 27.92170815579568], "label": "S", "properties": {}}, {"species": [{"element": "S", "occu": 1}], "abc": [0.99835235, 0.95255187, 0.69109085], "xyz": [6.99419575005182, 9.54948109484172, 28.123519359011606], "label": "S", "properties": {}}, {"species": [{"element": "S", "occu": 1}], "abc": [0.82702529, 0.60902461, 0.73203024], "xyz": [5.79405168879026, 6.105566723089161, 29.78952278998038], "label": "S", "properties": {}}, {"species": [{"element": "S", "occu": 1}], "abc": [0.37616876, 0.10752052, 0.72661818], "xyz": [2.63551955378792, 1.07790998620112, 29.569282319162205], "label": "S", "properties": {}}, {"species": [{"element": "S", "occu": 1}], "abc": [0.52209772, 0.43553394, 0.68329835], "xyz": [3.6577249361292403, 4.36629569179464, 27.80640833865141], "label": "S", "properties": {}}, {"species": [{"element": "S", "occu": 1}], "abc": [0.32534844, 0.10860867, 0.64420749], "xyz": [2.27945027039442, 1.0888188597025201, 26.215629705175918], "label": "S", "properties": {}}, {"species": [{"element": "S", "occu": 1}], "abc": [0.87698085, 0.61781481, 0.64982557], "xyz": [6.14405504728266, 6.193689849360361, 26.4442540338593], "label": "S", "properties": {}}, {"species": [{"element": "S", "occu": 1}], "abc": [0.01163179, 0.77241955, 0.81458061], "xyz": [0.0809456985331, 7.7436264861998, 33.14885959611603], "label": "S", "properties": {}}, {"species": [{"element": "S", "occu": 1}], "abc": [0.51919491, 0.28051969, 0.80836062], "xyz": [3.63749731026354, 2.81225365332164, 32.89574090820711], "label": "S", "properties": {}}, {"species": [{"element": "S", "occu": 1}], "abc": [0.01574352, 0.43550931, 0.81662597], "xyz": [0.10999475975106, 4.36604877220236, 33.232094270046595], "label": "S", "properties": {}}, {"species": [{"element": "S", "occu": 1}], "abc": [0.82520503, 0.10535676, 0.85572753], "xyz": [5.78165780156596, 1.05621795465456, 34.82330833347625], "label": "S", "properties": {}}, {"species": [{"element": "S", "occu": 1}], "abc": [0.37951457, 0.60987485, 0.85021716], "xyz": [2.6586030228965, 6.1140905117266, 34.5990671973502], "label": "S", "properties": {}}, {"species": [{"element": "S", "occu": 1}], "abc": [0.5064178, 0.94403523, 0.80805124], "xyz": [3.5475017611217803, 9.464100450245882, 32.883150878373414], "label": "S", "properties": {}}, {"species": [{"element": "S", "occu": 1}], "abc": [0.32623112, 0.60326219, 0.7679703], "xyz": [2.2852815145867402, 6.047797563651641, 31.252081544989274], "label": "S", "properties": {}}, {"species": [{"element": "S", "occu": 1}], "abc": [0.87918386, 0.107185, 0.77325358], "xyz": [6.1598548502912, 1.0745463458600002, 31.467081392489902], "label": "S", "properties": {}}, {"species": [{"element": "S", "occu": 1}], "abc": [0.9912582, 0.2755099, 0.93725756], "xyz": [6.944974563575401, 2.7620297270444, 38.1411230275151], "label": "S", "properties": {}}, {"species": [{"element": "S", "occu": 1}], "abc": [0.51649015, 0.79100883, 0.928237], "xyz": [3.61818213645838, 7.92998691812748, 37.774036856732884], "label": "S", "properties": {}}, {"species": [{"element": "S", "occu": 1}], "abc": [0.01330609, 0.93962011, 0.93691358], "xyz": [0.09255716633925999, 9.41983818348716, 38.1271249718483], "label": "S", "properties": {}}, {"species": [{"element": "S", "occu": 1}], "abc": [0.80896367, 0.62172217, 0.97912149], "xyz": [5.667495327132021, 6.23286174290852, 39.84475004818728], "label": "S", "properties": {}}, {"species": [{"element": "S", "occu": 1}], "abc": [0.34933051, 0.1163793, 0.97797741], "xyz": [2.447473177054, 1.1667206376708001, 39.79819241248966], "label": "S", "properties": {}}, {"species": [{"element": "S", "occu": 1}], "abc": [0.49340932, 0.45600418, 0.93215958], "xyz": [3.45670734084988, 4.57151304115208, 37.93366385015534], "label": "S", "properties": {}}, {"species": [{"element": "S", "occu": 1}], "abc": [0.33554094, 0.12002227, 0.89448792], "xyz": [2.3508550569340203, 1.20324198022412, 36.40063869247006], "label": "S", "properties": {}}, {"species": [{"element": "S", "occu": 1}], "abc": [0.87338533, 0.60723261, 0.89636389], "xyz": [6.11887087973506, 6.08760164353716, 36.47698014397666], "label": "S", "properties": {}}]}, "formula": "", "bandgap": 2.3566999999999996}