{"miller": "101_0.20", "final_energy": -526.25069162, "sigma": 0.0037578309484331243, "incar_parameters": {"SYSTEM": "unknown system", "LCOMPAT": false, "PREC": "normal", "ENMAX": 520.0, "ENAUG": 368.056, "EDIFF": 1e-05, "IALGO": 38, "IWAVPR": 11, "NBANDS": 480, "NBANDSLOW": -1, "NBANDSHIGH": -1, "NELECT": 800.0, "TURBO": 0, "IRESTART": 0, "NREBOOT": 0, "NMIN": 0, "EREF": 0.0, "ISMEAR": 0, "SIGMA": 0.05, "KSPACING": 0.5, "KGAMMA": true, "KBLOWUP": true, "LREAL": true, "ROPT": [-0.0005, -0.0005, -0.0005], "LMAXPAW": -100, "LMAXMIX": 2, "NLSPLINE": false, "ISTART": 0, "ICHARG": 2, "INIWAV": 1, "ISPIN": 1, "LNONCOLLINEAR": false, "MAGMOM": [0.6, 0.6, 0.6, 0.6, 0.6, 0.6, 0.6, 0.6, 0.6, 0.6, 0.6, 0.6, 0.6, 0.6, 0.6, 0.6, 0.6, 0.6, 0.6, 0.6, 0.6, 0.6, 0.6, 0.6, 0.6, 0.6, 0.6, 0.6, 0.6, 0.6, 0.6, 0.6, 0.6, 0.6, 0.6, 0.6, 0.6, 0.6, 0.6, 0.6, 0.6, 0.6, 0.6, 0.6, 0.6, 0.6, 0.6, 0.6, 0.6, 0.6, 0.6, 0.6, 0.6, 0.6, 0.6, 0.6, 0.6, 0.6, 0.6, 0.6, 0.6, 0.6, 0.6, 0.6, 0.6, 0.6, 0.6, 0.6, 0.6, 0.6, 0.6, 0.6, 0.6, 0.6, 0.6, 0.6, 0.6, 0.6, 0.6, 0.6, 0.6, 0.6, 0.6, 0.6, 0.6, 0.6, 0.6, 0.6, 0.6, 0.6, 0.6, 0.6, 0.6, 0.6, 0.6, 0.6, 0.6, 0.6, 0.6, 0.6, 0.6, 0.6, 0.6, 0.6, 0.6, 0.6, 0.6, 0.6, 0.6, 0.6, 0.6, 0.6, 0.6, 0.6, 0.6, 0.6, 0.6, 0.6, 0.6, 0.6, 0.6, 0.6, 0.6, 0.6, 0.6, 0.6, 0.6, 0.6], "NUPDOWN": -1.0, "LSORBIT": false, "SAXIS": [0.0, 0.0, 1.0], "LSPIRAL": false, "QSPIRAL": [0.0, 0.0, 0.0], "LZEROZ": false, "LASPH": false, "LMETAGGA": false, "NELM": 100, "NELMDL": -5, "NELMIN": 6, "ENINI": 520.0, "LDIAG": true, "LSUBROT": false, "WEIMIN": 0.001, "EBREAK": 1e-08, "DEPER": 0.3, "NRMM": 4, "TIME": 0.4, "AMIX": 0.4, "BMIX": 1.0, "AMIN": 0.1, "AMIX_MAG": 1.6, "BMIX_MAG": 1.0, "IMIX": 4, "MIXFIRST": false, "MAXMIX": -45, "WC": 100.0, "INIMIX": 1, "MIXPRE": 1, "MREMOVE": 5, "LDIPOL": false, "LMONO": false, "IDIPOL": 0, "EPSILON": 1.0, "DIPOL": [-100.0, -100.0, -100.0], "EFIELD": 0.0, "NGX": 40, "NGY": 56, "NGZ": 240, "NGXF": 80, "NGYF": 112, "NGZF": 480, "ADDGRID": false, "NSW": 150, "IBRION": 2, "MDALGO": 0, "ISIF": 3, "PSTRESS": 0.0, "EDIFFG": -0.01, "NFREE": 1, "POTIM": 0.5, "SMASS": -3.0, "SCALEE": 1.0, "TEBEG": 0.0001, "TEEND": 0.0001, "NBLOCK": 1, "KBLOCK": 150, "NPACO": 256, "APACO": 10.0, "ISYM": 0, "SYMPREC": 1e-05, "LORBIT": 11, "RWIGS": [-1.0, -1.0, -1.0], "NEDOS": 301, "EMIN": 10.0, "EMAX": -10.0, "EFERMI": 0.0, "NWRITE": 2, "LWAVE": false, "LDOWNSAMPLE": false, "LCHARG": false, "LPARD": false, "LVTOT": false, "LVHAR": false, "LELF": false, "LOPTICS": false, "STM": [0.0, 0.0, 0.0, 0.0, 0.0, 0.0, 0.0], "NPAR": 1, "NSIM": 4, "NBLK": -1, "LPLANE": true, "LSCALAPACK": true, "LSCAAWARE": false, "LSCALU": false, "LASYNC": false, "LORBITALREAL": false, "IDIOT": 3, "PHON_NSTRUCT": -1, "LMUSIC": false, "POMASS": [22.99, 30.974, 32.066], "DARWINR": [0.0, 0.0, 0.0], "DARWINV": [1.0, 1.0, 1.0], "LCORR": true, "GGA_COMPAT": true, "LBERRY": false, "ICORELEVEL": 0, "LDAU": false, "I_CONSTRAINED_M": 0, "GGA": "--", "VOSKOWN": 0, "LHFCALC": false, "PRECFOCK": "", "LSYMGRAD": false, "LHFONE": false, "LRHFCALC": false, "LTHOMAS": false, "LMODELHF": false, "LFOCKACE": false, "ENCUT4O": -1.0, "EXXOEP": 0, "FOURORBIT": 0, "AEXX": 0.0, "HFALPHA": 0.0, "MCALPHA": 0.0, "ALDAX": 1.0, "AGGAX": 1.0, "ALDAC": 1.0, "AGGAC": 1.0, "NKREDX": 1, "NKREDY": 1, "NKREDZ": 1, "SHIFTRED": false, "ODDONLY": false, "EVENONLY": false, "LMAXFOCK": 0, "NMAXFOCKAE": 0, "LFOCKAEDFT": false, "HFSCREEN": 0.0, "HFSCREENC": 0.0, "NBANDSGWLOW": 0, "LUSE_VDW": false, "Zab_VDW": -0.8491, "PARAM1": 0.1234, "PARAM2": 1.0, "PARAM3": 0.0, "MODEL_GW": 0, "MODEL_EPS0": 13.40263795, "MODEL_ALPHA": 1.0, "LEPSILON": false, "LRPA": false, "LNABLA": false, "LVEL": false, "CSHIFT": 0.1, "OMEGAMAX": -1.0, "DEG_THRESHOLD": 0.002, "RTIME": -0.1, "WPLASMAI": 0.0, "DFIELD": [0.0, 0.0, 0.0], "WPLASMA": [0.0, 0.0, 0.0, 0.0, 0.0, 0.0, 0.0, 0.0, 0.0], "NUCIND": false, "MAGPOS": [0.0, 0.0, 0.0], "LNICSALL": true, "ORBITALMAG": false, "LMAGBLOCH": false, "LCHIMAG": false, "LGAUGE": true, "MAGATOM": 0, "MAGDIPOL": [0.0, 0.0, 0.0], "AVECCONST": [0.0, 0.0, 0.0], "LFINITE_TEMPERATURE": false, "LADDER": false, "LRPAFORCE": false, "LFXC": false, "LHARTREE": true, "IBSE": 0, "KPOINT": [-1, 0, 0, 0], "LTCTC": false, "LTCTE": false, "LTETE": false, "LTRIPLET": false, "LFXCEPS": false, "LFXHEG": false, "NATURALO": 2, "LHOLEGF": false, "L2ORDER": false, "LDMP1": false, "LMP2LT": false, "LSMP2LT": false, "LGWLF": false, "ENCUTGW": -2.0, "ENCUTGWSOFT": -2.0, "ENCUTLF": -1.0, "LESF_SPLINES": false, "LMAXMP2": -1, "SCISSOR": 0.0, "NOMEGA": 0, "NOMEGAR": 0, "NBANDSGW": -1, "NBANDSO": -1, "NBANDSV": -1, "NELMGW": 1, "NELMHF": 1, "DIM": 3, "IESPILON": 4, "ANTIRES": 0, "OMEGAMIN": -30.0, "OMEGATL": -200.0, "OMEGAGRID": 0, "LSELFENERGY": false, "LSPECTRAL": false, "LSPECTRALGW": false, "LSINGLES": false, "LFERMIGW": false, "ODDONLYGW": false, "EVENONLYGW": false, "NKREDLFX": 1, "NKREDLFY": 1, "NKREDLFZ": 1, "MAXMEM": 2800, "TELESCOPE": 0, "NTAUPAR": -1, "NOMEGAPAR": -1, "DAMP_NEWTON": 0.80000001, "LAMBDA": 1.0, "OFIELD_KAPPA": 0.0, "OFIELD_K": [0.0, 0.0, 0.0], "OFIELD_Q6_NEAR": 0.0, "OFIELD_Q6_FAR": 0.0, "OFIELD_A": 0.0, "KPOINTS_OPT_MODE": 1, "LKPOINTS_OPT": false, "@module": "pymatgen.io.vasp.inputs", "@class": "Incar"}, "relaxed_structures": {"@module": "pymatgen.core.structure", "@class": "Structure", "charge": 0, "lattice": {"matrix": [[7.00642, 0.0, 0.0], [-0.000714, 10.025156, 0.0], [0.0, 0.0, 40.7063065]], "a": 7.00642, "b": 10.02515602542584, "c": 40.7063065, "alpha": 90.0, "beta": 90.0, "gamma": 90.00408065335873, "volume": 2859.2294289318716}, "sites": [{"species": [{"element": "Na", "occu": 1}], "abc": [0.40190286, 0.0263475, 0.05506127], "xyz": [2.8158814242462, 0.26413779771, 2.241340932899255], "label": "Na", "properties": {}}, {"species": [{"element": "Na", "occu": 1}], "abc": [0.04334789, 0.84216085, 0.00477045], "xyz": [0.3031122206069, 8.4427938983426, 0.194187399842925], "label": "Na", "properties": {}}, {"species": [{"element": "Na", "occu": 1}], "abc": [0.01147701, 0.2808846, 0.00187726], "xyz": [0.0802122007998, 2.8159119329976, 0.07641632094018999], "label": "Na", "properties": {}}, {"species": [{"element": "Na", "occu": 1}], "abc": [0.90280046, 0.59545545, 0.06988777], "xyz": [6.324974043761901, 5.9695337773002, 2.844872986221505], "label": "Na", "properties": {}}, {"species": [{"element": "Na", "occu": 1}], "abc": [0.39440142, 0.54446483, 0.17543466], "xyz": [2.76295324922778, 5.458344857263481, 7.141297040683289], "label": "Na", "properties": {}}, {"species": [{"element": "Na", "occu": 1}], "abc": [0.39507957, 0.28110469, 0.11594693], "xyz": [2.76789269209074, 2.81811836958164, 4.719771270314045], "label": "Na", "properties": {}}, {"species": [{"element": "Na", "occu": 1}], "abc": [0.89550731, 0.31523099, 0.12829264], "xyz": [6.27407525200334, 3.16023985078444, 5.22231952553416], "label": "Na", "properties": {}}, {"species": [{"element": "Na", "occu": 1}], "abc": [0.37904258, 0.82831048, 0.12540356], "xyz": [2.6551400996808803, 8.303941778434881, 5.104715749551139], "label": "Na", "properties": {}}, {"species": [{"element": "Na", "occu": 1}], "abc": [0.88321848, 0.85652186, 0.13734558], "xyz": [6.187588066033561, 8.586765263910161, 5.590831275900269], "label": "Na", "properties": {}}, {"species": [{"element": "Na", "occu": 1}], "abc": [0.89518206, 0.10487666, 0.19934477], "xyz": [6.27194660688996, 1.0514048772589601, 8.114589306792004], "label": "Na", "properties": {}}, {"species": [{"element": "Na", "occu": 1}], "abc": [0.39533495, 0.08746095, 0.30027139], "xyz": [2.7698202532607, 0.8768096676582, 12.222939234521036], "label": "Na", "properties": {}}, {"species": [{"element": "Na", "occu": 1}], "abc": [0.39707049, 0.79804286, 0.24190234], "xyz": [2.78147281994376, 8.000504166186161, 9.846950795107208], "label": "Na", "properties": {}}, {"species": [{"element": "Na", "occu": 1}], "abc": [0.89752484, 0.80765427, 0.25582899], "xyz": [6.28785932432402, 8.09686005081612, 10.413853278525433], "label": "Na", "properties": {}}, {"species": [{"element": "Na", "occu": 1}], "abc": [0.38903819, 0.35453051, 0.24370603], "xyz": [2.72551182039566, 3.5542236695095606, 9.920372353078195], "label": "Na", "properties": {}}, {"species": [{"element": "Na", "occu": 1}], "abc": [0.88982515, 0.36142281, 0.25847266], "xyz": [6.23423067157666, 3.62332005220836, 10.52146731983029], "label": "Na", "properties": {}}, {"species": [{"element": "Na", "occu": 1}], "abc": [0.89302435, 0.56803622, 0.32428995], "xyz": [6.2564980884659205, 5.69465171915032, 13.200646099569674], "label": "Na", "properties": {}}, {"species": [{"element": "Na", "occu": 1}], "abc": [0.40066079, 0.59408566, 0.43077919], "xyz": [2.80677359511056, 5.95580141886296, 17.53542974196173], "label": "Na", "properties": {}}, {"species": [{"element": "Na", "occu": 1}], "abc": [0.39457812, 0.31461985, 0.36942679], "xyz": [2.7643553929575, 3.1541130769466, 15.038000143051134], "label": "Na", "properties": {}}, {"species": [{"element": "Na", "occu": 1}], "abc": [0.89323275, 0.29468954, 0.38237638], "xyz": [6.258153395923441, 2.9543086100682405, 15.56513012264047], "label": "Na", "properties": {}}, {"species": [{"element": "Na", "occu": 1}], "abc": [0.37731942, 0.85651138, 0.36446543], "xyz": [2.6430467815510803, 8.586660200275281, 14.836041502234293], "label": "Na", "properties": {}}, {"species": [{"element": "Na", "occu": 1}], "abc": [0.87432671, 0.84249108, 0.37658928], "xyz": [6.12529860884708, 8.44610450560848, 15.329558656294319], "label": "Na", "properties": {}}, {"species": [{"element": "Na", "occu": 1}], "abc": [0.90208547, 0.04204027, 0.44518882], "xyz": [6.32035966196462, 0.42146026503212003, 18.12199255729333], "label": "Na", "properties": {}}, {"species": [{"element": "Na", "occu": 1}], "abc": [0.53874927, 0.8519106, 0.49556521], "xyz": [3.7740953961449994, 8.5405366630536, 20.172629328996862], "label": "Na", "properties": {}}, {"species": [{"element": "Na", "occu": 1}], "abc": [0.53463375, 0.28624948, 0.49891387], "xyz": [3.7456642165462806, 2.86969569191888, 20.30894090932115], "label": "Na", "properties": {}}, {"species": [{"element": "Na", "occu": 1}], "abc": [0.67176162, 0.57395194, 0.55510559], "xyz": [4.70623424791524, 5.753957735002641, 22.596298286403336], "label": "Na", "properties": {}}, {"species": [{"element": "Na", "occu": 1}], "abc": [0.03066381, 0.75864917, 0.50466286], "xyz": [0.21430185615282002, 7.6055762785205205, 20.54296105832659], "label": "Na", "properties": {}}, {"species": [{"element": "Na", "occu": 1}], "abc": [0.05538669, 0.32201792, 0.50143172], "xyz": [0.38783249175492, 3.2282798827955204, 20.41143328314218], "label": "Na", "properties": {}}, {"species": [{"element": "Na", "occu": 1}], "abc": [0.17167979, 0.00718588, 0.56984426], "xyz": [1.20285558353348, 0.07203956799728001, 23.19625510482569], "label": "Na", "properties": {}}, {"species": [{"element": "Na", "occu": 1}], "abc": [0.6812651, 0.05525441, 0.6755289], "xyz": [4.77318997029326, 0.5539340799379601, 27.498286453007847], "label": "Na", "properties": {}}, {"species": [{"element": "Na", "occu": 1}], "abc": [0.68112485, 0.31970854, 0.61615127], "xyz": [4.77201849963944, 3.20512798803224, 25.081242446984255], "label": "Na", "properties": {}}, {"species": [{"element": "Na", "occu": 1}], "abc": [0.18053616, 0.28527055, 0.62830018], "xyz": [1.2647084789745002, 2.8598817659558002, 25.575779701085168], "label": "Na", "properties": {}}, {"species": [{"element": "Na", "occu": 1}], "abc": [0.70012672, 0.77239173, 0.62558107], "xyz": [4.90483036584718, 7.7433475863598815, 25.465094776017953], "label": "Na", "properties": {}}, {"species": [{"element": "Na", "occu": 1}], "abc": [0.19488253, 0.74456499, 0.63714237], "xyz": [1.36489723643974, 7.46438017688844, 25.9357125973564], "label": "Na", "properties": {}}, {"species": [{"element": "Na", "occu": 1}], "abc": [0.18092919, 0.49486078, 0.69937006], "xyz": [1.2673125648028798, 4.961056517781681, 28.46877201928339], "label": "Na", "properties": {}}, {"species": [{"element": "Na", "occu": 1}], "abc": [0.68116778, 0.51295323, 0.80013121], "xyz": [4.772181308541381, 5.1424361514538806, 32.57038627447586], "label": "Na", "properties": {}}, {"species": [{"element": "Na", "occu": 1}], "abc": [0.67996089, 0.80154223, 0.74171429], "xyz": [4.7635192777615805, 8.035585896337881, 30.19244922416988], "label": "Na", "properties": {}}, {"species": [{"element": "Na", "occu": 1}], "abc": [0.17958099, 0.79093107, 0.75566871], "xyz": [1.25765511517182, 7.92920736199692, 30.760482121719612], "label": "Na", "properties": {}}, {"species": [{"element": "Na", "occu": 1}], "abc": [0.68840493, 0.24559813, 0.74377201], "xyz": [4.82307871258578, 2.46215956655828, 30.276211405181066], "label": "Na", "properties": {}}, {"species": [{"element": "Na", "occu": 1}], "abc": [0.18740883, 0.23705717, 0.75845932], "xyz": [1.31289571586922, 2.37653511016852, 30.874077547701578], "label": "Na", "properties": {}}, {"species": [{"element": "Na", "occu": 1}], "abc": [0.18228417, 0.03002826, 0.82424304], "xyz": [1.27713801419376, 0.30103799090856004, 33.55188981673176], "label": "Na", "properties": {}}, {"species": [{"element": "Na", "occu": 1}], "abc": [0.67252739, 0.00840438, 0.93040648], "xyz": [4.7120033551164795, 0.08425522058328, 37.87341134446612], "label": "Na", "properties": {}}, {"species": [{"element": "Na", "occu": 1}], "abc": [0.68061978, 0.28566, 0.86882314], "xyz": [4.7685040777475995, 2.8637860629600005, 35.36658103113241], "label": "Na", "properties": {}}, {"species": [{"element": "Na", "occu": 1}], "abc": [0.1813846, 0.30440782, 0.88243521], "xyz": [1.27063934194852, 3.05173588311992, 35.920678124651864], "label": "Na", "properties": {}}, {"species": [{"element": "Na", "occu": 1}], "abc": [0.6977343, 0.74269863, 0.86437343], "xyz": [4.8880892673841805, 7.445669626736281, 35.18544977203629], "label": "Na", "properties": {}}, {"species": [{"element": "Na", "occu": 1}], "abc": [0.20019337, 0.75567179, 0.87686039], "xyz": [1.4020992817773401, 7.57572757954924, 35.69374779304953], "label": "Na", "properties": {}}, {"species": [{"element": "Na", "occu": 1}], "abc": [0.17146095, 0.55664628, 0.94536062], "xyz": [1.2009299838550802, 5.580465793819681, 38.48213915075003], "label": "Na", "properties": {}}, {"species": [{"element": "Na", "occu": 1}], "abc": [0.53495068, 0.74976985, 0.99498084], "xyz": [3.7475538076927, 7.5165597103466, 40.50199503466746], "label": "Na", "properties": {}}, {"species": [{"element": "Na", "occu": 1}], "abc": [0.53274676, 0.31429175, 0.99878722], "xyz": [3.7324231498897, 3.150823823263, 40.656938705602926], "label": "Na", "properties": {}}, {"species": [{"element": "P", "occu": 1}], "abc": [0.90019294, 0.06025601, 0.06627876], "xyz": [6.30708679588366, 0.6040759001875601, 2.69796351899994], "label": "P", "properties": {}}, {"species": [{"element": "P", "occu": 1}], "abc": [0.40572641, 0.56465129, 0.06344465], "xyz": [2.84228647253114, 5.660717267851241, 2.582597368685225], "label": "P", "properties": {}}, {"species": [{"element": "P", "occu": 1}], "abc": [0.89564977, 0.57513681, 0.18848606], "xyz": [6.27488781384106, 5.765836241592361, 7.67257132933739], "label": "P", "properties": {}}, {"species": [{"element": "P", "occu": 1}], "abc": [0.39525341, 0.08087647, 0.18776691], "xyz": [2.7692536510926207, 0.8107992284793202, 7.643297389017914], "label": "P", "properties": {}}, {"species": [{"element": "P", "occu": 1}], "abc": [0.89601526, 0.08273653, 0.31224098], "xyz": [6.27780016408678, 0.8294466201486801, 12.710177033740369], "label": "P", "properties": {}}, {"species": [{"element": "P", "occu": 1}], "abc": [0.39519885, 0.57972137, 0.31154069], "xyz": [2.76851520555882, 5.811797170783721, 12.681670814361484], "label": "P", "properties": {}}, {"species": [{"element": "P", "occu": 1}], "abc": [0.90300824, 0.57709348, 0.43647701], "xyz": [6.326442948156081, 5.785452163582881, 17.767366949263565], "label": "P", "properties": {}}, {"species": [{"element": "P", "occu": 1}], "abc": [0.40037419, 0.07222656, 0.43380504], "xyz": [2.80513816253596, 0.72408253134336, 17.65860091948476], "label": "P", "properties": {}}, {"species": [{"element": "P", "occu": 1}], "abc": [0.1738912, 0.54083508, 0.56613748], "xyz": [1.2179686252568802, 5.421956047272481, 23.045365782017615], "label": "P", "properties": {}}, {"species": [{"element": "P", "occu": 1}], "abc": [0.66926052, 0.03566989, 0.56380402], "xyz": [4.689094824236941, 0.35759621175284007, 22.950379244052126], "label": "P", "properties": {}}, {"species": [{"element": "P", "occu": 1}], "abc": [0.18023479, 0.02549998, 0.68834609], "xyz": [1.2627824303660802, 0.25564127749688, 28.020026917616583], "label": "P", "properties": {}}, {"species": [{"element": "P", "occu": 1}], "abc": [0.68081488, 0.51962231, 0.68785949], "xyz": [4.7697039812002595, 5.20929471883036, 28.000219228873682], "label": "P", "properties": {}}, {"species": [{"element": "P", "occu": 1}], "abc": [0.18067864, 0.51501141, 0.81220497], "xyz": [1.26554271872206, 5.16306972702996, 33.0618644496433], "label": "P", "properties": {}}, {"species": [{"element": "P", "occu": 1}], "abc": [0.68053308, 0.0184872, 0.81135493], "xyz": [4.7680873825128005, 0.1853370640032, 33.02726246086604], "label": "P", "properties": {}}, {"species": [{"element": "P", "occu": 1}], "abc": [0.16986572, 0.02406639, 0.93669665], "xyz": [1.19013339451994, 0.24126931410684002, 38.12946093242322], "label": "P", "properties": {}}, {"species": [{"element": "P", "occu": 1}], "abc": [0.67345631, 0.52758147, 0.93352431], "xyz": [4.71814106634062, 5.28908653945932, 38.000326688061016], "label": "P", "properties": {}}, {"species": [{"element": "S", "occu": 1}], "abc": [0.05758939, 0.88670232, 0.07211756], "xyz": [0.40286234842732, 8.889329083561922, 2.9356395013921395], "label": "S", "properties": {}}, {"species": [{"element": "S", "occu": 1}], "abc": [0.59182839, 0.40605503, 0.06295786], "xyz": [4.14630834497238, 4.07076502033468, 2.56278194574409], "label": "S", "properties": {}}, {"species": [{"element": "S", "occu": 1}], "abc": [0.0849587, 0.22068604, 0.06700994], "xyz": [0.59509876502144, 2.21241197802224, 2.72772715618661], "label": "S", "properties": {}}, {"species": [{"element": "S", "occu": 1}], "abc": [0.55781768, 0.74103106, 0.063282], "xyz": [3.90777585332876, 7.42895197734536, 2.575976487933], "label": "S", "properties": {}}, {"species": [{"element": "S", "occu": 1}], "abc": [0.76287561, 0.05554325, 0.02121598], "xyz": [5.3449872735357005, 0.5568297459970001, 0.8636241845778699], "label": "S", "properties": {}}, {"species": [{"element": "S", "occu": 1}], "abc": [0.22867149, 0.55924052, 0.0220519], "xyz": [1.6017692032345203, 5.606473454521121, 0.8976514003073499], "label": "S", "properties": {}}, {"species": [{"element": "S", "occu": 1}], "abc": [0.05238503, 0.40055597, 0.19167931], "xyz": [0.36674552493002, 4.0156360859813205, 7.802556742568514], "label": "S", "properties": {}}, {"species": [{"element": "S", "occu": 1}], "abc": [0.57463394, 0.91732841, 0.1860452], "xyz": [4.0254717574100605, 9.19636041348196, 7.5732129340537995], "label": "S", "properties": {}}, {"species": [{"element": "S", "occu": 1}], "abc": [0.07927147, 0.73631578, 0.19111475], "xyz": [0.55488348337048, 7.381680559761681, 7.779575590170874], "label": "S", "properties": {}}, {"species": [{"element": "S", "occu": 1}], "abc": [0.24058912, 0.55626289, 0.10550466], "xyz": [1.6852712504469398, 5.57662224926084, 4.294705027138289], "label": "S", "properties": {}}, {"species": [{"element": "S", "occu": 1}], "abc": [0.70439589, 0.07409345, 0.10390924], "xyz": [4.9352405488905005, 0.7427983948282001, 4.229761371622059], "label": "S", "properties": {}}, {"species": [{"element": "S", "occu": 1}], "abc": [0.55478004, 0.25365599, 0.18328707], "xyz": [3.8868408574799402, 2.5429408700844403, 7.460939648906955], "label": "S", "properties": {}}, {"species": [{"element": "S", "occu": 1}], "abc": [0.7511022, 0.58097448, 0.14431057], "xyz": [5.26212266034528, 5.82435979401888, 5.874350293609704], "label": "S", "properties": {}}, {"species": [{"element": "S", "occu": 1}], "abc": [0.20040121, 0.07122246, 0.14967706], "xyz": [1.40404419293176, 0.7140162722037601, 6.092800280378889], "label": "S", "properties": {}}, {"species": [{"element": "S", "occu": 1}], "abc": [0.06610956, 0.9144043, 0.31459298], "xyz": [0.462538458705, 9.1670457545708, 12.80591826662837], "label": "S", "properties": {}}, {"species": [{"element": "S", "occu": 1}], "abc": [0.55998744, 0.40872896, 0.30861973], "xyz": [3.92321536688736, 4.09757158571776, 12.562769321327243], "label": "S", "properties": {}}, {"species": [{"element": "S", "occu": 1}], "abc": [0.06381173, 0.25150759, 0.31635348], "xyz": [0.44691220488734, 2.5214028249340403, 12.87758171922162], "label": "S", "properties": {}}, {"species": [{"element": "S", "occu": 1}], "abc": [0.25026618, 0.07976141, 0.23193822], "xyz": [1.7534130192288602, 0.7996205780299601, 9.44134827238443], "label": "S", "properties": {}}, {"species": [{"element": "S", "occu": 1}], "abc": [0.70133955, 0.58159717, 0.22680225], "xyz": [4.913464189531621, 5.8306023584085205, 9.232281903389625], "label": "S", "properties": {}}, {"species": [{"element": "S", "occu": 1}], "abc": [0.56991852, 0.74539649, 0.30826882], "xyz": [3.99255630380454, 7.472716094102441, 12.54848507131333], "label": "S", "properties": {}}, {"species": [{"element": "S", "occu": 1}], "abc": [0.75203219, 0.08422055, 0.26794508], "xyz": [5.2689932431871, 0.8443241521558001, 10.907054551647018], "label": "S", "properties": {}}, {"species": [{"element": "S", "occu": 1}], "abc": [0.19927331, 0.5808123, 0.27335538], "xyz": [1.3957778046680003, 5.8227339142188, 11.127287881703968], "label": "S", "properties": {}}, {"species": [{"element": "S", "occu": 1}], "abc": [0.08167161, 0.41435645, 0.43688942], "xyz": [0.5719297512309001, 4.1539880508562, 17.784154637127227], "label": "S", "properties": {}}, {"species": [{"element": "S", "occu": 1}], "abc": [0.55868877, 0.8989621, 0.42856325], "xyz": [3.913766312964, 9.0122352905876, 17.445227009136122], "label": "S", "properties": {}}, {"species": [{"element": "S", "occu": 1}], "abc": [0.06264496, 0.75047258, 0.4366634], "xyz": [0.43838106322108, 7.5236046882224805, 17.774954197732097], "label": "S", "properties": {}}, {"species": [{"element": "S", "occu": 1}], "abc": [0.25139344, 0.58239858, 0.35578938], "xyz": [1.7609521932986802, 5.83863661867848, 14.482871551724969], "label": "S", "properties": {}}, {"species": [{"element": "S", "occu": 1}], "abc": [0.69909971, 0.07869172, 0.35011942], "xyz": [4.89813000425012, 0.7888967689083202, 14.25206842212223], "label": "S", "properties": {}}, {"species": [{"element": "S", "occu": 1}], "abc": [0.58258804, 0.23388073, 0.43232652], "xyz": [4.08168950437558, 2.3446908036438803, 17.598415831198377], "label": "S", "properties": {}}, {"species": [{"element": "S", "occu": 1}], "abc": [0.73808541, 0.57161584, 0.39438244], "xyz": [5.1709282446224405, 5.73053796807104, 16.05385248085786], "label": "S", "properties": {}}, {"species": [{"element": "S", "occu": 1}], "abc": [0.20282391, 0.08233871, 0.39631749], "xyz": [1.42101070966326, 0.8254584125887601, 16.132621219250684], "label": "S", "properties": {}}, {"species": [{"element": "S", "occu": 1}], "abc": [0.26504983, 0.06888378, 0.47910614], "xyz": [1.85700124688968, 0.6905706403696801, 19.50264138087191], "label": "S", "properties": {}}, {"species": [{"element": "S", "occu": 1}], "abc": [0.72608393, 0.5741862, 0.47786884], "xyz": [5.086838999883801, 5.7563062280472, 19.45227546783946], "label": "S", "properties": {}}, {"species": [{"element": "S", "occu": 1}], "abc": [0.01617206, 0.71415468, 0.57199574], "xyz": [0.11279833818367999, 7.159512075130081, 23.28383390913431], "label": "S", "properties": {}}, {"species": [{"element": "S", "occu": 1}], "abc": [0.48440077, 0.19499043, 0.56325147], "xyz": [3.39377601977638, 1.95480947925708, 22.927886974395552], "label": "S", "properties": {}}, {"species": [{"element": "S", "occu": 1}], "abc": [0.98968395, 0.38005908, 0.56696161], "xyz": [6.933870058775881, 3.81015156621648, 23.07891307039346], "label": "S", "properties": {}}, {"species": [{"element": "S", "occu": 1}], "abc": [0.51599976, 0.85970662, 0.56385991], "xyz": [3.6146972079325206, 8.618692979732721, 22.952654319522413], "label": "S", "properties": {}}, {"species": [{"element": "S", "occu": 1}], "abc": [0.31061425, 0.5454606, 0.52097953], "xyz": [2.1759044346166, 5.4683276068536, 21.20715242840594], "label": "S", "properties": {}}, {"species": [{"element": "S", "occu": 1}], "abc": [0.84543269, 0.04033233, 0.52233431], "xyz": [5.92342771058618, 0.40433790009348003, 21.26230051832601], "label": "S", "properties": {}}, {"species": [{"element": "S", "occu": 1}], "abc": [0.02301076, 0.19983078, 0.69170844], "xyz": [0.16108036990228, 2.0033347431016804, 28.156895767276858], "label": "S", "properties": {}}, {"species": [{"element": "S", "occu": 1}], "abc": [0.50134147, 0.68308917, 0.68606287], "xyz": [3.5121211765700195, 6.848075491160521, 27.927085464489654], "label": "S", "properties": {}}, {"species": [{"element": "S", "occu": 1}], "abc": [0.99719755, 0.86392901, 0.69093851], "xyz": [6.98616801295786, 8.66102309817556, 28.12555476071331], "label": "S", "properties": {}}, {"species": [{"element": "S", "occu": 1}], "abc": [0.83456506, 0.04419067, 0.60582871], "xyz": [5.847281775546819, 0.44301836049452004, 24.661049155759613], "label": "S", "properties": {}}, {"species": [{"element": "S", "occu": 1}], "abc": [0.37030795, 0.52663553, 0.60367419], "xyz": [2.5941570092705803, 5.27960334339268, 24.573346604279234], "label": "S", "properties": {}}, {"species": [{"element": "S", "occu": 1}], "abc": [0.52165763, 0.34678908, 0.68337871], "xyz": [3.65470484458148, 3.4766146260964805, 27.817823224834612], "label": "S", "properties": {}}, {"species": [{"element": "S", "occu": 1}], "abc": [0.32465227, 0.02013513, 0.6441855], "xyz": [2.27463578109058, 0.20185781933028002, 26.222412405855746], "label": "S", "properties": {}}, {"species": [{"element": "S", "occu": 1}], "abc": [0.87596855, 0.52916086, 0.64983213], "xyz": [6.13702574723696, 5.30492017059416, 26.45226585732784], "label": "S", "properties": {}}, {"species": [{"element": "S", "occu": 1}], "abc": [0.01071225, 0.68339066, 0.81457877], "xyz": [0.07456658171376, 6.851097975442961, 33.158493080013], "label": "S", "properties": {}}, {"species": [{"element": "S", "occu": 1}], "abc": [0.51535677, 0.18917542, 0.80835347], "xyz": [3.6106709092135203, 1.8965130968655202, 32.905084110158555], "label": "S", "properties": {}}, {"species": [{"element": "S", "occu": 1}], "abc": [0.01252702, 0.34644157, 0.81642373], "xyz": [0.08752220418742, 3.47313078413492, 33.23359458725324], "label": "S", "properties": {}}, {"species": [{"element": "S", "occu": 1}], "abc": [0.82598881, 0.52102631, 0.73200575], "xyz": [5.78685250537486, 5.223370037854361, 29.797250419262372], "label": "S", "properties": {}}, {"species": [{"element": "S", "occu": 1}], "abc": [0.37509236, 0.01840112, 0.72655848], "xyz": [2.62804147455152, 0.18447409857472002, 29.57551217705412], "label": "S", "properties": {}}, {"species": [{"element": "S", "occu": 1}], "abc": [0.50607021, 0.85255076, 0.80805603], "xyz": [3.54513171950556, 8.54695436691856, 32.892976426353194], "label": "S", "properties": {}}, {"species": [{"element": "S", "occu": 1}], "abc": [0.32406583, 0.51340352, 0.76786582], "xyz": [2.2701747425153203, 5.14695037894912, 31.256981419793828], "label": "S", "properties": {}}, {"species": [{"element": "S", "occu": 1}], "abc": [0.87715315, 0.01749723, 0.77329308], "xyz": [6.14569088020078, 0.17541246031788, 31.477905128809017], "label": "S", "properties": {}}, {"species": [{"element": "S", "occu": 1}], "abc": [0.99232322, 0.1871812, 0.9373119], "xyz": [6.9524996076956, 1.8765207302672, 38.154505487497346], "label": "S", "properties": {}}, {"species": [{"element": "S", "occu": 1}], "abc": [0.51380125, 0.70018018, 0.92811768], "xyz": [3.59940742537648, 7.019415532608081, 37.780242750148915], "label": "S", "properties": {}}, {"species": [{"element": "S", "occu": 1}], "abc": [0.00974727, 0.85094054, 0.93693447], "xyz": [0.06768589592784001, 8.53081166022424, 38.13914170623505], "label": "S", "properties": {}}, {"species": [{"element": "S", "occu": 1}], "abc": [0.82356378, 0.01615614, 0.85569094], "xyz": [5.77022220398364, 0.16196782385784, 34.83201767291311], "label": "S", "properties": {}}, {"species": [{"element": "S", "occu": 1}], "abc": [0.37773547, 0.51934235, 0.85003916], "xyz": [2.6462025412795, 5.2064880761566, 34.60195458396254], "label": "S", "properties": {}}, {"species": [{"element": "S", "occu": 1}], "abc": [0.49328408, 0.36493321, 0.93189945], "xyz": [3.4558948814816604, 3.6585123598307603, 37.93418463888142], "label": "S", "properties": {}}, {"species": [{"element": "S", "occu": 1}], "abc": [0.33328495, 0.02903482, 0.89441666], "xyz": [2.33511360851752, 0.29107859993192003, 36.40839870066629], "label": "S", "properties": {}}, {"species": [{"element": "S", "occu": 1}], "abc": [0.87254995, 0.51803631, 0.89626025], "xyz": [6.113081542753661, 5.193394821414361, 36.483444440266624], "label": "S", "properties": {}}, {"species": [{"element": "S", "occu": 1}], "abc": [0.80660338, 0.53176404, 0.97900053], "xyz": [5.6510223741750405, 5.33101745619024, 39.85149563784244], "label": "S", "properties": {}}, {"species": [{"element": "S", "occu": 1}], "abc": [0.34866726, 0.02612642, 0.97789941], "xyz": [2.4428906095453202, 0.26192143622152003, 39.806673109629166], "label": "S", "properties": {}}]}, "formula": "", "bandgap": 2.3568000000000002}