{"miller": "110_0.48", "final_energy": -526.44676045, "sigma": 0.0023354899546168782, "incar_parameters": {"SYSTEM": "unknown system", "LCOMPAT": false, "PREC": "normal", "ENMAX": 520.0, "ENAUG": 368.056, "EDIFF": 1e-05, "IALGO": 38, "IWAVPR": 11, "NBANDS": 480, "NBANDSLOW": -1, "NBANDSHIGH": -1, "NELECT": 800.0, "TURBO": 0, "IRESTART": 0, "NREBOOT": 0, "NMIN": 0, "EREF": 0.0, "ISMEAR": 0, "SIGMA": 0.05, "KSPACING": 0.5, "KGAMMA": true, "KBLOWUP": true, "LREAL": true, "ROPT": [-0.0005, -0.0005, -0.0005], "LMAXPAW": -100, "LMAXMIX": 2, "NLSPLINE": false, "ISTART": 0, "ICHARG": 2, "INIWAV": 1, "ISPIN": 1, "LNONCOLLINEAR": false, "MAGMOM": [0.6, 0.6, 0.6, 0.6, 0.6, 0.6, 0.6, 0.6, 0.6, 0.6, 0.6, 0.6, 0.6, 0.6, 0.6, 0.6, 0.6, 0.6, 0.6, 0.6, 0.6, 0.6, 0.6, 0.6, 0.6, 0.6, 0.6, 0.6, 0.6, 0.6, 0.6, 0.6, 0.6, 0.6, 0.6, 0.6, 0.6, 0.6, 0.6, 0.6, 0.6, 0.6, 0.6, 0.6, 0.6, 0.6, 0.6, 0.6, 0.6, 0.6, 0.6, 0.6, 0.6, 0.6, 0.6, 0.6, 0.6, 0.6, 0.6, 0.6, 0.6, 0.6, 0.6, 0.6, 0.6, 0.6, 0.6, 0.6, 0.6, 0.6, 0.6, 0.6, 0.6, 0.6, 0.6, 0.6, 0.6, 0.6, 0.6, 0.6, 0.6, 0.6, 0.6, 0.6, 0.6, 0.6, 0.6, 0.6, 0.6, 0.6, 0.6, 0.6, 0.6, 0.6, 0.6, 0.6, 0.6, 0.6, 0.6, 0.6, 0.6, 0.6, 0.6, 0.6, 0.6, 0.6, 0.6, 0.6, 0.6, 0.6, 0.6, 0.6, 0.6, 0.6, 0.6, 0.6, 0.6, 0.6, 0.6, 0.6, 0.6, 0.6, 0.6, 0.6, 0.6, 0.6, 0.6, 0.6], "NUPDOWN": -1.0, "LSORBIT": false, "SAXIS": [0.0, 0.0, 1.0], "LSPIRAL": false, "QSPIRAL": [0.0, 0.0, 0.0], "LZEROZ": false, "LASPH": false, "LMETAGGA": false, "NELM": 100, "NELMDL": -5, "NELMIN": 6, "ENINI": 520.0, "LDIAG": true, "LSUBROT": false, "WEIMIN": 0.001, "EBREAK": 1e-08, "DEPER": 0.3, "NRMM": 4, "TIME": 0.4, "AMIX": 0.4, "BMIX": 1.0, "AMIN": 0.1, "AMIX_MAG": 1.6, "BMIX_MAG": 1.0, "IMIX": 4, "MIXFIRST": false, "MAXMIX": -45, "WC": 100.0, "INIMIX": 1, "MIXPRE": 1, "MREMOVE": 5, "LDIPOL": false, "LMONO": false, "IDIPOL": 0, "EPSILON": 1.0, "DIPOL": [-100.0, -100.0, -100.0], "EFIELD": 0.0, "NGX": 40, "NGY": 56, "NGZ": 240, "NGXF": 80, "NGYF": 112, "NGZF": 480, "ADDGRID": false, "NSW": 150, "IBRION": 2, "MDALGO": 0, "ISIF": 3, "PSTRESS": 0.0, "EDIFFG": -0.01, "NFREE": 1, "POTIM": 0.5, "SMASS": -3.0, "SCALEE": 1.0, "TEBEG": 0.0001, "TEEND": 0.0001, "NBLOCK": 1, "KBLOCK": 150, "NPACO": 256, "APACO": 10.0, "ISYM": 0, "SYMPREC": 1e-05, "LORBIT": 11, "RWIGS": [-1.0, -1.0, -1.0], "NEDOS": 301, "EMIN": 10.0, "EMAX": -10.0, "EFERMI": 0.0, "NWRITE": 2, "LWAVE": false, "LDOWNSAMPLE": false, "LCHARG": false, "LPARD": false, "LVTOT": false, "LVHAR": false, "LELF": false, "LOPTICS": false, "STM": [0.0, 0.0, 0.0, 0.0, 0.0, 0.0, 0.0], "NPAR": 1, "NSIM": 4, "NBLK": -1, "LPLANE": true, "LSCALAPACK": true, "LSCAAWARE": false, "LSCALU": false, "LASYNC": false, "LORBITALREAL": false, "IDIOT": 3, "PHON_NSTRUCT": -1, "LMUSIC": false, "POMASS": [22.99, 30.974, 32.066], "DARWINR": [0.0, 0.0, 0.0], "DARWINV": [1.0, 1.0, 1.0], "LCORR": true, "GGA_COMPAT": true, "LBERRY": false, "ICORELEVEL": 0, "LDAU": false, "I_CONSTRAINED_M": 0, "GGA": "--", "VOSKOWN": 0, "LHFCALC": false, "PRECFOCK": "", "LSYMGRAD": false, "LHFONE": false, "LRHFCALC": false, "LTHOMAS": false, "LMODELHF": false, "LFOCKACE": false, "ENCUT4O": -1.0, "EXXOEP": 0, "FOURORBIT": 0, "AEXX": 0.0, "HFALPHA": 0.0, "MCALPHA": 0.0, "ALDAX": 1.0, "AGGAX": 1.0, "ALDAC": 1.0, "AGGAC": 1.0, "NKREDX": 1, "NKREDY": 1, "NKREDZ": 1, "SHIFTRED": false, "ODDONLY": false, "EVENONLY": false, "LMAXFOCK": 0, "NMAXFOCKAE": 0, "LFOCKAEDFT": false, "HFSCREEN": 0.0, "HFSCREENC": 0.0, "NBANDSGWLOW": 0, "LUSE_VDW": false, "Zab_VDW": -0.8491, "PARAM1": 0.1234, "PARAM2": 1.0, "PARAM3": 0.0, "MODEL_GW": 0, "MODEL_EPS0": 13.43142052, "MODEL_ALPHA": 1.0, "LEPSILON": false, "LRPA": false, "LNABLA": false, "LVEL": false, "CSHIFT": 0.1, "OMEGAMAX": -1.0, "DEG_THRESHOLD": 0.002, "RTIME": -0.1, "WPLASMAI": 0.0, "DFIELD": [0.0, 0.0, 0.0], "WPLASMA": [0.0, 0.0, 0.0, 0.0, 0.0, 0.0, 0.0, 0.0, 0.0], "NUCIND": false, "MAGPOS": [0.0, 0.0, 0.0], "LNICSALL": true, "ORBITALMAG": false, "LMAGBLOCH": false, "LCHIMAG": false, "LGAUGE": true, "MAGATOM": 0, "MAGDIPOL": [0.0, 0.0, 0.0], "AVECCONST": [0.0, 0.0, 0.0], "LFINITE_TEMPERATURE": false, "LADDER": false, "LRPAFORCE": false, "LFXC": false, "LHARTREE": true, "IBSE": 0, "KPOINT": [-1, 0, 0, 0], "LTCTC": false, "LTCTE": false, "LTETE": false, "LTRIPLET": false, "LFXCEPS": false, "LFXHEG": false, "NATURALO": 2, "LHOLEGF": false, "L2ORDER": false, "LDMP1": false, "LMP2LT": false, "LSMP2LT": false, "LGWLF": false, "ENCUTGW": -2.0, "ENCUTGWSOFT": -2.0, "ENCUTLF": -1.0, "LESF_SPLINES": false, "LMAXMP2": -1, "SCISSOR": 0.0, "NOMEGA": 0, "NOMEGAR": 0, "NBANDSGW": -1, "NBANDSO": -1, "NBANDSV": -1, "NELMGW": 1, "NELMHF": 1, "DIM": 3, "IESPILON": 4, "ANTIRES": 0, "OMEGAMIN": -30.0, "OMEGATL": -200.0, "OMEGAGRID": 0, "LSELFENERGY": false, "LSPECTRAL": false, "LSPECTRALGW": false, "LSINGLES": false, "LFERMIGW": false, "ODDONLYGW": false, "EVENONLYGW": false, "NKREDLFX": 1, "NKREDLFY": 1, "NKREDLFZ": 1, "MAXMEM": 2800, "TELESCOPE": 0, "NTAUPAR": -1, "NOMEGAPAR": -1, "DAMP_NEWTON": 0.80000001, "LAMBDA": 1.0, "OFIELD_KAPPA": 0.0, "OFIELD_K": [0.0, 0.0, 0.0], "OFIELD_Q6_NEAR": 0.0, "OFIELD_Q6_FAR": 0.0, "OFIELD_A": 0.0, "KPOINTS_OPT_MODE": 1, "LKPOINTS_OPT": false, "@module": "pymatgen.io.vasp.inputs", "@class": "Incar"}, "relaxed_structures": {"@module": "pymatgen.core.structure", "@class": "Structure", "charge": 0, "lattice": {"matrix": [[7.169815, 0.0, 0.0], [0.0, 9.908452, 0.0], [0.0, 0.0, 40.3335925]], "a": 7.169815, "b": 9.908452, "c": 40.3335925, "alpha": 90.0, "beta": 90.0, "gamma": 90.0, "volume": 2865.369711972142}, "sites": [{"species": [{"element": "Na", "occu": 1}], "abc": [0.98514686, 0.10899941, 0.99969476], "xyz": [7.063320734030899, 1.08001542201332, 40.321281074225304], "label": "Na", "properties": {}}, {"species": [{"element": "Na", "occu": 1}], "abc": [0.98251414, 0.67016233, 0.00170499], "xyz": [7.0444446186841, 6.64027127901316, 0.068768371876575], "label": "Na", "properties": {}}, {"species": [{"element": "Na", "occu": 1}], "abc": [0.72614972, 0.63821434, 0.1275982], "xyz": [5.2063591547018, 6.32371615360168, 5.1464938025335], "label": "Na", "properties": {}}, {"species": [{"element": "Na", "occu": 1}], "abc": [0.22608869, 0.64117246, 0.12777739], "xyz": [1.62101408089235, 6.353026543631921, 5.153721178973575], "label": "Na", "properties": {}}, {"species": [{"element": "Na", "occu": 1}], "abc": [0.12949007, 0.40879348, 0.06392701], "xyz": [0.9284198462370501, 4.05051057449296, 2.5784059710834253], "label": "Na", "properties": {}}, {"species": [{"element": "Na", "occu": 1}], "abc": [0.62352894, 0.85704521, 0.06182977], "xyz": [4.4705871469461, 8.49199132511492, 2.493816747548725], "label": "Na", "properties": {}}, {"species": [{"element": "Na", "occu": 1}], "abc": [0.57486888, 0.1308414, 0.12567014], "xyz": [4.1217035188572, 1.2964357315128001, 5.06872821617795], "label": "Na", "properties": {}}, {"species": [{"element": "Na", "occu": 1}], "abc": [0.07207817, 0.14271176, 0.12637623], "xyz": [0.51678714443855, 1.41405262379552, 5.097207362506276], "label": "Na", "properties": {}}, {"species": [{"element": "Na", "occu": 1}], "abc": [0.7285226, 0.14052786, 0.25000615], "xyz": [5.223372265319, 1.3924135554727202, 10.083646176593875], "label": "Na", "properties": {}}, {"species": [{"element": "Na", "occu": 1}], "abc": [0.22850478, 0.14057426, 0.25000353], "xyz": [1.6383369992157, 1.3928733076455202, 10.083540502581524], "label": "Na", "properties": {}}, {"species": [{"element": "Na", "occu": 1}], "abc": [0.13934036, 0.89111728, 0.19053044], "xyz": [0.9990446032333999, 8.82959279525056, 7.6847771258057005], "label": "Na", "properties": {}}, {"species": [{"element": "Na", "occu": 1}], "abc": [0.63821126, 0.38673666, 0.18918484], "xyz": [4.575856665116899, 3.8319616322503203, 7.6305042437377], "label": "Na", "properties": {}}, {"species": [{"element": "Na", "occu": 1}], "abc": [0.54915306, 0.63875718, 0.24995304], "xyz": [3.9373258468839, 6.3290948576853605, 10.0815040594962], "label": "Na", "properties": {}}, {"species": [{"element": "Na", "occu": 1}], "abc": [0.04909581, 0.638804, 0.25004562], "xyz": [0.35200787497514996, 6.329558771408001, 10.085238143489851], "label": "Na", "properties": {}}, {"species": [{"element": "Na", "occu": 1}], "abc": [0.72641205, 0.64112637, 0.37221336], "xyz": [5.20824001227075, 6.35256986307924, 15.0127019852958], "label": "Na", "properties": {}}, {"species": [{"element": "Na", "occu": 1}], "abc": [0.22640736, 0.63803046, 0.37239142], "xyz": [1.6232988858383999, 6.32189418744792, 15.019883784776349], "label": "Na", "properties": {}}, {"species": [{"element": "Na", "occu": 1}], "abc": [0.13836796, 0.38679055, 0.31079883], "xyz": [0.9920726751274, 3.8324955987286002, 12.535633358696776], "label": "Na", "properties": {}}, {"species": [{"element": "Na", "occu": 1}], "abc": [0.63924634, 0.89109043, 0.30947123], "xyz": [4.5832779972271, 8.82932675331436, 12.482086481293775], "label": "Na", "properties": {}}, {"species": [{"element": "Na", "occu": 1}], "abc": [0.57226627, 0.14262619, 0.37364203], "xyz": [4.10304328664005, 1.41320475755788, 15.070325378892775], "label": "Na", "properties": {}}, {"species": [{"element": "Na", "occu": 1}], "abc": [0.07481318, 0.1309912, 0.37433796], "xyz": [0.5363966601617001, 1.2979200176224002, 15.098394735921302], "label": "Na", "properties": {}}, {"species": [{"element": "Na", "occu": 1}], "abc": [0.48628817, 0.10865146, 0.50035479], "xyz": [3.48659621558855, 1.0765677761399202, 20.18110620528308], "label": "Na", "properties": {}}, {"species": [{"element": "Na", "occu": 1}], "abc": [0.12402349, 0.85688599, 0.43808123], "xyz": [0.88922547895435, 8.49041370138748, 17.669389812718777], "label": "Na", "properties": {}}, {"species": [{"element": "Na", "occu": 1}], "abc": [0.62964519, 0.40895967, 0.43606331], "xyz": [4.5144395279398495, 4.05215726013084, 17.587999849741173], "label": "Na", "properties": {}}, {"species": [{"element": "Na", "occu": 1}], "abc": [0.48306193, 0.67010465, 0.49829915], "xyz": [3.46346467164295, 6.6396997595018, 20.098194859196376], "label": "Na", "properties": {}}, {"species": [{"element": "Na", "occu": 1}], "abc": [0.9747053, 0.14051837, 0.50004818], "xyz": [6.9884566805195, 1.39231952426324, 20.16873952248665], "label": "Na", "properties": {}}, {"species": [{"element": "Na", "occu": 1}], "abc": [0.99265738, 0.57982764, 0.50161298], "xyz": [7.1171697729847, 5.74519433921328, 20.23185352803065], "label": "Na", "properties": {}}, {"species": [{"element": "Na", "occu": 1}], "abc": [0.249069, 0.61200886, 0.62764392], "xyz": [1.785778652235, 6.06406041288472, 25.3151341043826], "label": "Na", "properties": {}}, {"species": [{"element": "Na", "occu": 1}], "abc": [0.7489963, 0.60879652, 0.62780461], "xyz": [5.3701649066845, 6.03223109618704, 25.321615309361427], "label": "Na", "properties": {}}, {"species": [{"element": "Na", "occu": 1}], "abc": [0.84658797, 0.84023174, 0.56393398], "xyz": [6.069879126125549, 8.325395864666481, 22.74548334622315], "label": "Na", "properties": {}}, {"species": [{"element": "Na", "occu": 1}], "abc": [0.35142682, 0.39369922, 0.56190162], "xyz": [2.5196652854383, 3.9009498238074403, 22.663510966169852], "label": "Na", "properties": {}}, {"species": [{"element": "Na", "occu": 1}], "abc": [0.40070668, 0.11915835, 0.62571905], "xyz": [2.8729927648642, 1.1806747913742, 25.237497182187127], "label": "Na", "properties": {}}, {"species": [{"element": "Na", "occu": 1}], "abc": [0.90341071, 0.10706543, 0.62631265], "xyz": [6.477287659718649, 1.06085267401436, 25.261439202695126], "label": "Na", "properties": {}}, {"species": [{"element": "Na", "occu": 1}], "abc": [0.24710933, 0.10946116, 0.75001103], "xyz": [1.7717281808739498, 1.08459064972432, 30.25063925452528], "label": "Na", "properties": {}}, {"species": [{"element": "Na", "occu": 1}], "abc": [0.74709772, 0.1094044, 0.75000861], "xyz": [5.3565524393218, 1.0840282459888, 30.250541647231426], "label": "Na", "properties": {}}, {"species": [{"element": "Na", "occu": 1}], "abc": [0.83611242, 0.3589249, 0.69048009], "xyz": [5.9947713706023, 3.5563901432548, 27.849542579423325], "label": "Na", "properties": {}}, {"species": [{"element": "Na", "occu": 1}], "abc": [0.33711832, 0.86314692, 0.68922894], "xyz": [2.4170759875108003, 8.552449825767841, 27.79907920516695], "label": "Na", "properties": {}}, {"species": [{"element": "Na", "occu": 1}], "abc": [0.42610638, 0.61105618, 0.74996339], "xyz": [3.0551039149197, 6.05462082883336, 30.248717762178575], "label": "Na", "properties": {}}, {"species": [{"element": "Na", "occu": 1}], "abc": [0.92615404, 0.61108733, 0.75003878], "xyz": [6.6403531283026, 6.054929477113161, 30.251758511717153], "label": "Na", "properties": {}}, {"species": [{"element": "Na", "occu": 1}], "abc": [0.24889223, 0.60880336, 0.87217845], "xyz": [1.78451124403745, 6.03229886999872, 35.17809018958163], "label": "Na", "properties": {}}, {"species": [{"element": "Na", "occu": 1}], "abc": [0.74891551, 0.61208771, 0.87235907], "xyz": [5.36958565733065, 6.06484169432492, 35.18537524305898], "label": "Na", "properties": {}}, {"species": [{"element": "Na", "occu": 1}], "abc": [0.8369474, 0.86320025, 0.81078401], "xyz": [6.000758022731, 8.552978243513001, 32.701831864855926], "label": "Na", "properties": {}}, {"species": [{"element": "Na", "occu": 1}], "abc": [0.33612652, 0.35887047, 0.8095541], "xyz": [2.4099649649938, 3.55585082621244, 32.65222517610425], "label": "Na", "properties": {}}, {"species": [{"element": "Na", "occu": 1}], "abc": [0.40360433, 0.10710182, 0.87369417], "xyz": [2.89376837929895, 1.0612132425826402, 35.23922462240573], "label": "Na", "properties": {}}, {"species": [{"element": "Na", "occu": 1}], "abc": [0.90099557, 0.11909694, 0.87428537], "xyz": [6.45997155271955, 1.18006631333688, 35.26306984229173], "label": "Na", "properties": {}}, {"species": [{"element": "Na", "occu": 1}], "abc": [0.47358586, 0.14018128, 0.99991702], "xyz": [3.3955230028159002, 1.3889794841785599, 40.33024561849435], "label": "Na", "properties": {}}, {"species": [{"element": "Na", "occu": 1}], "abc": [0.85140336, 0.39365284, 0.9380535], "xyz": [6.1044045815784, 3.9004902698036803, 37.83506761219875], "label": "Na", "properties": {}}, {"species": [{"element": "Na", "occu": 1}], "abc": [0.34615557, 0.84032009, 0.93599211], "xyz": [2.48187139811955, 8.32627127640068, 37.75192434795518], "label": "Na", "properties": {}}, {"species": [{"element": "Na", "occu": 1}], "abc": [0.49214293, 0.5797455, 0.99836832], "xyz": [3.52857376165795, 5.744380458966001, 40.2677809837896], "label": "Na", "properties": {}}, {"species": [{"element": "P", "occu": 1}], "abc": [0.63088508, 0.38838396, 0.06481438], "xyz": [4.5233293098602, 3.84828382522992, 2.6141967910601505], "label": "P", "properties": {}}, {"species": [{"element": "P", "occu": 1}], "abc": [0.12527239, 0.8851747, 0.06572587], "xyz": [0.8981798609078501, 8.7707110265644, 2.6509604572879755], "label": "P", "properties": {}}, {"species": [{"element": "P", "occu": 1}], "abc": [0.64029466, 0.88900372, 0.18890218], "xyz": [4.5907942576879, 8.80865068744144, 7.6191035504816504], "label": "P", "properties": {}}, {"species": [{"element": "P", "occu": 1}], "abc": [0.13952734, 0.39050531, 0.18843284], "xyz": [1.0003852152421, 3.86930311988012, 7.6001733821777], "label": "P", "properties": {}}, {"species": [{"element": "P", "occu": 1}], "abc": [0.63975555, 0.3904488, 0.311555], "xyz": [4.58692893872325, 3.8687431932576, 12.566132411337502], "label": "P", "properties": {}}, {"species": [{"element": "P", "occu": 1}], "abc": [0.14027468, 0.8890226, 0.31113513], "xyz": [1.0057435047842, 8.8088377590152, 12.549197545854526], "label": "P", "properties": {}}, {"species": [{"element": "P", "occu": 1}], "abc": [0.62575423, 0.88500815, 0.43429006], "xyz": [4.48654206456745, 8.769060773883801, 17.51647830684055], "label": "P", "properties": {}}, {"species": [{"element": "P", "occu": 1}], "abc": [0.13102905, 0.3884166, 0.43516164], "xyz": [0.9394540481257501, 3.8486072371032, 17.551632259391702], "label": "P", "properties": {}}, {"species": [{"element": "P", "occu": 1}], "abc": [0.34523121, 0.86179858, 0.56489629], "xyz": [2.47524390792615, 8.53908986359816, 22.784296765621825], "label": "P", "properties": {}}, {"species": [{"element": "P", "occu": 1}], "abc": [0.84974943, 0.36502245, 0.56572671], "xyz": [6.09254620945545, 3.6168074247474, 22.817790587505673], "label": "P", "properties": {}}, {"species": [{"element": "P", "occu": 1}], "abc": [0.33516288, 0.36097484, 0.68889788], "xyz": [2.4030558444672, 3.5767018753476805, 27.7857263660339], "label": "P", "properties": {}}, {"species": [{"element": "P", "occu": 1}], "abc": [0.8357155, 0.85936601, 0.68845851], "xyz": [5.9919255276325, 8.51498686051652, 27.768004995497176], "label": "P", "properties": {}}, {"species": [{"element": "P", "occu": 1}], "abc": [0.33568455, 0.85941879, 0.81154966], "xyz": [2.40679612185825, 8.51550982861308, 32.73271327995355], "label": "P", "properties": {}}, {"species": [{"element": "P", "occu": 1}], "abc": [0.8350803, 0.36103631, 0.81113063], "xyz": [5.9873712611445, 3.5773109478921206, 32.71581229468828], "label": "P", "properties": {}}, {"species": [{"element": "P", "occu": 1}], "abc": [0.34967727, 0.36496736, 0.93424077], "xyz": [2.5071213356050497, 3.6162615681267205, 37.68128651406623], "label": "P", "properties": {}}, {"species": [{"element": "P", "occu": 1}], "abc": [0.84496142, 0.86194813, 0.93510353], "xyz": [6.0582170635373, 8.54057167259476, 37.71608472433153], "label": "P", "properties": {}}, {"species": [{"element": "S", "occu": 1}], "abc": [0.7885012, 0.39066966, 0.02139327], "xyz": [5.653407731278, 3.87093157396632, 0.862867434422475], "label": "S", "properties": {}}, {"species": [{"element": "S", "occu": 1}], "abc": [0.27429296, 0.88043521, 0.02149717], "xyz": [1.9666297790023999, 8.72375001739492, 0.867058094683225], "label": "S", "properties": {}}, {"species": [{"element": "S", "occu": 1}], "abc": [0.44639425, 0.2296811, 0.06415665], "xyz": [3.20056418956375, 2.2757841546572, 2.587668177265125], "label": "S", "properties": {}}, {"species": [{"element": "S", "occu": 1}], "abc": [0.93624744, 0.04108439, 0.06496689], "xyz": [6.7127209390236, 0.40708270626428, 2.620348067252325], "label": "S", "properties": {}}, {"species": [{"element": "S", "occu": 1}], "abc": [0.8099242, 0.90640747, 0.14786014], "xyz": [5.807006678023, 8.98109490893644, 5.9637306337529505], "label": "S", "properties": {}}, {"species": [{"element": "S", "occu": 1}], "abc": [0.30680653, 0.37181497, 0.1470222], "xyz": [2.19974606089195, 3.6841107831264406, 5.9299335032535], "label": "S", "properties": {}}, {"species": [{"element": "S", "occu": 1}], "abc": [0.47354955, 0.72009407, 0.18372882], "xyz": [3.3952626668332497, 7.135017528079641, 7.41044335638585], "label": "S", "properties": {}}, {"species": [{"element": "S", "occu": 1}], "abc": [0.97310771, 0.55960973, 0.18355328], "xyz": [6.97700225577365, 5.54486614843796, 7.4033631975584], "label": "S", "properties": {}}, {"species": [{"element": "S", "occu": 1}], "abc": [0.4800249, 0.5666863, 0.06805876], "xyz": [3.4416897283935, 5.6149840026076, 2.7450542918953], "label": "S", "properties": {}}, {"species": [{"element": "S", "occu": 1}], "abc": [0.9805526, 0.70493731, 0.07050357], "xyz": [7.030380739769, 6.98483749914412, 2.843662262175225], "label": "S", "properties": {}}, {"species": [{"element": "S", "occu": 1}], "abc": [0.8036673, 0.37161525, 0.10554437], "xyz": [5.7621458625495, 3.682131867093, 4.256983610249225], "label": "S", "properties": {}}, {"species": [{"element": "S", "occu": 1}], "abc": [0.30408029, 0.90659364, 0.10546381], "xyz": [2.1801994244463496, 8.98293956544528, 4.253734336037425], "label": "S", "properties": {}}, {"species": [{"element": "S", "occu": 1}], "abc": [0.8015319, 0.40984138, 0.26933118], "xyz": [5.7468354395985, 4.06089364134376, 10.863094061664151], "label": "S", "properties": {}}, {"species": [{"element": "S", "occu": 1}], "abc": [0.29960668, 0.86948517, 0.26860881], "xyz": [2.1481244683642, 8.61525207165684, 10.833958284449924], "label": "S", "properties": {}}, {"species": [{"element": "S", "occu": 1}], "abc": [0.47595576, 0.219425, 0.3073431], "xyz": [3.4125147473844, 2.1741620801000003, 12.39625135308675], "label": "S", "properties": {}}, {"species": [{"element": "S", "occu": 1}], "abc": [0.97704136, 0.0605487, 0.30736904], "xyz": [7.0052057985484, 0.5999438876124, 12.397297606476199], "label": "S", "properties": {}}, {"species": [{"element": "S", "occu": 1}], "abc": [0.47698218, 0.06053528, 0.19265904], "xyz": [3.4198739888966996, 0.59981091618656, 7.7706312108012], "label": "S", "properties": {}}, {"species": [{"element": "S", "occu": 1}], "abc": [0.97577856, 0.21946584, 0.19264916], "xyz": [6.9961517561664, 2.17456674127968, 7.7702327149073005], "label": "S", "properties": {}}, {"species": [{"element": "S", "occu": 1}], "abc": [0.7994629, 0.86943134, 0.23145678], "xyz": [5.732001092363499, 8.61471869968568, 9.33548344588215], "label": "S", "properties": {}}, {"species": [{"element": "S", "occu": 1}], "abc": [0.30137097, 0.40992206, 0.23065034], "xyz": [2.16077410127055, 4.06169305525112, 9.30295682354645], "label": "S", "properties": {}}, {"species": [{"element": "S", "occu": 1}], "abc": [0.80433183, 0.90647209, 0.39452303], "xyz": [5.76691041971145, 8.98173519310468, 15.912531123885275], "label": "S", "properties": {}}, {"species": [{"element": "S", "occu": 1}], "abc": [0.30386922, 0.3714932, 0.39443253], "xyz": [2.1786860915943, 3.6809225405264003, 15.908880933764026], "label": "S", "properties": {}}, {"species": [{"element": "S", "occu": 1}], "abc": [0.48118004, 0.70461997, 0.42952969], "xyz": [3.4499718684925997, 6.98169315098644, 17.324475483111325], "label": "S", "properties": {}}, {"species": [{"element": "S", "occu": 1}], "abc": [0.98031321, 0.56674752, 0.43192245], "xyz": [7.02866435775615, 5.61559059803904, 17.420984089901626], "label": "S", "properties": {}}, {"species": [{"element": "S", "occu": 1}], "abc": [0.47326195, 0.55961494, 0.31644404], "xyz": [3.3932006280392497, 5.54491777147288, 12.7633249584137], "label": "S", "properties": {}}, {"species": [{"element": "S", "occu": 1}], "abc": [0.97363983, 0.72000876, 0.31626403], "xyz": [6.98081745773145, 7.134172238039521, 12.756064508427775], "label": "S", "properties": {}}, {"species": [{"element": "S", "occu": 1}], "abc": [0.80708773, 0.37176543, 0.35295157], "xyz": [5.78666971286995, 3.6836199184143603, 14.235804796615225], "label": "S", "properties": {}}, {"species": [{"element": "S", "occu": 1}], "abc": [0.30970414, 0.9064294, 0.35220815], "xyz": [2.2205213885341, 8.981312201288802, 14.205819997278876], "label": "S", "properties": {}}, {"species": [{"element": "S", "occu": 1}], "abc": [0.43668562, 0.0409074, 0.43509249], "xyz": [3.1309551085603, 0.4053290093448, 17.548843191470326], "label": "S", "properties": {}}, {"species": [{"element": "S", "occu": 1}], "abc": [0.94628687, 0.22984372, 0.43582259], "xyz": [6.78470179482905, 2.27739546712144, 17.578290747354576], "label": "S", "properties": {}}, {"species": [{"element": "S", "occu": 1}], "abc": [0.77500284, 0.88033839, 0.47850756], "xyz": [5.5566269872745995, 8.722790681072281, 19.2999289332093], "label": "S", "properties": {}}, {"species": [{"element": "S", "occu": 1}], "abc": [0.28866655, 0.39055743, 0.47857407], "xyz": [2.06968576018825, 3.86981954839836, 19.302611520446476], "label": "S", "properties": {}}, {"species": [{"element": "S", "occu": 1}], "abc": [0.18805452, 0.86069733, 0.52143876], "xyz": [1.3483161183138, 8.52817818083316, 21.0314984595453], "label": "S", "properties": {}}, {"species": [{"element": "S", "occu": 1}], "abc": [0.70001032, 0.36936196, 0.521575], "xyz": [5.0189444924907995, 3.65980525128592, 21.0369935081875], "label": "S", "properties": {}}, {"species": [{"element": "S", "occu": 1}], "abc": [0.53091861, 0.01984212, 0.5643914], "xyz": [3.8065882137571494, 0.19660469359824, 22.7639327381045], "label": "S", "properties": {}}, {"species": [{"element": "S", "occu": 1}], "abc": [0.03926629, 0.20935003, 0.56486436], "xyz": [0.28153203503635, 2.07433472345356, 22.783008914013298], "label": "S", "properties": {}}, {"species": [{"element": "S", "occu": 1}], "abc": [0.16560425, 0.34347828, 0.64783276], "xyz": [1.18735183571375, 3.4033380504225605, 26.129422549990302], "label": "S", "properties": {}}, {"species": [{"element": "S", "occu": 1}], "abc": [0.6684816, 0.87811045, 0.64705406], "xyz": [4.792889402904, 8.7007152445234, 26.09801478151055], "label": "S", "properties": {}}, {"species": [{"element": "S", "occu": 1}], "abc": [0.50192422, 0.52992529, 0.68373255], "xyz": [3.5987038014193002, 5.25073929955108, 27.577390050685874], "label": "S", "properties": {}}, {"species": [{"element": "S", "occu": 1}], "abc": [0.00229197, 0.69030407, 0.68360857], "xyz": [0.016433000885549998, 6.839844742999641, 27.572389491887726], "label": "S", "properties": {}}, {"species": [{"element": "S", "occu": 1}], "abc": [0.49513551, 0.6831669, 0.56805874], "xyz": [3.55003000663065, 6.769126436638801, 22.911849735223452], "label": "S", "properties": {}}, {"species": [{"element": "S", "occu": 1}], "abc": [0.99414444, 0.54552123, 0.57046321], "xyz": [7.1278317180786, 5.40527092243596, 23.008830648381927], "label": "S", "properties": {}}, {"species": [{"element": "S", "occu": 1}], "abc": [0.17192517, 0.87867146, 0.60555654], "xyz": [1.23267166274355, 8.70627398517992, 24.424270720069952], "label": "S", "properties": {}}, {"species": [{"element": "S", "occu": 1}], "abc": [0.67148608, 0.34327531, 0.6055252], "xyz": [4.814430968675199, 3.4013269319201203, 24.423006665281], "label": "S", "properties": {}}, {"species": [{"element": "S", "occu": 1}], "abc": [0.17380124, 0.84002657, 0.76932593], "xyz": [1.2461227375705999, 8.32336294756964, 31.029678560303527], "label": "S", "properties": {}}, {"species": [{"element": "S", "occu": 1}], "abc": [0.67569582, 0.38051817, 0.76860623], "xyz": [4.8446140256733, 3.77034602257284, 31.000650473781274], "label": "S", "properties": {}}, {"species": [{"element": "S", "occu": 1}], "abc": [0.49942193, 0.03046652, 0.80732005], "xyz": [3.58076284504295, 0.30187605102704, 32.56211791377962], "label": "S", "properties": {}}, {"species": [{"element": "S", "occu": 1}], "abc": [0.9985012, 0.18957133, 0.80733546], "xyz": [7.1590688812779995, 1.8783584238811601, 32.56273945444005], "label": "S", "properties": {}}, {"species": [{"element": "S", "occu": 1}], "abc": [0.49859415, 0.1895344, 0.69267442], "xyz": [3.57482781558225, 1.8779925047488, 27.93804779145385], "label": "S", "properties": {}}, {"species": [{"element": "S", "occu": 1}], "abc": [0.99941146, 0.03040974, 0.69266857], "xyz": [7.1655952770799, 0.30131344912248004, 27.937811839937726], "label": "S", "properties": {}}, {"species": [{"element": "S", "occu": 1}], "abc": [0.17593616, 0.38058202, 0.73144495], "xyz": [1.2614297190104, 3.7709786772330403, 29.501802549482875], "label": "S", "properties": {}}, {"species": [{"element": "S", "occu": 1}], "abc": [0.67383148, 0.84004309, 0.73067198], "xyz": [4.831247052776201, 8.32352663519668, 29.47062589248815], "label": "S", "properties": {}}, {"species": [{"element": "S", "occu": 1}], "abc": [0.17143122, 0.3432743, 0.89442974], "xyz": [1.2291301326243, 3.4013169243836, 36.07556465304095], "label": "S", "properties": {}}, {"species": [{"element": "S", "occu": 1}], "abc": [0.67183168, 0.87877532, 0.89441412], "xyz": [4.8169088567392, 8.70730307700464, 36.0749346423261], "label": "S", "properties": {}}, {"species": [{"element": "S", "occu": 1}], "abc": [0.49391844, 0.54557545, 0.9295201], "xyz": [3.5413038398886, 5.4058081587034, 37.49088493395925], "label": "S", "properties": {}}, {"species": [{"element": "S", "occu": 1}], "abc": [0.99497931, 0.6832752, 0.93194232], "xyz": [7.13381758152765, 6.7701995219904, 37.5885817683846], "label": "S", "properties": {}}, {"species": [{"element": "S", "occu": 1}], "abc": [0.50223603, 0.6903509, 0.81642374], "xyz": [3.6009394214344503, 6.8403087558068005, 32.92930243648595], "label": "S", "properties": {}}, {"species": [{"element": "S", "occu": 1}], "abc": [0.00184212, 0.52996283, 0.81625001], "xyz": [0.0132076596078, 5.25111126283916, 32.922295281460926], "label": "S", "properties": {}}, {"species": [{"element": "S", "occu": 1}], "abc": [0.16843583, 0.87819444, 0.85296544], "xyz": [1.20765374047145, 8.70154745540688, 34.4031604735432], "label": "S", "properties": {}}, {"species": [{"element": "S", "occu": 1}], "abc": [0.66566716, 0.34351819, 0.85220527], "xyz": [4.7727103887754, 3.40373349674188, 34.372500086532476], "label": "S", "properties": {}}, {"species": [{"element": "S", "occu": 1}], "abc": [0.53930578, 0.20937632, 0.93512677], "xyz": [3.8667226710306997, 2.07459521665664, 37.71702207702123], "label": "S", "properties": {}}, {"species": [{"element": "S", "occu": 1}], "abc": [0.03052432, 0.02011249, 0.935698], "xyz": [0.2188537274008, 0.19928364176548002, 37.740061835065006], "label": "S", "properties": {}}, {"species": [{"element": "S", "occu": 1}], "abc": [0.19977291, 0.36924933, 0.97838118], "xyz": [1.43233480671165, 3.65868926233716, 39.46162782378915], "label": "S", "properties": {}}, {"species": [{"element": "S", "occu": 1}], "abc": [0.68740122, 0.86073865, 0.97855156], "xyz": [4.9285395781743, 8.528587598069802, 39.4684998612793], "label": "S", "properties": {}}]}, "formula": "", "bandgap": 2.3511999999999995}