{"miller": "001_0.13", "final_energy": -421.0418047, "sigma": 0.011059126064765492, "incar_parameters": {"SYSTEM": "unknown system", "LCOMPAT": false, "PREC": "normal", "ENMAX": 520.0, "ENAUG": 628.945, "EDIFF": 1e-05, "IALGO": 38, "IWAVPR": 11, "NBANDS": 278, "NBANDSLOW": -1, "NBANDSHIGH": -1, "NELECT": 456.0, "TURBO": 0, "IRESTART": 0, "NREBOOT": 0, "NMIN": 0, "EREF": 0.0, "ISMEAR": 0, "SIGMA": 0.05, "KSPACING": 0.5, "KGAMMA": true, "KBLOWUP": true, "LREAL": true, "ROPT": [-0.0005, -0.0005, -0.0005], "LMAXPAW": -100, "LMAXMIX": 2, "NLSPLINE": false, "ISTART": 0, "ICHARG": 2, "INIWAV": 1, "ISPIN": 1, "LNONCOLLINEAR": false, "MAGMOM": [0.6, 0.6, 0.6, 0.6, 0.6, 0.6, 0.6, 0.6, 0.6, 0.6, 0.6, 0.6, 0.6, 0.6, 0.6, 0.6, 0.6, 0.6, 0.6, 0.6, 0.6, 0.6, 0.6, 0.6, 0.6, 0.6, 0.6, 0.6, 0.6, 0.6, 0.6, 0.6, 0.6, 0.6, 0.6, 0.6, 0.6, 0.6, 0.6, 0.6, 0.6, 0.6, 0.6, 0.6, 0.6, 0.6, 0.6, 0.6, 0.6, 0.6, 0.6, 0.6, 0.6, 0.6, 0.6, 0.6, 0.6, 0.6, 0.6, 0.6, 0.6, 0.6, 0.6, 0.6, 0.6, 0.6, 0.6, 0.6, 0.6, 0.6, 0.6, 0.6, 0.6, 0.6, 0.6, 0.6, 0.6, 0.6, 0.6, 0.6, 0.6, 0.6, 0.6, 0.6, 0.6, 0.6, 0.6, 0.6, 0.6, 0.6, 0.6, 0.6, 0.6, 0.6, 0.6, 0.6], "NUPDOWN": -1.0, "LSORBIT": false, "SAXIS": [0.0, 0.0, 1.0], "LSPIRAL": false, "QSPIRAL": [0.0, 0.0, 0.0], "LZEROZ": false, "LASPH": false, "LMETAGGA": false, "NELM": 100, "NELMDL": -5, "NELMIN": 6, "ENINI": 520.0, "LDIAG": true, "LSUBROT": false, "WEIMIN": 0.001, "EBREAK": 1e-08, "DEPER": 0.3, "NRMM": 4, "TIME": 0.4, "AMIX": 0.4, "BMIX": 1.0, "AMIN": 0.1, "AMIX_MAG": 1.6, "BMIX_MAG": 1.0, "IMIX": 4, "MIXFIRST": false, "MAXMIX": -45, "WC": 100.0, "INIMIX": 1, "MIXPRE": 1, "MREMOVE": 5, "LDIPOL": false, "LMONO": false, "IDIPOL": 0, "EPSILON": 1.0, "DIPOL": [-100.0, -100.0, -100.0], "EFIELD": 0.0, "NGX": 36, "NGY": 48, "NGZ": 224, "NGXF": 72, "NGYF": 96, "NGZF": 448, "ADDGRID": false, "NSW": 150, "IBRION": 2, "MDALGO": 0, "ISIF": 3, "PSTRESS": 0.0, "EDIFFG": -0.01, "NFREE": 1, "POTIM": 0.5, "SMASS": -3.0, "SCALEE": 1.0, "TEBEG": 0.0001, "TEEND": 0.0001, "NBLOCK": 1, "KBLOCK": 150, "NPACO": 256, "APACO": 10.0, "ISYM": 0, "SYMPREC": 1e-05, "LORBIT": 11, "RWIGS": [-1.0, -1.0, -1.0], "NEDOS": 301, "EMIN": 10.0, "EMAX": -10.0, "EFERMI": 0.0, "NWRITE": 2, "LWAVE": false, "LDOWNSAMPLE": false, "LCHARG": false, "LPARD": false, "LVTOT": false, "LVHAR": false, "LELF": false, "LOPTICS": false, "STM": [0.0, 0.0, 0.0, 0.0, 0.0, 0.0, 0.0], "NPAR": 2, "NSIM": 4, "NBLK": -1, "LPLANE": true, "LSCALAPACK": true, "LSCAAWARE": false, "LSCALU": false, "LASYNC": false, "LORBITALREAL": false, "IDIOT": 3, "PHON_NSTRUCT": -1, "LMUSIC": false, "POMASS": [7.01, 30.974, 32.066], "DARWINR": [0.0, 0.0, 0.0], "DARWINV": [1.0, 1.0, 1.0], "LCORR": true, "GGA_COMPAT": true, "LBERRY": false, "ICORELEVEL": 0, "LDAU": false, "I_CONSTRAINED_M": 0, "GGA": "--", "VOSKOWN": 0, "LHFCALC": false, "PRECFOCK": "", "LSYMGRAD": false, "LHFONE": false, "LRHFCALC": false, "LTHOMAS": false, "LMODELHF": false, "LFOCKACE": false, "ENCUT4O": -1.0, "EXXOEP": 0, "FOURORBIT": 0, "AEXX": 0.0, "HFALPHA": 0.0, "MCALPHA": 0.0, "ALDAX": 1.0, "AGGAX": 1.0, "ALDAC": 1.0, "AGGAC": 1.0, "NKREDX": 1, "NKREDY": 1, "NKREDZ": 1, "SHIFTRED": false, "ODDONLY": false, "EVENONLY": false, "LMAXFOCK": 0, "NMAXFOCKAE": 0, "LFOCKAEDFT": false, "HFSCREEN": 0.0, "HFSCREENC": 0.0, "NBANDSGWLOW": 0, "LUSE_VDW": false, "Zab_VDW": -0.8491, "PARAM1": 0.1234, "PARAM2": 1.0, "PARAM3": 0.0, "MODEL_GW": 0, "MODEL_EPS0": 12.38607538, "MODEL_ALPHA": 1.0, "LEPSILON": false, "LRPA": false, "LNABLA": false, "LVEL": false, "CSHIFT": 0.1, "OMEGAMAX": -1.0, "DEG_THRESHOLD": 0.002, "RTIME": -0.1, "WPLASMAI": 0.0, "DFIELD": [0.0, 0.0, 0.0], "WPLASMA": [0.0, 0.0, 0.0, 0.0, 0.0, 0.0, 0.0, 0.0, 0.0], "NUCIND": false, "MAGPOS": [0.0, 0.0, 0.0], "LNICSALL": true, "ORBITALMAG": false, "LMAGBLOCH": false, "LCHIMAG": false, "LGAUGE": true, "MAGATOM": 0, "MAGDIPOL": [0.0, 0.0, 0.0], "AVECCONST": [0.0, 0.0, 0.0], "LFINITE_TEMPERATURE": false, "LADDER": false, "LRPAFORCE": false, "LFXC": false, "LHARTREE": true, "IBSE": 0, "KPOINT": [-1, 0, 0, 0], "LTCTC": false, "LTCTE": false, "LTETE": false, "LTRIPLET": false, "LFXCEPS": false, "LFXHEG": false, "NATURALO": 2, "LHOLEGF": false, "L2ORDER": false, "LDMP1": false, "LMP2LT": false, "LSMP2LT": false, "LGWLF": false, "ENCUTGW": -2.0, "ENCUTGWSOFT": -2.0, "ENCUTLF": -1.0, "LESF_SPLINES": false, "LMAXMP2": -1, "SCISSOR": 0.0, "NOMEGA": 0, "NOMEGAR": 0, "NBANDSGW": -1, "NBANDSO": -1, "NBANDSV": -1, "NELMGW": 1, "NELMHF": 1, "DIM": 3, "IESPILON": 4, "ANTIRES": 0, "OMEGAMIN": -30.0, "OMEGATL": -200.0, "OMEGAGRID": 0, "LSELFENERGY": false, "LSPECTRAL": false, "LSPECTRALGW": false, "LSINGLES": false, "LFERMIGW": false, "ODDONLYGW": false, "EVENONLYGW": false, "NKREDLFX": 1, "NKREDLFY": 1, "NKREDLFZ": 1, "MAXMEM": 2800, "TELESCOPE": 0, "NTAUPAR": -1, "NOMEGAPAR": -1, "DAMP_NEWTON": 0.80000001, "LAMBDA": 1.0, "OFIELD_KAPPA": 0.0, "OFIELD_K": [0.0, 0.0, 0.0], "OFIELD_Q6_NEAR": 0.0, "OFIELD_Q6_FAR": 0.0, "OFIELD_A": 0.0, "KPOINTS_OPT_MODE": 1, "LKPOINTS_OPT": false, "@module": "pymatgen.io.vasp.inputs", "@class": "Incar"}, "relaxed_structures": {"@module": "pymatgen.core.structure", "@class": "Structure", "charge": 0, "lattice": {"matrix": [[6.259951, 0.0, 0.0], [0.0, 8.106791, 0.0], [0.0, 0.0, 39.0511467]], "a": 6.259951, "b": 8.106791, "c": 39.0511467, "alpha": 90.0, "beta": 90.0, "gamma": 90.0, "volume": 1981.7720612465746}, "sites": [{"species": [{"element": "Li", "occu": 1}], "abc": [0.1140746, 0.9677929, 0.19395579], "xyz": [0.7141014063446, 7.845694771583899, 7.574196008604392], "label": "Li", "properties": {}}, {"species": [{"element": "Li", "occu": 1}], "abc": [0.61166279, 0.03669923, 0.13873164], "xyz": [3.82897909392329, 0.29751298747092997, 5.417629625571587], "label": "Li", "properties": {}}, {"species": [{"element": "Li", "occu": 1}], "abc": [0.37100657, 0.99946801, 0.02702643], "xyz": [2.32248294887807, 8.10247826825591, 1.055413082707281], "label": "Li", "properties": {}}, {"species": [{"element": "Li", "occu": 1}], "abc": [0.37099125, 0.50052809, 0.02702488], "xyz": [2.32238704642875, 4.057676615259189, 1.055352553429896], "label": "Li", "properties": {}}, {"species": [{"element": "Li", "occu": 1}], "abc": [0.61166654, 0.46330744, 0.13873136], "xyz": [3.82900256873954, 3.7559365848250397, 5.417618691250511], "label": "Li", "properties": {}}, {"species": [{"element": "Li", "occu": 1}], "abc": [0.11407852, 0.53221355, 0.19395497], "xyz": [0.71412594535252, 4.31454401721805, 7.574163986664098], "label": "Li", "properties": {}}, {"species": [{"element": "Li", "occu": 1}], "abc": [0.50001694, 2.21e-06, 0.24999943], "xyz": [3.13008154356994, 1.791600811e-05, 9.76276441584638], "label": "Li", "properties": {}}, {"species": [{"element": "Li", "occu": 1}], "abc": [0.98158526, 0.97851563, 0.08492477], "xyz": [6.1446756299222605, 7.932621702643329, 3.3164096517337587], "label": "Li", "properties": {}}, {"species": [{"element": "Li", "occu": 1}], "abc": [0.98169394, 0.52145763, 0.08490951], "xyz": [6.14535596139694, 4.22734802176533, 3.3158137312351164], "label": "Li", "properties": {}}, {"species": [{"element": "Li", "occu": 1}], "abc": [0.50001496, 0.50000258, 0.24999946], "xyz": [3.13006914886696, 4.05341641552078, 9.762765587380782], "label": "Li", "properties": {}}, {"species": [{"element": "Li", "occu": 1}], "abc": [0.88591371, 0.03221691, 0.30604903], "xyz": [5.54577641482821, 0.26117575603581, 11.9515655679227], "label": "Li", "properties": {}}, {"species": [{"element": "Li", "occu": 1}], "abc": [0.62904078, 0.00054584, 0.47297743], "xyz": [3.93776445980178, 0.0044250107994399995, 18.47031100471898], "label": "Li", "properties": {}}, {"species": [{"element": "Li", "occu": 1}], "abc": [0.38835066, 0.9633481, 0.3612588], "xyz": [2.43105610241766, 7.8096617069471, 14.107570395465958], "label": "Li", "properties": {}}, {"species": [{"element": "Li", "occu": 1}], "abc": [0.38835504, 0.5366356, 0.36125652], "xyz": [2.43108352100304, 4.3503926523595995, 14.107481358851484], "label": "Li", "properties": {}}, {"species": [{"element": "Li", "occu": 1}], "abc": [0.62902485, 0.49942519, 0.47298206], "xyz": [3.93766473878235, 4.04873563546529, 18.4704918115282], "label": "Li", "properties": {}}, {"species": [{"element": "Li", "occu": 1}], "abc": [0.8859117, 0.46778451, 0.30604972], "xyz": [5.5457638323267, 3.7922312556074096, 11.951592513213924], "label": "Li", "properties": {}}, {"species": [{"element": "Li", "occu": 1}], "abc": [0.01827248, 0.0214425, 0.41508982], "xyz": [0.11438482944848001, 0.17382986601749997, 16.209733454496593], "label": "Li", "properties": {}}, {"species": [{"element": "Li", "occu": 1}], "abc": [0.01833029, 0.47853961, 0.41509614], "xyz": [0.11474671721579, 3.8794206034915097, 16.209980257743737], "label": "Li", "properties": {}}, {"species": [{"element": "Li", "occu": 1}], "abc": [0.38589796, 0.03223886, 0.6939628], "xyz": [2.41570232059996, 0.26135370009826, 27.100043107142756], "label": "Li", "properties": {}}, {"species": [{"element": "Li", "occu": 1}], "abc": [0.8883513, 0.96332325, 0.63874368], "xyz": [5.5610356087863, 7.809460253190749, 24.943673151377855], "label": "Li", "properties": {}}, {"species": [{"element": "Li", "occu": 1}], "abc": [0.12903545, 0.00056824, 0.5270259], "xyz": [0.80775559426295, 0.00460660291784, 20.58096573559953], "label": "Li", "properties": {}}, {"species": [{"element": "Li", "occu": 1}], "abc": [0.12913548, 0.49947565, 0.52704626], "xyz": [0.80838177716148, 4.04914470413915, 20.58176081694634], "label": "Li", "properties": {}}, {"species": [{"element": "Li", "occu": 1}], "abc": [0.88832573, 0.53669145, 0.63873369], "xyz": [5.560875541839231, 4.3508454166369495, 24.94328303042232], "label": "Li", "properties": {}}, {"species": [{"element": "Li", "occu": 1}], "abc": [0.38590191, 0.46776385, 0.69395926], "xyz": [2.4157270474064103, 3.7920637693053494, 27.09990486608344], "label": "Li", "properties": {}}, {"species": [{"element": "Li", "occu": 1}], "abc": [0.99998513, 0.99998535, 0.75000187], "xyz": [6.25985791452863, 8.10667223551185, 29.288433050644326], "label": "Li", "properties": {}}, {"species": [{"element": "Li", "occu": 1}], "abc": [0.51845235, 0.02150322, 0.58493177], "xyz": [3.24548630683485, 0.17432211036702, 22.842256359760654], "label": "Li", "properties": {}}, {"species": [{"element": "Li", "occu": 1}], "abc": [0.51825885, 0.47857734, 0.58490976], "xyz": [3.24427500631635, 3.87972647271594, 22.841396844021787], "label": "Li", "properties": {}}, {"species": [{"element": "Li", "occu": 1}], "abc": [0.99998338, 0.50001498, 0.75000078], "xyz": [6.2598469596143795, 4.05351693972918, 29.288390484894425], "label": "Li", "properties": {}}, {"species": [{"element": "Li", "occu": 1}], "abc": [0.61409025, 0.96778812, 0.80604652], "xyz": [3.8441748745777495, 7.845656021122919, 31.47704089954448], "label": "Li", "properties": {}}, {"species": [{"element": "Li", "occu": 1}], "abc": [0.87088225, 0.99941339, 0.97296028], "xyz": [5.45168021176975, 8.102035475331489, 37.995214627553075], "label": "Li", "properties": {}}, {"species": [{"element": "Li", "occu": 1}], "abc": [0.1116408, 0.03659378, 0.86125031], "xyz": [0.6988659376008, 0.29665812635997996, 33.63281220123047], "label": "Li", "properties": {}}, {"species": [{"element": "Li", "occu": 1}], "abc": [0.11164286, 0.46339948, 0.86125048], "xyz": [0.69887883309986, 3.7566827338686797, 33.63281883992541], "label": "Li", "properties": {}}, {"species": [{"element": "Li", "occu": 1}], "abc": [0.8708806, 0.50055381, 0.97295704], "xyz": [5.4516698828506005, 4.05788512192371, 37.995088101837766], "label": "Li", "properties": {}}, {"species": [{"element": "Li", "occu": 1}], "abc": [0.61408917, 0.53220953, 0.80604617], "xyz": [3.8441681138306696, 4.31451142791823, 31.477027231643138], "label": "Li", "properties": {}}, {"species": [{"element": "Li", "occu": 1}], "abc": [0.48185592, 0.97888032, 0.91507559], "xyz": [3.01639444825992, 7.9355781682531195, 35.73475110667905], "label": "Li", "properties": {}}, {"species": [{"element": "Li", "occu": 1}], "abc": [0.48186674, 0.52098159, 0.91508207], "xyz": [3.0164621809297403, 4.22348886497769, 35.73500415810967], "label": "Li", "properties": {}}, {"species": [{"element": "P", "occu": 1}], "abc": [0.84818367, 0.25001931, 0.22005781], "xyz": [5.309588213200169, 2.02685429213421, 8.593509820790725], "label": "P", "properties": {}}, {"species": [{"element": "P", "occu": 1}], "abc": [0.15185684, 0.74998311, 0.27994525], "xyz": [0.95061637741484, 6.079956326300009, 10.932183025718173], "label": "P", "properties": {}}, {"species": [{"element": "P", "occu": 1}], "abc": [0.35302387, 0.75000599, 0.11210233], "xyz": [2.20991212803037, 6.080141809678089, 4.3777245342418105], "label": "P", "properties": {}}, {"species": [{"element": "P", "occu": 1}], "abc": [0.65514499, 0.25000092, 0.05586599], "xyz": [4.10117553529549, 2.02670520824772, 2.181630971030733], "label": "P", "properties": {}}, {"species": [{"element": "P", "occu": 1}], "abc": [0.34499317, 0.74995866, 0.44412685], "xyz": [2.15964033953467, 6.079758115260059, 17.343662772758893], "label": "P", "properties": {}}, {"species": [{"element": "P", "occu": 1}], "abc": [0.64697725, 0.25000009, 0.38791632], "xyz": [4.05004588311475, 2.02669847961119, 15.148577119644141], "label": "P", "properties": {}}, {"species": [{"element": "P", "occu": 1}], "abc": [0.65172642, 0.74999646, 0.72007004], "xyz": [4.079775454605421, 6.080064551959859, 28.119560766314866], "label": "P", "properties": {}}, {"species": [{"element": "P", "occu": 1}], "abc": [0.34808312, 0.25000047, 0.77995075], "xyz": [2.1789832751271203, 2.0267015601917695, 30.457971157025025], "label": "P", "properties": {}}, {"species": [{"element": "P", "occu": 1}], "abc": [0.1470278, 0.24999862, 0.61211225], "xyz": [0.9203868236377999, 2.02668656262842, 23.903685271617075], "label": "P", "properties": {}}, {"species": [{"element": "P", "occu": 1}], "abc": [0.84497637, 0.75010193, 0.55587235], "xyz": [5.289510672357871, 6.08091957520663, 21.707452686323744], "label": "P", "properties": {}}, {"species": [{"element": "P", "occu": 1}], "abc": [0.15490491, 0.24996921, 0.94410288], "xyz": [0.9696971462594101, 2.0264481419051097, 36.86830006677249], "label": "P", "properties": {}}, {"species": [{"element": "P", "occu": 1}], "abc": [0.8530109, 0.74998777, 0.8878928], "xyz": [5.3398064364659, 6.07999410394607, 34.673231986673756], "label": "P", "properties": {}}, {"species": [{"element": "S", "occu": 1}], "abc": [0.73181922, 0.46393815, 0.19867581], "xyz": [4.58115245805822, 3.76104961897665, 7.758518202051326], "label": "S", "properties": {}}, {"species": [{"element": "S", "occu": 1}], "abc": [0.23504374, 0.53792955, 0.13381461], "xyz": [1.47136229525674, 4.36088243457405, 5.225613965713286], "label": "S", "properties": {}}, {"species": [{"element": "S", "occu": 1}], "abc": [0.75917671, 0.46738934, 0.03383669], "xyz": [4.75240900494121, 3.7890276950079396, 1.321361545032423], "label": "S", "properties": {}}, {"species": [{"element": "S", "occu": 1}], "abc": [0.75920009, 0.03262157, 0.03383497], "xyz": [4.75255536259559, 0.26445625008187, 1.321294377060099], "label": "S", "properties": {}}, {"species": [{"element": "S", "occu": 1}], "abc": [0.23504051, 0.96207837, 0.13381487], "xyz": [1.47134207561501, 7.799368271210669, 5.225624119011429], "label": "S", "properties": {}}, {"species": [{"element": "S", "occu": 1}], "abc": [0.73178654, 0.03613967, 0.19867537], "xyz": [4.58094788285954, 0.29297675149896996, 7.758501019546778], "label": "S", "properties": {}}, {"species": [{"element": "S", "occu": 1}], "abc": [0.27294856, 0.75000314, 0.22999505], "xyz": [1.70864461112056, 6.0801187053237395, 8.981570437823834], "label": "S", "properties": {}}, {"species": [{"element": "S", "occu": 1}], "abc": [0.7270845, 0.25003566, 0.2700088], "xyz": [4.5515133428595, 2.0269868381670597, 10.544153259090958], "label": "S", "properties": {}}, {"species": [{"element": "S", "occu": 1}], "abc": [0.794201, 0.25001224, 0.10444238], "xyz": [4.971659344151, 2.02679697712184, 4.078594703077146], "label": "S", "properties": {}}, {"species": [{"element": "S", "occu": 1}], "abc": [0.23611382, 0.7500043, 0.06175999], "xyz": [1.47806094362282, 6.080128109201299, 2.411798429680533], "label": "S", "properties": {}}, {"species": [{"element": "S", "occu": 1}], "abc": [0.17373059, 0.25001078, 0.21632769], "xyz": [1.08754498060109, 2.0267851412069797, 8.447844357462122], "label": "S", "properties": {}}, {"species": [{"element": "S", "occu": 1}], "abc": [0.82633735, 0.75000158, 0.28367815], "xyz": [5.17283132046985, 6.080106058729779, 11.077957051234606], "label": "S", "properties": {}}, {"species": [{"element": "S", "occu": 1}], "abc": [0.67965947, 0.75000564, 0.11724726], "xyz": [4.25463497888597, 6.08013897230124, 4.5786399504330415], "label": "S", "properties": {}}, {"species": [{"element": "S", "occu": 1}], "abc": [0.33043878, 0.24999766, 0.05773674], "xyz": [2.06853057129978, 2.02667878010906, 2.254685903719758], "label": "S", "properties": {}}, {"species": [{"element": "S", "occu": 1}], "abc": [0.26819264, 0.53604531, 0.30131398], "xyz": [1.67887278496064, 4.345607294700209, 11.766656435740865], "label": "S", "properties": {}}, {"species": [{"element": "S", "occu": 1}], "abc": [0.24089509, 0.5326768, 0.46616308], "xyz": [1.50799145954059, 4.318299488148799, 18.204202823203836], "label": "S", "properties": {}}, {"species": [{"element": "S", "occu": 1}], "abc": [0.7650049, 0.4620566, 0.36620445], "xyz": [4.7888931887599, 3.7457962863705996, 14.300703699142815], "label": "S", "properties": {}}, {"species": [{"element": "S", "occu": 1}], "abc": [0.76500292, 0.03793596, 0.36620146], "xyz": [4.7888807940569205, 0.30753889910435994, 14.30058693621418], "label": "S", "properties": {}}, {"species": [{"element": "S", "occu": 1}], "abc": [0.24092104, 0.96729965, 0.46615152], "xyz": [1.50815390526904, 7.841696096923149, 18.203751391947982], "label": "S", "properties": {}}, {"species": [{"element": "S", "occu": 1}], "abc": [0.26818795, 0.96390104, 0.3013158], "xyz": [1.67884342579045, 7.814144275962639, 11.76672750882786], "label": "S", "properties": {}}, {"species": [{"element": "S", "occu": 1}], "abc": [0.76390661, 0.24998427, 0.43825859], "xyz": [4.782017947176111, 2.02657023017757, 17.11450049062515], "label": "S", "properties": {}}, {"species": [{"element": "S", "occu": 1}], "abc": [0.20607361, 0.74997395, 0.39554443], "xyz": [1.2900107009931099, 6.07988206809445, 15.446463562297879], "label": "S", "properties": {}}, {"species": [{"element": "S", "occu": 1}], "abc": [0.6696859, 0.7499341, 0.44226649], "xyz": [4.1922009193909, 6.0795590124731, 17.27101358148408], "label": "S", "properties": {}}, {"species": [{"element": "S", "occu": 1}], "abc": [0.32038822, 0.24999654, 0.38276151], "xyz": [2.00561455817722, 2.0266697005031395, 14.947275878123516], "label": "S", "properties": {}}, {"species": [{"element": "S", "occu": 1}], "abc": [0.76815703, 0.53611524, 0.69868137], "xyz": [4.80862536810553, 4.34617420259484, 27.284308676426974], "label": "S", "properties": {}}, {"species": [{"element": "S", "occu": 1}], "abc": [0.26501371, 0.46207885, 0.63381243], "xyz": [1.6589728389282101, 3.7459766624703494, 24.75110218421348], "label": "S", "properties": {}}, {"species": [{"element": "S", "occu": 1}], "abc": [0.74089318, 0.53271208, 0.53384803], "xyz": [4.63795500303418, 4.31858549573528, 20.847377735036], "label": "S", "properties": {}}, {"species": [{"element": "S", "occu": 1}], "abc": [0.74085321, 0.96743898, 0.53384724], "xyz": [4.63770479279271, 7.842825616113179, 20.847346884630102], "label": "S", "properties": {}}, {"species": [{"element": "S", "occu": 1}], "abc": [0.26501198, 0.03794408, 0.63381855], "xyz": [1.65896200921298, 0.30760472624727997, 24.751341177231282], "label": "S", "properties": {}}, {"species": [{"element": "S", "occu": 1}], "abc": [0.76812399, 0.96392969, 0.69868337], "xyz": [4.80841853932449, 7.814376535524789, 27.28438677872038], "label": "S", "properties": {}}, {"species": [{"element": "S", "occu": 1}], "abc": [0.22673989, 0.25000427, 0.73001265], "xyz": [1.41938060114539, 2.0267323659975696, 28.507831088005755], "label": "S", "properties": {}}, {"species": [{"element": "S", "occu": 1}], "abc": [0.77286884, 0.74998782, 0.77001664], "xyz": [4.83812106782684, 6.079994509285619, 30.070032770081088], "label": "S", "properties": {}}, {"species": [{"element": "S", "occu": 1}], "abc": [0.70594044, 0.75003078, 0.60445325], "xyz": [4.41915256331844, 6.08034277702698, 23.604592539041775], "label": "S", "properties": {}}, {"species": [{"element": "S", "occu": 1}], "abc": [0.26400371, 0.24997602, 0.5617672], "xyz": [1.65265028841821, 2.02650334915182, 21.93765333844824], "label": "S", "properties": {}}, {"species": [{"element": "S", "occu": 1}], "abc": [0.32619712, 0.7499885, 0.71632671], "xyz": [2.04197798754112, 6.0800000219034995, 27.973379437338355], "label": "S", "properties": {}}, {"species": [{"element": "S", "occu": 1}], "abc": [0.67367932, 0.24998653, 0.7836694], "xyz": [4.21719953291332, 2.0265885515252298, 30.603188703700976], "label": "S", "properties": {}}, {"species": [{"element": "S", "occu": 1}], "abc": [0.82044592, 0.2499955, 0.61725419], "xyz": [5.13595125734992, 2.0266612694405, 24.104483924879673], "label": "S", "properties": {}}, {"species": [{"element": "S", "occu": 1}], "abc": [0.1696511, 0.75009166, 0.55774338], "xyz": [1.0620075730961, 6.08083631846306, 21.780518553333845], "label": "S", "properties": {}}, {"species": [{"element": "S", "occu": 1}], "abc": [0.23180125, 0.46399388, 0.80132402], "xyz": [1.45106446673875, 3.76150141043908, 31.29262185925373], "label": "S", "properties": {}}, {"species": [{"element": "S", "occu": 1}], "abc": [0.25913782, 0.4672573, 0.96611918], "xyz": [1.62219005544682, 3.7879572743242997, 37.728061827863705], "label": "S", "properties": {}}, {"species": [{"element": "S", "occu": 1}], "abc": [0.73505104, 0.53793325, 0.86618214], "xyz": [4.60138349289904, 4.3609124297007495, 33.825405818059934], "label": "S", "properties": {}}, {"species": [{"element": "S", "occu": 1}], "abc": [0.73505487, 0.96205133, 0.86618507], "xyz": [4.60140746851137, 7.799149063582029, 33.82552023791977], "label": "S", "properties": {}}, {"species": [{"element": "S", "occu": 1}], "abc": [0.25916151, 0.03268627, 0.96611412], "xyz": [1.6223383536860099, 0.26498075945957, 37.7278642290614], "label": "S", "properties": {}}, {"species": [{"element": "S", "occu": 1}], "abc": [0.23180309, 0.0360265, 0.80132399], "xyz": [1.45107598504859, 0.2920593059615, 31.29262068771933], "label": "S", "properties": {}}, {"species": [{"element": "S", "occu": 1}], "abc": [0.73593901, 0.74998616, 0.93823041], "xyz": [4.60694214158851, 6.079981052012559, 36.63897337931114], "label": "S", "properties": {}}, {"species": [{"element": "S", "occu": 1}], "abc": [0.29366119, 0.24996465, 0.89550909], "xyz": [1.8383046600016901, 2.02641117493815, 34.9706568447735], "label": "S", "properties": {}}, {"species": [{"element": "S", "occu": 1}], "abc": [0.83020952, 0.24994262, 0.94226377], "xyz": [5.19707091493352, 2.02623258233242, 36.79648071236505], "label": "S", "properties": {}}, {"species": [{"element": "S", "occu": 1}], "abc": [0.17958521, 0.74999588, 0.8827665], "xyz": [1.12419461492471, 6.080059850021079, 34.47304409334555], "label": "S", "properties": {}}]}, "formula": "(Li3PS4)12.0", "bandgap": 2.6339999999999995}