{"miller": "001_0.03", "final_energy": -421.04163047, "sigma": 0.011060842680269278, "incar_parameters": {"SYSTEM": "unknown system", "LCOMPAT": false, "PREC": "normal", "ENMAX": 520.0, "ENAUG": 628.945, "EDIFF": 1e-05, "IALGO": 38, "IWAVPR": 11, "NBANDS": 278, "NBANDSLOW": -1, "NBANDSHIGH": -1, "NELECT": 456.0, "TURBO": 0, "IRESTART": 0, "NREBOOT": 0, "NMIN": 0, "EREF": 0.0, "ISMEAR": 0, "SIGMA": 0.05, "KSPACING": 0.5, "KGAMMA": true, "KBLOWUP": true, "LREAL": true, "ROPT": [-0.0005, -0.0005, -0.0005], "LMAXPAW": -100, "LMAXMIX": 2, "NLSPLINE": false, "ISTART": 0, "ICHARG": 2, "INIWAV": 1, "ISPIN": 1, "LNONCOLLINEAR": false, "MAGMOM": [0.6, 0.6, 0.6, 0.6, 0.6, 0.6, 0.6, 0.6, 0.6, 0.6, 0.6, 0.6, 0.6, 0.6, 0.6, 0.6, 0.6, 0.6, 0.6, 0.6, 0.6, 0.6, 0.6, 0.6, 0.6, 0.6, 0.6, 0.6, 0.6, 0.6, 0.6, 0.6, 0.6, 0.6, 0.6, 0.6, 0.6, 0.6, 0.6, 0.6, 0.6, 0.6, 0.6, 0.6, 0.6, 0.6, 0.6, 0.6, 0.6, 0.6, 0.6, 0.6, 0.6, 0.6, 0.6, 0.6, 0.6, 0.6, 0.6, 0.6, 0.6, 0.6, 0.6, 0.6, 0.6, 0.6, 0.6, 0.6, 0.6, 0.6, 0.6, 0.6, 0.6, 0.6, 0.6, 0.6, 0.6, 0.6, 0.6, 0.6, 0.6, 0.6, 0.6, 0.6, 0.6, 0.6, 0.6, 0.6, 0.6, 0.6, 0.6, 0.6, 0.6, 0.6, 0.6, 0.6], "NUPDOWN": -1.0, "LSORBIT": false, "SAXIS": [0.0, 0.0, 1.0], "LSPIRAL": false, "QSPIRAL": [0.0, 0.0, 0.0], "LZEROZ": false, "LASPH": false, "LMETAGGA": false, "NELM": 100, "NELMDL": -5, "NELMIN": 6, "ENINI": 520.0, "LDIAG": true, "LSUBROT": false, "WEIMIN": 0.001, "EBREAK": 1e-08, "DEPER": 0.3, "NRMM": 4, "TIME": 0.4, "AMIX": 0.4, "BMIX": 1.0, "AMIN": 0.1, "AMIX_MAG": 1.6, "BMIX_MAG": 1.0, "IMIX": 4, "MIXFIRST": false, "MAXMIX": -45, "WC": 100.0, "INIMIX": 1, "MIXPRE": 1, "MREMOVE": 5, "LDIPOL": false, "LMONO": false, "IDIPOL": 0, "EPSILON": 1.0, "DIPOL": [-100.0, -100.0, -100.0], "EFIELD": 0.0, "NGX": 36, "NGY": 48, "NGZ": 224, "NGXF": 72, "NGYF": 96, "NGZF": 448, "ADDGRID": false, "NSW": 150, "IBRION": 2, "MDALGO": 0, "ISIF": 3, "PSTRESS": 0.0, "EDIFFG": -0.01, "NFREE": 1, "POTIM": 0.5, "SMASS": -3.0, "SCALEE": 1.0, "TEBEG": 0.0001, "TEEND": 0.0001, "NBLOCK": 1, "KBLOCK": 150, "NPACO": 256, "APACO": 10.0, "ISYM": 0, "SYMPREC": 1e-05, "LORBIT": 11, "RWIGS": [-1.0, -1.0, -1.0], "NEDOS": 301, "EMIN": 10.0, "EMAX": -10.0, "EFERMI": 0.0, "NWRITE": 2, "LWAVE": false, "LDOWNSAMPLE": false, "LCHARG": false, "LPARD": false, "LVTOT": false, "LVHAR": false, "LELF": false, "LOPTICS": false, "STM": [0.0, 0.0, 0.0, 0.0, 0.0, 0.0, 0.0], "NPAR": 2, "NSIM": 4, "NBLK": -1, "LPLANE": true, "LSCALAPACK": true, "LSCAAWARE": false, "LSCALU": false, "LASYNC": false, "LORBITALREAL": false, "IDIOT": 3, "PHON_NSTRUCT": -1, "LMUSIC": false, "POMASS": [7.01, 30.974, 32.066], "DARWINR": [0.0, 0.0, 0.0], "DARWINV": [1.0, 1.0, 1.0], "LCORR": true, "GGA_COMPAT": true, "LBERRY": false, "ICORELEVEL": 0, "LDAU": false, "I_CONSTRAINED_M": 0, "GGA": "--", "VOSKOWN": 0, "LHFCALC": false, "PRECFOCK": "", "LSYMGRAD": false, "LHFONE": false, "LRHFCALC": false, "LTHOMAS": false, "LMODELHF": false, "LFOCKACE": false, "ENCUT4O": -1.0, "EXXOEP": 0, "FOURORBIT": 0, "AEXX": 0.0, "HFALPHA": 0.0, "MCALPHA": 0.0, "ALDAX": 1.0, "AGGAX": 1.0, "ALDAC": 1.0, "AGGAC": 1.0, "NKREDX": 1, "NKREDY": 1, "NKREDZ": 1, "SHIFTRED": false, "ODDONLY": false, "EVENONLY": false, "LMAXFOCK": 0, "NMAXFOCKAE": 0, "LFOCKAEDFT": false, "HFSCREEN": 0.0, "HFSCREENC": 0.0, "NBANDSGWLOW": 0, "LUSE_VDW": false, "Zab_VDW": -0.8491, "PARAM1": 0.1234, "PARAM2": 1.0, "PARAM3": 0.0, "MODEL_GW": 0, "MODEL_EPS0": 12.38629099, "MODEL_ALPHA": 1.0, "LEPSILON": false, "LRPA": false, "LNABLA": false, "LVEL": false, "CSHIFT": 0.1, "OMEGAMAX": -1.0, "DEG_THRESHOLD": 0.002, "RTIME": -0.1, "WPLASMAI": 0.0, "DFIELD": [0.0, 0.0, 0.0], "WPLASMA": [0.0, 0.0, 0.0, 0.0, 0.0, 0.0, 0.0, 0.0, 0.0], "NUCIND": false, "MAGPOS": [0.0, 0.0, 0.0], "LNICSALL": true, "ORBITALMAG": false, "LMAGBLOCH": false, "LCHIMAG": false, "LGAUGE": true, "MAGATOM": 0, "MAGDIPOL": [0.0, 0.0, 0.0], "AVECCONST": [0.0, 0.0, 0.0], "LFINITE_TEMPERATURE": false, "LADDER": false, "LRPAFORCE": false, "LFXC": false, "LHARTREE": true, "IBSE": 0, "KPOINT": [-1, 0, 0, 0], "LTCTC": false, "LTCTE": false, "LTETE": false, "LTRIPLET": false, "LFXCEPS": false, "LFXHEG": false, "NATURALO": 2, "LHOLEGF": false, "L2ORDER": false, "LDMP1": false, "LMP2LT": false, "LSMP2LT": false, "LGWLF": false, "ENCUTGW": -2.0, "ENCUTGWSOFT": -2.0, "ENCUTLF": -1.0, "LESF_SPLINES": false, "LMAXMP2": -1, "SCISSOR": 0.0, "NOMEGA": 0, "NOMEGAR": 0, "NBANDSGW": -1, "NBANDSO": -1, "NBANDSV": -1, "NELMGW": 1, "NELMHF": 1, "DIM": 3, "IESPILON": 4, "ANTIRES": 0, "OMEGAMIN": -30.0, "OMEGATL": -200.0, "OMEGAGRID": 0, "LSELFENERGY": false, "LSPECTRAL": false, "LSPECTRALGW": false, "LSINGLES": false, "LFERMIGW": false, "ODDONLYGW": false, "EVENONLYGW": false, "NKREDLFX": 1, "NKREDLFY": 1, "NKREDLFZ": 1, "MAXMEM": 2800, "TELESCOPE": 0, "NTAUPAR": -1, "NOMEGAPAR": -1, "DAMP_NEWTON": 0.80000001, "LAMBDA": 1.0, "OFIELD_KAPPA": 0.0, "OFIELD_K": [0.0, 0.0, 0.0], "OFIELD_Q6_NEAR": 0.0, "OFIELD_Q6_FAR": 0.0, "OFIELD_A": 0.0, "KPOINTS_OPT_MODE": 1, "LKPOINTS_OPT": false, "@module": "pymatgen.io.vasp.inputs", "@class": "Incar"}, "relaxed_structures": {"@module": "pymatgen.core.structure", "@class": "Structure", "charge": 0, "lattice": {"matrix": [[6.259951, 0.0, 0.0], [0.0, 8.106791, 0.0], [0.0, 0.0, 39.05182649]], "a": 6.259951, "b": 8.106791, "c": 39.05182649, "alpha": 90.0, "beta": 90.0, "gamma": 90.0, "volume": 1981.8065593072813}, "sites": [{"species": [{"element": "Li", "occu": 1}], "abc": [0.11404994, 0.96779362, 0.19396183], "xyz": [0.7139470359529401, 7.84570060847342, 7.574563730842877], "label": "Li", "properties": {}}, {"species": [{"element": "Li", "occu": 1}], "abc": [0.61159368, 0.03672323, 0.13873009], "xyz": [3.82854646870968, 0.29770755045493, 5.417663403622084], "label": "Li", "properties": {}}, {"species": [{"element": "Li", "occu": 1}], "abc": [0.37108883, 0.9994923, 0.0270293], "xyz": [2.32299789244733, 8.1026751822093, 1.055543533746157], "label": "Li", "properties": {}}, {"species": [{"element": "Li", "occu": 1}], "abc": [0.37097649, 0.50053434, 0.0270448], "xyz": [2.32229464955199, 4.057727282702939, 1.0561488370567522], "label": "Li", "properties": {}}, {"species": [{"element": "Li", "occu": 1}], "abc": [0.61160568, 0.46345983, 0.13871838], "xyz": [3.8286215881216803, 3.75717197870553, 5.417206106733887], "label": "Li", "properties": {}}, {"species": [{"element": "Li", "occu": 1}], "abc": [0.11405504, 0.53220747, 0.19396078], "xyz": [0.71397896170304, 4.3144947279287695, 7.574522726425063], "label": "Li", "properties": {}}, {"species": [{"element": "Li", "occu": 1}], "abc": [0.50002172, 0.99999188, 0.25000347], "xyz": [3.13011146613572, 8.10672517285708, 9.76309213233792], "label": "Li", "properties": {}}, {"species": [{"element": "Li", "occu": 1}], "abc": [0.98195703, 0.97899093, 0.08492547], "xyz": [6.14700289190553, 7.93647486040563, 3.316494719021701], "label": "Li", "properties": {}}, {"species": [{"element": "Li", "occu": 1}], "abc": [0.98195866, 0.52106902, 0.08492448], "xyz": [6.14701309562566, 4.224197641714819, 3.3164560577134754], "label": "Li", "properties": {}}, {"species": [{"element": "Li", "occu": 1}], "abc": [0.49999766, 0.49999072, 0.24999606], "xyz": [3.12996085171466, 4.05332026897952, 9.76280275830363], "label": "Li", "properties": {}}, {"species": [{"element": "Li", "occu": 1}], "abc": [0.88593629, 0.03218237, 0.30603971], "xyz": [5.54591776452179, 0.26089574747467, 11.95140965396992], "label": "Li", "properties": {}}, {"species": [{"element": "Li", "occu": 1}], "abc": [0.62907372, 0.00054941, 0.47295828], "xyz": [3.9379706625877198, 0.004453952043309999, 18.46988468756884], "label": "Li", "properties": {}}, {"species": [{"element": "Li", "occu": 1}], "abc": [0.38836411, 0.96333498, 0.36126692], "xyz": [2.43114029875861, 7.809555345849179, 14.108133076416712], "label": "Li", "properties": {}}, {"species": [{"element": "Li", "occu": 1}], "abc": [0.38834334, 0.53667736, 0.36126725], "xyz": [2.43101027957634, 4.35073119195176, 14.108145963519453], "label": "Li", "properties": {}}, {"species": [{"element": "Li", "occu": 1}], "abc": [0.62889898, 0.49934753, 0.47297988], "xyz": [3.93687679874998, 4.048106062076229, 18.470728207021022], "label": "Li", "properties": {}}, {"species": [{"element": "Li", "occu": 1}], "abc": [0.88593785, 0.46781458, 0.30603443], "xyz": [5.5459275300453506, 3.7924750268127796, 11.951203460326052], "label": "Li", "properties": {}}, {"species": [{"element": "Li", "occu": 1}], "abc": [0.01798031, 0.02095117, 0.41509406], "xyz": [0.11255585956481, 0.16984675639547, 16.21018120814965], "label": "Li", "properties": {}}, {"species": [{"element": "Li", "occu": 1}], "abc": [0.01788145, 0.47876349, 0.41509848], "xyz": [0.11193700080895, 3.88123555186059, 16.210353817222735], "label": "Li", "properties": {}}, {"species": [{"element": "Li", "occu": 1}], "abc": [0.38594274, 0.03219623, 0.69396176], "xyz": [2.41598264120574, 0.26100810759793, 27.100474242215025], "label": "Li", "properties": {}}, {"species": [{"element": "Li", "occu": 1}], "abc": [0.88838662, 0.96339973, 0.63871088], "xyz": [5.56125671025562, 7.81008026056643, 24.942826463035214], "label": "Li", "properties": {}}, {"species": [{"element": "Li", "occu": 1}], "abc": [0.12893395, 0.0004856, 0.52702454], "xyz": [0.80712020923645, 0.0039366577096, 20.581270892052064], "label": "Li", "properties": {}}, {"species": [{"element": "Li", "occu": 1}], "abc": [0.12884107, 0.49937973, 0.52701046], "xyz": [0.80653878498757, 4.04836710074643, 20.580721042335085], "label": "Li", "properties": {}}, {"species": [{"element": "Li", "occu": 1}], "abc": [0.88837563, 0.53654308, 0.63870129], "xyz": [5.5611879133941295, 4.34964261205628, 24.942451956019173], "label": "Li", "properties": {}}, {"species": [{"element": "Li", "occu": 1}], "abc": [0.38596485, 0.46780742, 0.69396427], "xyz": [2.41612104872235, 3.7924169821892195, 27.100572262299515], "label": "Li", "properties": {}}, {"species": [{"element": "Li", "occu": 1}], "abc": [0.99999778, 0.99997838, 0.7499971], "xyz": [6.25993710290878, 8.106615731178579, 29.28875661720318], "label": "Li", "properties": {}}, {"species": [{"element": "Li", "occu": 1}], "abc": [0.51811193, 0.02124833, 0.58490939], "xyz": [3.24335529431543, 0.17225577040902998, 22.841780010651743], "label": "Li", "properties": {}}, {"species": [{"element": "Li", "occu": 1}], "abc": [0.51787502, 0.47877823, 0.58490042], "xyz": [3.24187224932402, 3.8813550459599298, 22.841429715768125], "label": "Li", "properties": {}}, {"species": [{"element": "Li", "occu": 1}], "abc": [1.972e-05, 0.50002922, 0.74999658], "xyz": [0.00012344623372000002, 4.0536323804330205, 29.28873631025341], "label": "Li", "properties": {}}, {"species": [{"element": "Li", "occu": 1}], "abc": [0.61406389, 0.96776887, 0.80603224], "xyz": [3.84400986226939, 7.8454999653961695, 31.47703118182604], "label": "Li", "properties": {}}, {"species": [{"element": "Li", "occu": 1}], "abc": [0.87091748, 0.99937707, 0.97296632], "xyz": [5.45190074984348, 8.10174103668237, 37.99611190925382], "label": "Li", "properties": {}}, {"species": [{"element": "Li", "occu": 1}], "abc": [0.11162848, 0.03668384, 0.86128755], "xyz": [0.69878881500448, 0.29738822395744, 33.6348519605972], "label": "Li", "properties": {}}, {"species": [{"element": "Li", "occu": 1}], "abc": [0.11163107, 0.4633259, 0.86128551], "xyz": [0.69880502827757, 3.7560862361868996, 33.63477229487116], "label": "Li", "properties": {}}, {"species": [{"element": "Li", "occu": 1}], "abc": [0.87101947, 0.50058755, 0.97297493], "xyz": [5.45253920224597, 4.05815864505205, 37.9964481454799], "label": "Li", "properties": {}}, {"species": [{"element": "Li", "occu": 1}], "abc": [0.61407268, 0.53219912, 0.80603398], "xyz": [3.8440648872386802, 4.31442703622392, 31.477099132004135], "label": "Li", "properties": {}}, {"species": [{"element": "Li", "occu": 1}], "abc": [0.48206814, 0.97892786, 0.91508706], "xyz": [3.01772293506114, 7.935963565097259, 35.73582109036422], "label": "Li", "properties": {}}, {"species": [{"element": "Li", "occu": 1}], "abc": [0.48191569, 0.52104204, 0.9150747], "xyz": [3.01676860553119, 4.223978920493639, 35.73533840978881], "label": "Li", "properties": {}}, {"species": [{"element": "P", "occu": 1}], "abc": [0.84815522, 0.25001524, 0.22007648], "xyz": [5.30941011759422, 2.02682129749484, 8.594388511489955], "label": "P", "properties": {}}, {"species": [{"element": "P", "occu": 1}], "abc": [0.35295181, 0.7500462, 0.11209454], "xyz": [2.20946103596131, 6.0804677837442, 4.3774965265563655], "label": "P", "properties": {}}, {"species": [{"element": "P", "occu": 1}], "abc": [0.65492656, 0.25001998, 0.05591271], "xyz": [4.09980817419856, 2.0268597236841797, 2.183493449505688], "label": "P", "properties": {}}, {"species": [{"element": "P", "occu": 1}], "abc": [0.15186173, 0.75000203, 0.279923], "xyz": [0.95064698857523, 6.08010970678573, 10.93150442656027], "label": "P", "properties": {}}, {"species": [{"element": "P", "occu": 1}], "abc": [0.34507358, 0.7499483, 0.44410182], "xyz": [2.16014370219458, 6.0796741289053, 17.342987218533214], "label": "P", "properties": {}}, {"species": [{"element": "P", "occu": 1}], "abc": [0.6471051, 0.25001374, 0.38790128], "xyz": [4.0508462178501, 2.02680913730834, 15.14825348180891], "label": "P", "properties": {}}, {"species": [{"element": "P", "occu": 1}], "abc": [0.65188873, 0.75003132, 0.72007926], "xyz": [4.08079150725223, 6.0803471546941195, 28.1204103205676], "label": "P", "properties": {}}, {"species": [{"element": "P", "occu": 1}], "abc": [0.14704916, 0.24996147, 0.61209451], "xyz": [0.92052053619116, 2.02638539534277, 23.903408600001573], "label": "P", "properties": {}}, {"species": [{"element": "P", "occu": 1}], "abc": [0.84504358, 0.74992962, 0.55591096], "xyz": [5.28993140366458, 6.07952269404942, 21.70933835380933], "label": "P", "properties": {}}, {"species": [{"element": "P", "occu": 1}], "abc": [0.34815398, 0.24995708, 0.77992846], "xyz": [2.17942685525498, 2.0263498065302796, 30.457630894532908], "label": "P", "properties": {}}, {"species": [{"element": "P", "occu": 1}], "abc": [0.15491834, 0.2500751, 0.94410146], "xyz": [0.9697812174013399, 2.0273065700040998, 36.868886404875674], "label": "P", "properties": {}}, {"species": [{"element": "P", "occu": 1}], "abc": [0.85287638, 0.75002892, 0.88789445], "xyz": [5.33896434785738, 6.0803276983957195, 34.67390000283398], "label": "P", "properties": {}}, {"species": [{"element": "S", "occu": 1}], "abc": [0.73182384, 0.46386543, 0.19867732], "xyz": [4.58118137903184, 3.76046009313513, 7.758712228138207], "label": "S", "properties": {}}, {"species": [{"element": "S", "occu": 1}], "abc": [0.23509293, 0.53796382, 0.13381779], "xyz": [1.47167022224643, 4.36116025430162, 5.225829116355257], "label": "S", "properties": {}}, {"species": [{"element": "S", "occu": 1}], "abc": [0.75904849, 0.46732075, 0.03388287], "xyz": [4.7516063540239895, 3.78847165021325, 1.3231879602232266], "label": "S", "properties": {}}, {"species": [{"element": "S", "occu": 1}], "abc": [0.75910909, 0.03273932, 0.03388191], "xyz": [4.75198570705459, 0.26541082472212, 1.323150470469796], "label": "S", "properties": {}}, {"species": [{"element": "S", "occu": 1}], "abc": [0.2350913, 0.9620998, 0.13382325], "xyz": [1.4716600185263, 7.799541999741799, 5.226042339327893], "label": "S", "properties": {}}, {"species": [{"element": "S", "occu": 1}], "abc": [0.7318863, 0.03611634, 0.19869611], "xyz": [4.5815723755713, 0.29278762006493997, 7.759446011957955], "label": "S", "properties": {}}, {"species": [{"element": "S", "occu": 1}], "abc": [0.27315125, 0.75002307, 0.22997839], "xyz": [1.7099134405887502, 6.08028027366837, 8.981076182729552], "label": "S", "properties": {}}, {"species": [{"element": "S", "occu": 1}], "abc": [0.79374538, 0.25007754, 0.10450604], "xyz": [4.96880718527638, 2.02732635057414, 4.081151741237], "label": "S", "properties": {}}, {"species": [{"element": "S", "occu": 1}], "abc": [0.23596541, 0.75006534, 0.06175098], "xyz": [1.47713190429491, 6.08062294772394, 2.4114885565474604], "label": "S", "properties": {}}, {"species": [{"element": "S", "occu": 1}], "abc": [0.17368118, 0.25001156, 0.21635542], "xyz": [1.08723567642218, 2.02679146450396, 8.449074322011077], "label": "S", "properties": {}}, {"species": [{"element": "S", "occu": 1}], "abc": [0.67948261, 0.750042, 0.1172359], "xyz": [4.25352784395211, 6.080433735221999, 4.578276025198991], "label": "S", "properties": {}}, {"species": [{"element": "S", "occu": 1}], "abc": [0.3301852, 0.2500799, 0.05774898], "xyz": [2.0669431729252, 2.0273454826009, 2.2552031469344804], "label": "S", "properties": {}}, {"species": [{"element": "S", "occu": 1}], "abc": [0.26814196, 0.53614201, 0.30131698], "xyz": [1.6785555306439601, 4.34639122138991, 11.766978421450801], "label": "S", "properties": {}}, {"species": [{"element": "S", "occu": 1}], "abc": [0.24077114, 0.53267418, 0.46611671], "xyz": [1.50721553861414, 4.318278248356379, 18.20270888300965], "label": "S", "properties": {}}, {"species": [{"element": "S", "occu": 1}], "abc": [0.76500769, 0.46206305, 0.3661812], "xyz": [4.78891065402319, 3.7458485751725497, 14.300044686299989], "label": "S", "properties": {}}, {"species": [{"element": "S", "occu": 1}], "abc": [0.76503364, 0.03793703, 0.36619675], "xyz": [4.78907309975164, 0.30754757337072997, 14.30065194220191], "label": "S", "properties": {}}, {"species": [{"element": "S", "occu": 1}], "abc": [0.24102071, 0.96730135, 0.46611949], "xyz": [1.50877783458521, 7.841709878467849, 18.20281744708729], "label": "S", "properties": {}}, {"species": [{"element": "S", "occu": 1}], "abc": [0.26814367, 0.96387066, 0.30131676], "xyz": [1.67856623516017, 7.813897991652059, 11.766969830048975], "label": "S", "properties": {}}, {"species": [{"element": "S", "occu": 1}], "abc": [0.72695924, 0.25002656, 0.27002302], "xyz": [4.55072922139724, 2.02691306636896, 10.5448921253458], "label": "S", "properties": {}}, {"species": [{"element": "S", "occu": 1}], "abc": [0.76406458, 0.25004126, 0.43825028], "xyz": [4.78300683163558, 2.0270322361966597, 17.114473893753917], "label": "S", "properties": {}}, {"species": [{"element": "S", "occu": 1}], "abc": [0.20639321, 0.75004505, 0.39551045], "xyz": [1.2920113813327099, 6.080458460934549, 15.445405468381823], "label": "S", "properties": {}}, {"species": [{"element": "S", "occu": 1}], "abc": [0.82632047, 0.74999713, 0.28364047], "xyz": [5.17272565249697, 6.08006998350983, 11.07667841998205], "label": "S", "properties": {}}, {"species": [{"element": "S", "occu": 1}], "abc": [0.66980269, 0.74986519, 0.44225479], "xyz": [4.1929320190681905, 6.0790003735052895, 17.270857323451388], "label": "S", "properties": {}}, {"species": [{"element": "S", "occu": 1}], "abc": [0.32062387, 0.25000043, 0.38275387], "xyz": [2.0070897156303698, 2.0267012359201297, 14.947237719616018], "label": "S", "properties": {}}, {"species": [{"element": "S", "occu": 1}], "abc": [0.76815588, 0.53614303, 0.69869122], "xyz": [4.80861816916188, 4.346399490316729, 27.285168293526418], "label": "S", "properties": {}}, {"species": [{"element": "S", "occu": 1}], "abc": [0.26494038, 0.46201568, 0.63381228], "xyz": [1.6585137967213799, 3.7454645564828795, 24.7515271857913], "label": "S", "properties": {}}, {"species": [{"element": "S", "occu": 1}], "abc": [0.74071792, 0.53263497, 0.53389066], "xyz": [4.636857884021921, 4.31796038108127, 20.849405418951584], "label": "S", "properties": {}}, {"species": [{"element": "S", "occu": 1}], "abc": [0.74093304, 0.96725814, 0.53388776], "xyz": [4.63820452468104, 7.84135958402874, 20.849292168654767], "label": "S", "properties": {}}, {"species": [{"element": "S", "occu": 1}], "abc": [0.26500013, 0.03792088, 0.63380446], "xyz": [1.65888782879363, 0.30741664869607993, 24.751221800508148], "label": "S", "properties": {}}, {"species": [{"element": "S", "occu": 1}], "abc": [0.76812688, 0.96394453, 0.69868908], "xyz": [4.80843663058288, 7.81449684030323, 27.28508472261773], "label": "S", "properties": {}}, {"species": [{"element": "S", "occu": 1}], "abc": [0.22700665, 0.25000097, 0.72997726], "xyz": [1.42105050567415, 2.0267056135872696, 28.50694529916562], "label": "S", "properties": {}}, {"species": [{"element": "S", "occu": 1}], "abc": [0.70635199, 0.74995355, 0.60450675], "xyz": [4.42172884615249, 6.079716689558049, 23.607092713033808], "label": "S", "properties": {}}, {"species": [{"element": "S", "occu": 1}], "abc": [0.26400983, 0.24997412, 0.56174525], "xyz": [1.65268859931833, 2.0264879462489196, 21.937178034581674], "label": "S", "properties": {}}, {"species": [{"element": "S", "occu": 1}], "abc": [0.32631061, 0.74999685, 0.71637954], "xyz": [2.04268842938011, 6.08006771360835, 27.97592949706602], "label": "S", "properties": {}}, {"species": [{"element": "S", "occu": 1}], "abc": [0.82052976, 0.24997018, 0.61723045], "xyz": [5.13647609164176, 2.02645600549238, 24.10397643774462], "label": "S", "properties": {}}, {"species": [{"element": "S", "occu": 1}], "abc": [0.16978942, 0.74988626, 0.5577463], "xyz": [1.06287344951842, 6.07917118359166, 21.78101173303949], "label": "S", "properties": {}}, {"species": [{"element": "S", "occu": 1}], "abc": [0.23194218, 0.46388438, 0.80130616], "xyz": [1.45194668163318, 3.7606137168245795, 31.292469125688182], "label": "S", "properties": {}}, {"species": [{"element": "S", "occu": 1}], "abc": [0.25910756, 0.46737599, 0.9661231], "xyz": [1.6220006293295601, 3.78891946934809, 37.728871669180926], "label": "S", "properties": {}}, {"species": [{"element": "S", "occu": 1}], "abc": [0.73503458, 0.5379404, 0.86618043], "xyz": [4.60128045410558, 4.3609703932564, 33.825927861393595], "label": "S", "properties": {}}, {"species": [{"element": "S", "occu": 1}], "abc": [0.7350068, 0.96209464, 0.86617858], "xyz": [4.6011065526668, 7.79950016870024, 33.82585561551459], "label": "S", "properties": {}}, {"species": [{"element": "S", "occu": 1}], "abc": [0.25905122, 0.03276359, 0.96611829], "xyz": [1.6216479436902203, 0.26560757653968997, 37.72868382989551], "label": "S", "properties": {}}, {"species": [{"element": "S", "occu": 1}], "abc": [0.23186182, 0.03606211, 0.80131085], "xyz": [1.45144363197082, 0.29234798878900997, 31.29265227875442], "label": "S", "properties": {}}, {"species": [{"element": "S", "occu": 1}], "abc": [0.77332896, 0.74999897, 0.77001244], "xyz": [4.8410013964809595, 6.08008490000527, 30.070392202021537], "label": "S", "properties": {}}, {"species": [{"element": "S", "occu": 1}], "abc": [0.7358595, 0.75008783, 0.93823993], "xyz": [4.6064444128845, 6.0808052694535295, 36.639982952349754], "label": "S", "properties": {}}, {"species": [{"element": "S", "occu": 1}], "abc": [0.2936487, 0.25007396, 0.89550705], "xyz": [1.8382264732137, 2.02729732826236, 34.971185937171754], "label": "S", "properties": {}}, {"species": [{"element": "S", "occu": 1}], "abc": [0.67370535, 0.24988991, 0.78365605], "xyz": [4.21736247943785, 2.02580527337881, 30.60320009243877], "label": "S", "properties": {}}, {"species": [{"element": "S", "occu": 1}], "abc": [0.83019895, 0.25011139, 0.94224784], "xyz": [5.19700474725145, 2.0276007654494896, 36.796499158257284], "label": "S", "properties": {}}, {"species": [{"element": "S", "occu": 1}], "abc": [0.17934488, 0.7499875, 0.88275097], "xyz": [1.1226901609008801, 6.0799919151125, 34.4730377143192], "label": "S", "properties": {}}]}, "formula": "(Li3PS4)12.0", "bandgap": 2.6334000000000004}