{"miller": "001_0.25", "final_energy": -562.98395581, "sigma": -0.0009682141997701292, "incar_parameters": {"SYSTEM": "unknown system", "LCOMPAT": false, "PREC": "normal", "ENMAX": 520.0, "ENAUG": 628.945, "EDIFF": 1e-05, "IALGO": 38, "IWAVPR": 11, "NBANDS": 370, "NBANDSLOW": -1, "NBANDSHIGH": -1, "NELECT": 608.0, "TURBO": 0, "IRESTART": 0, "NREBOOT": 0, "NMIN": 0, "EREF": 0.0, "ISMEAR": 0, "SIGMA": 0.05, "KSPACING": 0.5, "KGAMMA": true, "KBLOWUP": true, "LREAL": true, "ROPT": [-0.0005, -0.0005, -0.0005], "LMAXPAW": -100, "LMAXMIX": 2, "NLSPLINE": false, "ISTART": 0, "ICHARG": 2, "INIWAV": 1, "ISPIN": 1, "LNONCOLLINEAR": false, "MAGMOM": [0.6, 0.6, 0.6, 0.6, 0.6, 0.6, 0.6, 0.6, 0.6, 0.6, 0.6, 0.6, 0.6, 0.6, 0.6, 0.6, 0.6, 0.6, 0.6, 0.6, 0.6, 0.6, 0.6, 0.6, 0.6, 0.6, 0.6, 0.6, 0.6, 0.6, 0.6, 0.6, 0.6, 0.6, 0.6, 0.6, 0.6, 0.6, 0.6, 0.6, 0.6, 0.6, 0.6, 0.6, 0.6, 0.6, 0.6, 0.6, 0.6, 0.6, 0.6, 0.6, 0.6, 0.6, 0.6, 0.6, 0.6, 0.6, 0.6, 0.6, 0.6, 0.6, 0.6, 0.6, 0.6, 0.6, 0.6, 0.6, 0.6, 0.6, 0.6, 0.6, 0.6, 0.6, 0.6, 0.6, 0.6, 0.6, 0.6, 0.6, 0.6, 0.6, 0.6, 0.6, 0.6, 0.6, 0.6, 0.6, 0.6, 0.6, 0.6, 0.6, 0.6, 0.6, 0.6, 0.6, 0.6, 0.6, 0.6, 0.6, 0.6, 0.6, 0.6, 0.6, 0.6, 0.6, 0.6, 0.6, 0.6, 0.6, 0.6, 0.6, 0.6, 0.6, 0.6, 0.6, 0.6, 0.6, 0.6, 0.6, 0.6, 0.6, 0.6, 0.6, 0.6, 0.6, 0.6, 0.6], "NUPDOWN": -1.0, "LSORBIT": false, "SAXIS": [0.0, 0.0, 1.0], "LSPIRAL": false, "QSPIRAL": [0.0, 0.0, 0.0], "LZEROZ": false, "LASPH": false, "LMETAGGA": false, "NELM": 100, "NELMDL": -5, "NELMIN": 6, "ENINI": 520.0, "LDIAG": true, "LSUBROT": false, "WEIMIN": 0.001, "EBREAK": 1e-08, "DEPER": 0.3, "NRMM": 4, "TIME": 0.4, "AMIX": 0.4, "BMIX": 1.0, "AMIN": 0.1, "AMIX_MAG": 1.6, "BMIX_MAG": 1.0, "IMIX": 4, "MIXFIRST": false, "MAXMIX": -45, "WC": 100.0, "INIMIX": 1, "MIXPRE": 1, "MREMOVE": 5, "LDIPOL": false, "LMONO": false, "IDIPOL": 0, "EPSILON": 1.0, "DIPOL": [-100.0, -100.0, -100.0], "EFIELD": 0.0, "NGX": 36, "NGY": 48, "NGZ": 294, "NGXF": 72, "NGYF": 96, "NGZF": 588, "ADDGRID": false, "NSW": 150, "IBRION": 2, "MDALGO": 0, "ISIF": 3, "PSTRESS": 0.0, "EDIFFG": -0.01, "NFREE": 1, "POTIM": 0.5, "SMASS": -3.0, "SCALEE": 1.0, "TEBEG": 0.0001, "TEEND": 0.0001, "NBLOCK": 1, "KBLOCK": 150, "NPACO": 256, "APACO": 10.0, "ISYM": 0, "SYMPREC": 1e-05, "LORBIT": 11, "RWIGS": [-1.0, -1.0, -1.0], "NEDOS": 301, "EMIN": 10.0, "EMAX": -10.0, "EFERMI": 0.0, "NWRITE": 2, "LWAVE": false, "LDOWNSAMPLE": false, "LCHARG": false, "LPARD": false, "LVTOT": false, "LVHAR": false, "LELF": false, "LOPTICS": false, "STM": [0.0, 0.0, 0.0, 0.0, 0.0, 0.0, 0.0], "NPAR": 2, "NSIM": 4, "NBLK": -1, "LPLANE": true, "LSCALAPACK": true, "LSCAAWARE": false, "LSCALU": false, "LASYNC": false, "LORBITALREAL": false, "IDIOT": 3, "PHON_NSTRUCT": -1, "LMUSIC": false, "POMASS": [7.01, 30.974, 32.066], "DARWINR": [0.0, 0.0, 0.0], "DARWINV": [1.0, 1.0, 1.0], "LCORR": true, "GGA_COMPAT": true, "LBERRY": false, "ICORELEVEL": 0, "LDAU": false, "I_CONSTRAINED_M": 0, "GGA": "--", "VOSKOWN": 0, "LHFCALC": false, "PRECFOCK": "", "LSYMGRAD": false, "LHFONE": false, "LRHFCALC": false, "LTHOMAS": false, "LMODELHF": false, "LFOCKACE": false, "ENCUT4O": -1.0, "EXXOEP": 0, "FOURORBIT": 0, "AEXX": 0.0, "HFALPHA": 0.0, "MCALPHA": 0.0, "ALDAX": 1.0, "AGGAX": 1.0, "ALDAC": 1.0, "AGGAC": 1.0, "NKREDX": 1, "NKREDY": 1, "NKREDZ": 1, "SHIFTRED": false, "ODDONLY": false, "EVENONLY": false, "LMAXFOCK": 0, "NMAXFOCKAE": 0, "LFOCKAEDFT": false, "HFSCREEN": 0.0, "HFSCREENC": 0.0, "NBANDSGWLOW": 0, "LUSE_VDW": false, "Zab_VDW": -0.8491, "PARAM1": 0.1234, "PARAM2": 1.0, "PARAM3": 0.0, "MODEL_GW": 0, "MODEL_EPS0": 12.42597185, "MODEL_ALPHA": 1.0, "LEPSILON": false, "LRPA": false, "LNABLA": false, "LVEL": false, "CSHIFT": 0.1, "OMEGAMAX": -1.0, "DEG_THRESHOLD": 0.002, "RTIME": -0.1, "WPLASMAI": 0.0, "DFIELD": [0.0, 0.0, 0.0], "WPLASMA": [0.0, 0.0, 0.0, 0.0, 0.0, 0.0, 0.0, 0.0, 0.0], "NUCIND": false, "MAGPOS": [0.0, 0.0, 0.0], "LNICSALL": true, "ORBITALMAG": false, "LMAGBLOCH": false, "LCHIMAG": false, "LGAUGE": true, "MAGATOM": 0, "MAGDIPOL": [0.0, 0.0, 0.0], "AVECCONST": [0.0, 0.0, 0.0], "LFINITE_TEMPERATURE": false, "LADDER": false, "LRPAFORCE": false, "LFXC": false, "LHARTREE": true, "IBSE": 0, "KPOINT": [-1, 0, 0, 0], "LTCTC": false, "LTCTE": false, "LTETE": false, "LTRIPLET": false, "LFXCEPS": false, "LFXHEG": false, "NATURALO": 2, "LHOLEGF": false, "L2ORDER": false, "LDMP1": false, "LMP2LT": false, "LSMP2LT": false, "LGWLF": false, "ENCUTGW": -2.0, "ENCUTGWSOFT": -2.0, "ENCUTLF": -1.0, "LESF_SPLINES": false, "LMAXMP2": -1, "SCISSOR": 0.0, "NOMEGA": 0, "NOMEGAR": 0, "NBANDSGW": -1, "NBANDSO": -1, "NBANDSV": -1, "NELMGW": 1, "NELMHF": 1, "DIM": 3, "IESPILON": 4, "ANTIRES": 0, "OMEGAMIN": -30.0, "OMEGATL": -200.0, "OMEGAGRID": 0, "LSELFENERGY": false, "LSPECTRAL": false, "LSPECTRALGW": false, "LSINGLES": false, "LFERMIGW": false, "ODDONLYGW": false, "EVENONLYGW": false, "NKREDLFX": 1, "NKREDLFY": 1, "NKREDLFZ": 1, "MAXMEM": 2800, "TELESCOPE": 0, "NTAUPAR": -1, "NOMEGAPAR": -1, "DAMP_NEWTON": 0.80000001, "LAMBDA": 1.0, "OFIELD_KAPPA": 0.0, "OFIELD_K": [0.0, 0.0, 0.0], "OFIELD_Q6_NEAR": 0.0, "OFIELD_Q6_FAR": 0.0, "OFIELD_A": 0.0, "KPOINTS_OPT_MODE": 1, "LKPOINTS_OPT": false, "@module": "pymatgen.io.vasp.inputs", "@class": "Incar"}, "relaxed_structures": {"@module": "pymatgen.core.structure", "@class": "Structure", "charge": 0, "lattice": {"matrix": [[6.259951, 0.0, 0.0], [0.0, 8.106791, 0.0], [0.0, 0.0, 52.23591112]], "a": 6.259951, "b": 8.106791, "c": 52.23591112, "alpha": 90.0, "beta": 90.0, "gamma": 90.0, "volume": 2650.8739947289505}, "sites": [{"species": [{"element": "Li", "occu": 1}], "abc": [0.20278606, 0.97001233, 0.14671106], "xyz": [1.26943079908306, 7.863687226733029, 7.663585890480987], "label": "Li", "properties": {}}, {"species": [{"element": "Li", "occu": 1}], "abc": [0.99980312, 0.04245659, 0.22973965], "xyz": [6.25871854084712, 0.34418670170269, 12.000659938139906], "label": "Li", "properties": {}}, {"species": [{"element": "Li", "occu": 1}], "abc": [0.66767302, 0.03807778, 0.10539738], "xyz": [4.17960038922202, 0.30868860420398, 5.505528173960865], "label": "Li", "properties": {}}, {"species": [{"element": "Li", "occu": 1}], "abc": [0.44684549, 0.97580657, 0.02215323], "xyz": [2.79723087197099, 7.91065991941687, 1.1571941533009176], "label": "Li", "properties": {}}, {"species": [{"element": "Li", "occu": 1}], "abc": [0.4914865, 0.53780098, 0.02156986], "xyz": [3.0766814071615, 4.3598401444551795, 1.1267212898308432], "label": "Li", "properties": {}}, {"species": [{"element": "Li", "occu": 1}], "abc": [0.7020827, 0.46931218, 0.10375944], "xyz": [4.3950032999477, 3.8046157570143797, 5.419968885700972], "label": "Li", "properties": {}}, {"species": [{"element": "Li", "occu": 1}], "abc": [0.95405361, 0.47482849, 0.22854927], "xyz": [5.97232884997311, 3.84933532927559, 11.938479354260881], "label": "Li", "properties": {}}, {"species": [{"element": "Li", "occu": 1}], "abc": [0.1691084, 0.53923065, 0.14478079], "xyz": [1.0586102976884, 4.3714301803441495, 7.562756478323384], "label": "Li", "properties": {}}, {"species": [{"element": "Li", "occu": 1}], "abc": [0.64311447, 0.9538742, 0.18917559], "xyz": [4.02586506959097, 7.7328587796922, 9.88175930531356], "label": "Li", "properties": {}}, {"species": [{"element": "Li", "occu": 1}], "abc": [0.01396737, 0.95116426, 0.06455679], "xyz": [0.08743505179887, 7.710889862489659, 3.3721827446325046], "label": "Li", "properties": {}}, {"species": [{"element": "Li", "occu": 1}], "abc": [0.1389587, 0.45425544, 0.06110674], "xyz": [0.8698746530236999, 3.6825539126930398, 3.1919662394729484], "label": "Li", "properties": {}}, {"species": [{"element": "Li", "occu": 1}], "abc": [0.51757913, 0.45160837, 0.18568743], "xyz": [3.24001999242263, 3.6610946694406694, 9.699552089581221], "label": "Li", "properties": {}}, {"species": [{"element": "Li", "occu": 1}], "abc": [0.20666247, 0.97534459, 0.39598942], "xyz": [1.2936969357389698, 7.906914744110689, 20.68486814758035], "label": "Li", "properties": {}}, {"species": [{"element": "Li", "occu": 1}], "abc": [0.98108931, 0.03446391, 0.47873159], "xyz": [6.14157100722381, 0.27939171541281, 25.00698078557628], "label": "Li", "properties": {}}, {"species": [{"element": "Li", "occu": 1}], "abc": [0.70814278, 0.0308267, 0.35304824], "xyz": [4.43293910380378, 0.24990561411969997, 18.441796485712427], "label": "Li", "properties": {}}, {"species": [{"element": "Li", "occu": 1}], "abc": [0.49994196, 0.96055192, 0.27011184], "xyz": [3.1296121724439603, 7.7869936600887195, 14.10953806669966], "label": "Li", "properties": {}}, {"species": [{"element": "Li", "occu": 1}], "abc": [0.45609044, 0.53079103, 0.27126084], "xyz": [2.8551038059684397, 4.30301194488473, 14.16955712857654], "label": "Li", "properties": {}}, {"species": [{"element": "Li", "occu": 1}], "abc": [0.66333751, 0.46226467, 0.3549232], "xyz": [4.152460309062009, 3.7474830663739698, 18.539736729625982], "label": "Li", "properties": {}}, {"species": [{"element": "Li", "occu": 1}], "abc": [0.96095664, 0.47013257, 0.47745746], "xyz": [6.01554147952464, 3.81126648728287, 24.940425444140953], "label": "Li", "properties": {}}, {"species": [{"element": "Li", "occu": 1}], "abc": [0.1654593, 0.54447952, 0.39467213], "xyz": [1.0357671104943, 4.41398167242032, 20.616058304221085], "label": "Li", "properties": {}}, {"species": [{"element": "Li", "occu": 1}], "abc": [0.63906933, 0.95434396, 0.43877487], "xyz": [4.00054269140283, 7.736667025832359, 22.919805111009552], "label": "Li", "properties": {}}, {"species": [{"element": "Li", "occu": 1}], "abc": [0.14782424, 0.05330065, 0.31043455], "xyz": [0.92537249901224, 0.43209722971414993, 16.215831562377193], "label": "Li", "properties": {}}, {"species": [{"element": "Li", "occu": 1}], "abc": [0.01627506, 0.55227621, 0.31407329], "xyz": [0.10188107812206, 4.47718780874211, 16.405904461605985], "label": "Li", "properties": {}}, {"species": [{"element": "Li", "occu": 1}], "abc": [0.51675802, 0.45570582, 0.43522148], "xyz": [3.2348798840570203, 3.6943118402236195, 22.734190546794856], "label": "Li", "properties": {}}, {"species": [{"element": "Li", "occu": 1}], "abc": [0.54614437, 0.532515, 0.64680077], "xyz": [3.4188369951258704, 4.316987809364999, 33.786227534067564], "label": "Li", "properties": {}}, {"species": [{"element": "Li", "occu": 1}], "abc": [0.750924, 0.46058188, 0.72993823], "xyz": [4.7007474447240005, 3.73384103954708, 38.12898850537012], "label": "Li", "properties": {}}, {"species": [{"element": "Li", "occu": 1}], "abc": [0.07760393, 0.4643935, 0.60539117], "xyz": [0.48579679920743, 3.7647410462585, 31.623159348952807], "label": "Li", "properties": {}}, {"species": [{"element": "Li", "occu": 1}], "abc": [0.28899013, 0.53017081, 0.52253094], "xyz": [1.8090640532836302, 4.29798395097071, 27.294879739290053], "label": "Li", "properties": {}}, {"species": [{"element": "Li", "occu": 1}], "abc": [0.27107796, 0.96661727, 0.52136387], "xyz": [1.69693474677996, 7.83616418488057, 27.23391677449923], "label": "Li", "properties": {}}, {"species": [{"element": "Li", "occu": 1}], "abc": [0.04611006, 0.03113132, 0.60425011], "xyz": [0.28864671620706, 0.25237510479412, 31.56355504021022], "label": "Li", "properties": {}}, {"species": [{"element": "Li", "occu": 1}], "abc": [0.79395899, 0.03065476, 0.72874837], "xyz": [4.97014437340949, 0.24851173247515998, 38.06683508416487], "label": "Li", "properties": {}}, {"species": [{"element": "Li", "occu": 1}], "abc": [0.57784484, 0.96567639, 0.64527588], "xyz": [3.6172803840028402, 7.82853666736449, 33.70657351555978], "label": "Li", "properties": {}}, {"species": [{"element": "Li", "occu": 1}], "abc": [0.10337547, 0.55218213, 0.68947398], "xyz": [0.64712537680197, 4.47642512184483, 36.01530153883266], "label": "Li", "properties": {}}, {"species": [{"element": "Li", "occu": 1}], "abc": [0.72850924, 0.5473058, 0.56463725], "xyz": [4.56043214544724, 4.436893733687799, 29.494341206041216], "label": "Li", "properties": {}}, {"species": [{"element": "Li", "occu": 1}], "abc": [0.6118572, 0.04628258, 0.56123427], "xyz": [3.8301960909972, 0.37520320300078, 29.316583445218082], "label": "Li", "properties": {}}, {"species": [{"element": "Li", "occu": 1}], "abc": [0.233048, 0.0522091, 0.68594301], "xyz": [1.4588690606480001, 0.4232482619981, 35.83085810374527], "label": "Li", "properties": {}}, {"species": [{"element": "Li", "occu": 1}], "abc": [0.58330108, 0.53806132, 0.89464305], "xyz": [3.65143617904708, 4.36195066642412, 46.732494843925714], "label": "Li", "properties": {}}, {"species": [{"element": "Li", "occu": 1}], "abc": [0.80327931, 0.47599542, 0.9778608], "xyz": [5.02848911991381, 3.85879538689722, 51.07944983653209], "label": "Li", "properties": {}}, {"species": [{"element": "Li", "occu": 1}], "abc": [0.04838753, 0.47036064, 0.85331394], "xyz": [0.30290356681103, 3.8131154031062398, 44.57363112729701], "label": "Li", "properties": {}}, {"species": [{"element": "Li", "occu": 1}], "abc": [0.25169358, 0.54196134, 0.77027057], "xyz": [1.5755894778145798, 4.39356731345994, 40.23578503287174], "label": "Li", "properties": {}}, {"species": [{"element": "Li", "occu": 1}], "abc": [0.29683571, 0.97459082, 0.77141994], "xyz": [1.8581769996502098, 7.900804088258619, 40.29582342203573], "label": "Li", "properties": {}}, {"species": [{"element": "Li", "occu": 1}], "abc": [0.08279476, 0.03968708, 0.85525635], "xyz": [0.51829114065676, 0.32173486296028, 44.67509468341561], "label": "Li", "properties": {}}, {"species": [{"element": "Li", "occu": 1}], "abc": [0.75346212, 0.03988873, 0.97808021], "xyz": [4.71663595155612, 0.32336959736543, 51.090910917790936], "label": "Li", "properties": {}}, {"species": [{"element": "Li", "occu": 1}], "abc": [0.54838192, 0.96940771, 0.89621586], "xyz": [3.4328439484859197, 7.858785698758609, 46.814652007294356], "label": "Li", "properties": {}}, {"species": [{"element": "Li", "occu": 1}], "abc": [0.23680138, 0.4508605, 0.9353371], "xyz": [1.48236503553238, 3.6550318436555, 48.85818562283855], "label": "Li", "properties": {}}, {"species": [{"element": "Li", "occu": 1}], "abc": [0.60716202, 0.45389957, 0.81080638], "xyz": [3.80080449426102, 3.6796689489798697, 42.35321000120894], "label": "Li", "properties": {}}, {"species": [{"element": "Li", "occu": 1}], "abc": [0.73566566, 0.95106831, 0.81430876], "xyz": [4.60523098398266, 7.71011201589321, 42.53616001159741], "label": "Li", "properties": {}}, {"species": [{"element": "Li", "occu": 1}], "abc": [0.11002284, 0.95377459, 0.93908183], "xyz": [0.68873758728084, 7.732051262240689, 49.05379500628695], "label": "Li", "properties": {}}, {"species": [{"element": "P", "occu": 1}], "abc": [0.92284976, 0.25128629, 0.16521669], "xyz": [5.77699427796176, 2.03712543419539, 8.630244334380592], "label": "P", "properties": {}}, {"species": [{"element": "P", "occu": 1}], "abc": [0.24012886, 0.74984876, 0.20976081], "xyz": [1.50319489728586, 6.078867178929159, 10.957047027619206], "label": "P", "properties": {}}, {"species": [{"element": "P", "occu": 1}], "abc": [0.42143246, 0.75024631, 0.08505018], "xyz": [2.63814654940946, 6.082090033691209, 4.442673643220002], "label": "P", "properties": {}}, {"species": [{"element": "P", "occu": 1}], "abc": [0.73511888, 0.25049596, 0.04066643], "xyz": [4.60180816797488, 2.03071839406436, 2.1242480230477017], "label": "P", "properties": {}}, {"species": [{"element": "P", "occu": 1}], "abc": [0.92139317, 0.2509066, 0.41470103], "xyz": [5.76787609593467, 2.0340473667206, 21.662286144452455], "label": "P", "properties": {}}, {"species": [{"element": "P", "occu": 1}], "abc": [0.23624476, 0.75127615, 0.45932442], "xyz": [1.47888062160676, 6.0904387313346495, 23.99322957836555], "label": "P", "properties": {}}, {"species": [{"element": "P", "occu": 1}], "abc": [0.42245898, 0.75346612, 0.33460189], "xyz": [2.64457251430998, 6.10819236042092, 17.478234586624016], "label": "P", "properties": {}}, {"species": [{"element": "P", "occu": 1}], "abc": [0.74016924, 0.25323118, 0.29000641], "xyz": [4.633423174107239, 2.05289225094338, 15.148749056990278], "label": "P", "properties": {}}, {"species": [{"element": "P", "occu": 1}], "abc": [0.82585774, 0.25238607, 0.66549054], "xyz": [5.16982898537074, 2.04604112080137, 34.762504698640804], "label": "P", "properties": {}}, {"species": [{"element": "P", "occu": 1}], "abc": [0.50991336, 0.75315061, 0.7100031], "xyz": [3.19203264784536, 6.10563458679251, 37.08765882652447], "label": "P", "properties": {}}, {"species": [{"element": "P", "occu": 1}], "abc": [0.32628496, 0.75166025, 0.58524853], "xyz": [2.04252786163696, 6.093552549757749, 30.570990196190653], "label": "P", "properties": {}}, {"species": [{"element": "P", "occu": 1}], "abc": [0.01432873, 0.25012323, 0.54078952], "xyz": [0.08969714769223, 2.0276967498549294, 28.24863330134746], "label": "P", "properties": {}}, {"species": [{"element": "P", "occu": 1}], "abc": [0.83011355, 0.2503275, 0.91483858], "xyz": [5.19647014743605, 2.0293527240524996, 47.787426754027], "label": "P", "properties": {}}, {"species": [{"element": "P", "occu": 1}], "abc": [0.51460589, 0.75027886, 0.95926297], "xyz": [3.22140765571139, 6.082353909738259, 50.10797524162722], "label": "P", "properties": {}}, {"species": [{"element": "P", "occu": 1}], "abc": [0.32874786, 0.75155309, 0.83478413], "xyz": [2.05794549495486, 6.09268382603419, 43.60570961906652], "label": "P", "properties": {}}, {"species": [{"element": "P", "occu": 1}], "abc": [0.01117781, 0.25021977, 0.7902301], "xyz": [0.06997254288731, 2.0284793794580698, 41.27838926794871], "label": "P", "properties": {}}, {"species": [{"element": "S", "occu": 1}], "abc": [0.79273698, 0.46104558, 0.14973717], "xyz": [4.96249465068798, 3.73760015853378, 7.82165750348033], "label": "S", "properties": {}}, {"species": [{"element": "S", "occu": 1}], "abc": [0.34044244, 0.53224301, 0.22611203], "xyz": [2.1311529927204402, 4.314782843280909, 11.811167902242772], "label": "S", "properties": {}}, {"species": [{"element": "S", "occu": 1}], "abc": [0.31790649, 0.53318302, 0.1014277], "xyz": [1.99007904998199, 4.322403307888819, 5.298168322306023], "label": "S", "properties": {}}, {"species": [{"element": "S", "occu": 1}], "abc": [0.86875257, 0.45799749, 0.02482972], "xyz": [5.4383485193240695, 3.71288992995459, 1.2970030470544862], "label": "S", "properties": {}}, {"species": [{"element": "S", "occu": 1}], "abc": [0.83761614, 0.03507337, 0.02389842], "xyz": [5.24343599320914, 0.28433248025567, 1.2483557430284304], "label": "S", "properties": {}}, {"species": [{"element": "S", "occu": 1}], "abc": [0.29121821, 0.95949402, 0.10063783], "xyz": [1.8230117249077098, 7.778417485889819, 5.256908743189669], "label": "S", "properties": {}}, {"species": [{"element": "S", "occu": 1}], "abc": [0.3741903, 0.95846956, 0.22530129], "xyz": [2.3424129426753, 7.77011240278196, 11.768818159661343], "label": "S", "properties": {}}, {"species": [{"element": "S", "occu": 1}], "abc": [0.81814989, 0.03451754, 0.1488426], "xyz": [5.1215782220553905, 0.27982648261413995, 7.774928824469711], "label": "S", "properties": {}}, {"species": [{"element": "S", "occu": 1}], "abc": [0.35408504, 0.74285276, 0.17228578], "xyz": [2.2165550002330403, 6.02215206909316, 8.999504691319872], "label": "S", "properties": {}}, {"species": [{"element": "S", "occu": 1}], "abc": [0.80926447, 0.24516151, 0.20270703], "xyz": [5.06595592824097, 1.9874731228144098, 10.588586402479173], "label": "S", "properties": {}}, {"species": [{"element": "S", "occu": 1}], "abc": [0.85191854, 0.24284865, 0.07799309], "xyz": [5.33296831639154, 1.9687232501821499, 4.07404011721416], "label": "S", "properties": {}}, {"species": [{"element": "S", "occu": 1}], "abc": [0.30517685, 0.74469525, 0.04767623], "xyz": [1.91039212733435, 6.0370887504427495, 2.4904113128166774], "label": "S", "properties": {}}, {"species": [{"element": "S", "occu": 1}], "abc": [0.24837813, 0.25715382, 0.1613597], "xyz": [1.55483492327163, 2.0846922735916196, 8.428770947549863], "label": "S", "properties": {}}, {"species": [{"element": "S", "occu": 1}], "abc": [0.91494017, 0.76145475, 0.21360076], "xyz": [5.7274806321316705, 6.172954514207249, 11.15763031452445], "label": "S", "properties": {}}, {"species": [{"element": "S", "occu": 1}], "abc": [0.74716555, 0.75653128, 0.08875424], "xyz": [4.67721973188805, 6.13304097192248, 4.636158592163149], "label": "S", "properties": {}}, {"species": [{"element": "S", "occu": 1}], "abc": [0.40902503, 0.2597001, 0.03708262], "xyz": [2.56047664557353, 2.1053344333790998, 1.9370444424167341], "label": "S", "properties": {}}, {"species": [{"element": "S", "occu": 1}], "abc": [0.78922127, 0.46053088, 0.39933173], "xyz": [4.94048647835777, 3.7334275932060796, 20.859456755675836], "label": "S", "properties": {}}, {"species": [{"element": "S", "occu": 1}], "abc": [0.3476003, 0.53724886, 0.47576542], "xyz": [2.1759608455853, 4.35536422300826, 24.85204019308947], "label": "S", "properties": {}}, {"species": [{"element": "S", "occu": 1}], "abc": [0.28868197, 0.54465719, 0.35005492], "xyz": [1.80713498678347, 4.41542200597729, 18.28543768823871], "label": "S", "properties": {}}, {"species": [{"element": "S", "occu": 1}], "abc": [0.841264, 0.47078005, 0.2736802], "xyz": [5.266271418064, 3.8165154723195496, 14.295934602503822], "label": "S", "properties": {}}, {"species": [{"element": "S", "occu": 1}], "abc": [0.87431065, 0.04443052, 0.27459055], "xyz": [5.47314182777815, 0.36018893966132, 14.343487564191914], "label": "S", "properties": {}}, {"species": [{"element": "S", "occu": 1}], "abc": [0.32131208, 0.97109199, 0.35087402], "xyz": [2.01139787650808, 7.87243980470409, 18.328224123037103], "label": "S", "properties": {}}, {"species": [{"element": "S", "occu": 1}], "abc": [0.36239564, 0.9602673, 0.47548468], "xyz": [2.2685789490136403, 7.7846863052343, 24.83737548340164], "label": "S", "properties": {}}, {"species": [{"element": "S", "occu": 1}], "abc": [0.82035383, 0.0336325, 0.39831859], "xyz": [5.13537477846233, 0.2726516483075, 20.80653446468372], "label": "S", "properties": {}}, {"species": [{"element": "S", "occu": 1}], "abc": [0.35376184, 0.74734031, 0.42196747], "xyz": [2.21453178406984, 6.05853169904521, 22.041855258451267], "label": "S", "properties": {}}, {"species": [{"element": "S", "occu": 1}], "abc": [0.8055304, 0.24360925, 0.45210171], "xyz": [5.0425808330104, 1.9748892754167497, 23.615944740760014], "label": "S", "properties": {}}, {"species": [{"element": "S", "occu": 1}], "abc": [0.8526954, 0.26044742, 0.32751532], "xyz": [5.3378314219254, 2.1113928004292197, 17.108061145958356], "label": "S", "properties": {}}, {"species": [{"element": "S", "occu": 1}], "abc": [0.30944119, 0.75977834, 0.29710004], "xyz": [1.9370866867816898, 6.15936420870694, 15.519291283188444], "label": "S", "properties": {}}, {"species": [{"element": "S", "occu": 1}], "abc": [0.24676924, 0.26201708, 0.41094094], "xyz": [1.54476335070724, 2.12411770599028, 21.46587441740925], "label": "S", "properties": {}}, {"species": [{"element": "S", "occu": 1}], "abc": [0.91008469, 0.7543708, 0.46269879], "xyz": [5.69708556525019, 6.1155264121028, 24.169492869771545], "label": "S", "properties": {}}, {"species": [{"element": "S", "occu": 1}], "abc": [0.74766472, 0.74331225, 0.33855744], "xyz": [4.68034451162872, 6.025877058489749, 17.68485634485473], "label": "S", "properties": {}}, {"species": [{"element": "S", "occu": 1}], "abc": [0.41507068, 0.24308462, 0.28590971], "xyz": [2.59832211833668, 1.9706362096544199, 14.934754199904974], "label": "S", "properties": {}}, {"species": [{"element": "S", "occu": 1}], "abc": [0.9549387, 0.04182898, 0.65016135], "xyz": [5.9778694700037, 0.33909879860318, 33.961770492259205], "label": "S", "properties": {}}, {"species": [{"element": "S", "occu": 1}], "abc": [0.40876301, 0.97082443, 0.72629144], "xyz": [2.55883641321251, 7.870270751704129, 37.93849510705681], "label": "S", "properties": {}}, {"species": [{"element": "S", "occu": 1}], "abc": [0.43072146, 0.96839065, 0.60160368], "xyz": [2.69629523424846, 7.85054060590415, 31.42531635794492], "label": "S", "properties": {}}, {"species": [{"element": "S", "occu": 1}], "abc": [0.88910854, 0.04055877, 0.52473279], "xyz": [5.56577589408154, 0.32880147160706996, 27.40989538018962], "label": "S", "properties": {}}, {"species": [{"element": "S", "occu": 1}], "abc": [0.90265354, 0.46368763, 0.52422704], "xyz": [5.65056693037654, 3.75901870569533, 27.38347706814068], "label": "S", "properties": {}}, {"species": [{"element": "S", "occu": 1}], "abc": [0.45459239, 0.54151688, 0.60080221], "xyz": [2.84572608637289, 4.38996416913208, 31.383450842259574], "label": "S", "properties": {}}, {"species": [{"element": "S", "occu": 1}], "abc": [0.37619163, 0.54428168, 0.72544884], "xyz": [2.35494117041013, 4.412377824888879, 37.894481128347095], "label": "S", "properties": {}}, {"species": [{"element": "S", "occu": 1}], "abc": [0.93077687, 0.46863211, 0.64899796], "xyz": [5.82661759813337, 3.7991025716590094, 33.900999755621314], "label": "S", "properties": {}}, {"species": [{"element": "S", "occu": 1}], "abc": [0.39650547, 0.76021245, 0.67251677], "xyz": [2.4821048134319703, 6.16288344774795, 35.12952622442948], "label": "S", "properties": {}}, {"species": [{"element": "S", "occu": 1}], "abc": [0.94037702, 0.25914046, 0.70292273], "xyz": [5.88671406672602, 2.10079754886386, 36.717809248507756], "label": "S", "properties": {}}, {"species": [{"element": "S", "occu": 1}], "abc": [0.89681587, 0.25624554, 0.57812448], "xyz": [5.61402340222237, 2.07732903746214, 30.19885895357622], "label": "S", "properties": {}}, {"species": [{"element": "S", "occu": 1}], "abc": [0.4442785, 0.75690188, 0.54790389], "xyz": [2.7811616403535, 6.136045348667079, 28.620258900342254], "label": "S", "properties": {}}, {"species": [{"element": "S", "occu": 1}], "abc": [0.50016996, 0.24660147, 0.66171789], "xyz": [3.13103944127196, 1.9991465775827697, 34.56543688855394], "label": "S", "properties": {}}, {"species": [{"element": "S", "occu": 1}], "abc": [0.8349736, 0.74297193, 0.71403314], "xyz": [5.2268938222936, 6.023118155376629, 37.298171637774516], "label": "S", "properties": {}}, {"species": [{"element": "S", "occu": 1}], "abc": [0.00051952, 0.7455038, 0.58868429], "xyz": [0.00325216974352, 6.0436434963058, 30.750460250180303], "label": "S", "properties": {}}, {"species": [{"element": "S", "occu": 1}], "abc": [0.3405617, 0.24677012, 0.537383], "xyz": [2.1318995544767003, 2.0005137878849197, 28.07069062539896], "label": "S", "properties": {}}, {"species": [{"element": "S", "occu": 1}], "abc": [0.93376058, 0.0330357, 0.89859588], "xyz": [5.84529547653158, 0.26781351543869997, 46.93897452047818], "label": "S", "properties": {}}, {"species": [{"element": "S", "occu": 1}], "abc": [0.37914022, 0.95685743, 0.97517779], "xyz": [2.37339919932922, 7.75704320180713, 50.93930036463802], "label": "S", "properties": {}}, {"species": [{"element": "S", "occu": 1}], "abc": [0.45895596, 0.96144478, 0.85020099], "xyz": [2.87304182075796, 7.7942318895009794, 44.41102334777601], "label": "S", "properties": {}}, {"species": [{"element": "S", "occu": 1}], "abc": [0.9107713, 0.0327641, 0.77383517], "xyz": [5.7013837102063, 0.26561171100309994, 40.42198516165009], "label": "S", "properties": {}}, {"species": [{"element": "S", "occu": 1}], "abc": [0.87744969, 0.45908823, 0.77473825], "xyz": [5.492792064365189, 3.7217323311699295, 40.46915836826434], "label": "S", "properties": {}}, {"species": [{"element": "S", "occu": 1}], "abc": [0.43341412, 0.53487815, 0.85118785], "xyz": [2.71315115390812, 4.3361453725166506, 44.46257287902389], "label": "S", "properties": {}}, {"species": [{"element": "S", "occu": 1}], "abc": [0.41199527, 0.53427102, 0.97583893], "xyz": [2.57907020243177, 4.33122349649682, 50.9738356149159], "label": "S", "properties": {}}, {"species": [{"element": "S", "occu": 1}], "abc": [0.96035283, 0.45967969, 0.8993163], "xyz": [6.011761658511331, 3.7265271737747896, 46.97660631556725], "label": "S", "properties": {}}, {"species": [{"element": "S", "occu": 1}], "abc": [0.3988955, 0.74309613, 0.92189683], "xyz": [2.4970662841205002, 6.024125018818829, 48.156120873689744], "label": "S", "properties": {}}, {"species": [{"element": "S", "occu": 1}], "abc": [0.94513538, 0.24503839, 0.95227388], "xyz": [5.91650116716638, 1.9864750147064898, 49.74289375757754], "label": "S", "properties": {}}, {"species": [{"element": "S", "occu": 1}], "abc": [0.89724756, 0.24292174, 0.82770575], "xyz": [5.61672576046956, 1.9693157755363397, 43.235963990512936], "label": "S", "properties": {}}, {"species": [{"element": "S", "occu": 1}], "abc": [0.44215758, 0.74518635, 0.79728151], "xyz": [2.76788478507858, 6.041069995502849, 41.64672609397939], "label": "S", "properties": {}}, {"species": [{"element": "S", "occu": 1}], "abc": [0.50445491, 0.2565748, 0.91107168], "xyz": [3.15786301830941, 2.0799982794667997, 47.59065930042908], "label": "S", "properties": {}}, {"species": [{"element": "S", "occu": 1}], "abc": [0.8403977, 0.760446, 0.96303042], "xyz": [5.260848422512701, 6.164776788785999, 50.30477142497627], "label": "S", "properties": {}}, {"species": [{"element": "S", "occu": 1}], "abc": [0.00316771, 0.75762637, 0.83869096], "xyz": [0.019829709382209997, 6.141918637678669, 43.80978644370747], "label": "S", "properties": {}}, {"species": [{"element": "S", "occu": 1}], "abc": [0.33650751, 0.26135858, 0.78642446], "xyz": [2.10652052373201, 2.1187793841167797, 41.07959819515399], "label": "S", "properties": {}}]}, "formula": "(Li3PS4)16.0", "bandgap": 2.8600000000000003}