{"miller": "210_0.04", "final_energy": -424.29150473, "gamma": 0.01406472760486285, "work_function": 4.591204308376844, "ionization_potentail": -4.906104308376845, "electron_affinity": -2.5598043083768447, "is_stochiometric": true, "incar_parameters": {"SYSTEM": "unknown system", "LCOMPAT": false, "PREC": "accura", "ENMAX": 520.0, "ENAUG": 368.056, "EDIFF": 1e-05, "IALGO": 38, "IWAVPR": 11, "NBANDS": 390, "NBANDSLOW": -1, "NBANDSHIGH": -1, "NELECT": 650.0, "TURBO": 0, "IRESTART": 0, "NREBOOT": 0, "NMIN": 0, "EREF": 0.0, "ISMEAR": 0, "SIGMA": 0.05, "KSPACING": 0.5, "KGAMMA": true, "KBLOWUP": true, "LREAL": true, "ROPT": [-0.00025, -0.00025, -0.00025], "LMAXPAW": -100, "LMAXMIX": 2, "NLSPLINE": false, "ISTART": 0, "ICHARG": 2, "INIWAV": 1, "ISPIN": 1, "LNONCOLLINEAR": false, "MAGMOM": [0.6, 0.6, 0.6, 0.6, 0.6, 0.6, 0.6, 0.6, 0.6, 0.6, 0.6, 0.6, 0.6, 0.6, 0.6, 0.6, 0.6, 0.6, 0.6, 0.6, 0.6, 0.6, 0.6, 0.6, 0.6, 0.6, 0.6, 0.6, 0.6, 0.6, 0.6, 0.6, 0.6, 0.6, 0.6, 0.6, 0.6, 0.6, 0.6, 0.6, 0.6, 0.6, 0.6, 0.6, 0.6, 0.6, 0.6, 0.6, 0.6, 0.6, 0.6, 0.6, 0.6, 0.6, 0.6, 0.6, 0.6, 0.6, 0.6, 0.6, 0.6, 0.6, 0.6, 0.6, 0.6, 0.6, 0.6, 0.6, 0.6, 0.6, 0.6, 0.6, 0.6, 0.6, 0.6, 0.6, 0.6, 0.6, 0.6, 0.6, 0.6, 0.6, 0.6, 0.6, 0.6, 0.6, 0.6, 0.6, 0.6, 0.6, 0.6, 0.6, 0.6, 0.6, 0.6, 0.6, 0.6, 0.6, 0.6, 0.6, 0.6, 0.6, 0.6, 0.6], "NUPDOWN": -1.0, "LSORBIT": false, "SAXIS": [0.0, 0.0, 1.0], "LSPIRAL": false, "QSPIRAL": [0.0, 0.0, 0.0], "LZEROZ": false, "LASPH": false, "LMETAGGA": false, "NELM": 100, "NELMDL": -5, "NELMIN": 6, "ENINI": 520.0, "LDIAG": true, "LSUBROT": false, "WEIMIN": 0.001, "EBREAK": 1e-08, "DEPER": 0.3, "NRMM": 4, "TIME": 0.4, "AMIX": 0.4, "BMIX": 1.0, "AMIN": 0.1, "AMIX_MAG": 1.6, "BMIX_MAG": 1.0, "IMIX": 4, "MIXFIRST": false, "MAXMIX": -45, "WC": 100.0, "INIMIX": 1, "MIXPRE": 1, "MREMOVE": 5, "LDIPOL": false, "LMONO": false, "IDIPOL": 0, "EPSILON": 1.0, "DIPOL": [-100.0, -100.0, -100.0], "EFIELD": 0.0, "NGX": 54, "NGY": 120, "NGZ": 336, "NGXF": 108, "NGYF": 240, "NGZF": 672, "ADDGRID": false, "NSW": 150, "IBRION": 2, "MDALGO": 0, "ISIF": 2, "PSTRESS": 0.0, "EDIFFG": -0.01, "NFREE": 1, "POTIM": 0.5, "SMASS": -3.0, "SCALEE": 1.0, "TEBEG": 0.0001, "TEEND": 0.0001, "NBLOCK": 1, "KBLOCK": 150, "NPACO": 256, "APACO": 10.0, "ISYM": 0, "SYMPREC": 1e-05, "LORBIT": 11, "RWIGS": [-1.0, -1.0, -1.0], "NEDOS": 301, "EMIN": 10.0, "EMAX": -10.0, "EFERMI": 0.0, "NWRITE": 2, "LWAVE": false, "LDOWNSAMPLE": false, "LCHARG": false, "LPARD": false, "LVTOT": false, "LVHAR": false, "LELF": false, "LOPTICS": false, "STM": [0.0, 0.0, 0.0, 0.0, 0.0, 0.0, 0.0], "NPAR": 1, "NSIM": 4, "NBLK": -1, "LPLANE": true, "LSCALAPACK": true, "LSCAAWARE": false, "LSCALU": false, "LASYNC": false, "LORBITALREAL": false, "IDIOT": 3, "PHON_NSTRUCT": -1, "LMUSIC": false, "POMASS": [22.99, 30.974, 32.066], "DARWINR": [0.0, 0.0, 0.0], "DARWINV": [1.0, 1.0, 1.0], "LCORR": true, "GGA_COMPAT": true, "LBERRY": false, "ICORELEVEL": 0, "LDAU": false, "I_CONSTRAINED_M": 0, "GGA": "--", "VOSKOWN": 0, "LHFCALC": false, "PRECFOCK": "", "LSYMGRAD": false, "LHFONE": false, "LRHFCALC": false, "LTHOMAS": false, "LMODELHF": false, "LFOCKACE": false, "ENCUT4O": -1.0, "EXXOEP": 0, "FOURORBIT": 0, "AEXX": 0.0, "HFALPHA": 0.0, "MCALPHA": 0.0, "ALDAX": 1.0, "AGGAX": 1.0, "ALDAC": 1.0, "AGGAC": 1.0, "NKREDX": 1, "NKREDY": 1, "NKREDZ": 1, "SHIFTRED": false, "ODDONLY": false, "EVENONLY": false, "LMAXFOCK": 0, "NMAXFOCKAE": 0, "LFOCKAEDFT": false, "HFSCREEN": 0.0, "HFSCREENC": 0.0, "NBANDSGWLOW": 0, "LUSE_VDW": false, "Zab_VDW": -0.8491, "PARAM1": 0.1234, "PARAM2": 1.0, "PARAM3": 0.0, "MODEL_GW": 0, "MODEL_EPS0": 28.29480555, "MODEL_ALPHA": 1.0, "LEPSILON": false, "LRPA": false, "LNABLA": false, "LVEL": false, "CSHIFT": 0.1, "OMEGAMAX": -1.0, "DEG_THRESHOLD": 0.002, "RTIME": -0.1, "WPLASMAI": 0.0, "DFIELD": [0.0, 0.0, 0.0], "WPLASMA": [0.0, 0.0, 0.0, 0.0, 0.0, 0.0, 0.0, 0.0, 0.0], "NUCIND": false, "MAGPOS": [0.0, 0.0, 0.0], "LNICSALL": true, "ORBITALMAG": false, "LMAGBLOCH": false, "LCHIMAG": false, "LGAUGE": true, "MAGATOM": 0, "MAGDIPOL": [0.0, 0.0, 0.0], "AVECCONST": [0.0, 0.0, 0.0], "LFINITE_TEMPERATURE": false, "LADDER": false, "LRPAFORCE": false, "LFXC": false, "LHARTREE": true, "IBSE": 0, "KPOINT": [-1, 0, 0, 0], "LTCTC": false, "LTCTE": false, "LTETE": false, "LTRIPLET": false, "LFXCEPS": false, "LFXHEG": false, "NATURALO": 2, "LHOLEGF": false, "L2ORDER": false, "LDMP1": false, "LMP2LT": false, "LSMP2LT": false, "LGWLF": false, "ENCUTGW": -2.0, "ENCUTGWSOFT": -2.0, "ENCUTLF": -1.0, "LESF_SPLINES": false, "LMAXMP2": -1, "SCISSOR": 0.0, "NOMEGA": 0, "NOMEGAR": 0, "NBANDSGW": -1, "NBANDSO": -1, "NBANDSV": -1, "NELMGW": 1, "NELMHF": 1, "DIM": 3, "IESPILON": 4, "ANTIRES": 0, "OMEGAMIN": -30.0, "OMEGATL": -200.0, "OMEGAGRID": 0, "LSELFENERGY": false, "LSPECTRAL": false, "LSPECTRALGW": false, "LSINGLES": false, "LFERMIGW": false, "ODDONLYGW": false, "EVENONLYGW": false, "NKREDLFX": 1, "NKREDLFY": 1, "NKREDLFZ": 1, "MAXMEM": 2800, "TELESCOPE": 0, "NTAUPAR": -1, "NOMEGAPAR": -1, "DAMP_NEWTON": 0.80000001, "LAMBDA": 1.0, "OFIELD_KAPPA": 0.0, "OFIELD_K": [0.0, 0.0, 0.0], "OFIELD_Q6_NEAR": 0.0, "OFIELD_Q6_FAR": 0.0, "OFIELD_A": 0.0, "KPOINTS_OPT_MODE": 1, "LKPOINTS_OPT": false, "@module": "pymatgen.io.vasp.inputs", "@class": "Incar"}, "relaxed_structures": {"@module": "pymatgen.core.structure", "@class": "Structure", "charge": 0, "lattice": {"matrix": [[7.049423, 0.0, 0.0], [0.0, 15.76299, 0.0], [0.0, 0.0, 44.136372]], "a": 7.049423, "b": 15.76299, "c": 44.136372, "alpha": 90.0, "beta": 90.0, "gamma": 90.0, "volume": 4904.4329617026715}, "sites": [{"species": [{"element": "Na", "occu": 1}], "abc": [0.53494495, 0.37039352, 0.02797395], "xyz": [3.77105323426385, 5.8385093518248, 1.2346686635094002], "label": "Na", "properties": {}}, {"species": [{"element": "Na", "occu": 1}], "abc": [0.51929507, 0.82735915, 0.10377564999999998], "xyz": [3.66073061024461, 13.0416540078585, 4.580280692941799], "label": "Na", "properties": {}}, {"species": [{"element": "Na", "occu": 1}], "abc": [0.01340069, 0.3401047, 0.11629638999999999], "xyz": [0.09446713230187, 5.361066985053, 5.132900731297079], "label": "Na", "properties": {}}, {"species": [{"element": "Na", "occu": 1}], "abc": [0.97596591, 0.94131641, 0.050654889999999994], "xyz": [6.87999653316993, 14.8379611576659, 2.23572306865908], "label": "Na", "properties": {}}, {"species": [{"element": "Na", "occu": 1}], "abc": [0.00327232, 0.60809892, 0.07742924999999999], "xyz": [0.02306796787136, 9.5854571949708, 3.4174461816809996], "label": "Na", "properties": {}}, {"species": [{"element": "Na", "occu": 1}], "abc": [0.98394735, 0.13606307, 0.08502865], "xyz": [6.93626107987905, 2.1447608117793, 3.7528561270578], "label": "Na", "properties": {}}, {"species": [{"element": "Na", "occu": 1}], "abc": [0.02619075, 0.21503581, 0.01639224], "xyz": [0.18462967543724998, 3.3896073226719, 0.72349400255328], "label": "Na", "properties": {}}, {"species": [{"element": "Na", "occu": 1}], "abc": [0.49481369, 0.56259847, 0.07324425], "xyz": [3.48815100700087, 8.8682340566253, 3.232735464861], "label": "Na", "properties": {}}, {"species": [{"element": "Na", "occu": 1}], "abc": [0.52420962, 0.31804504, 0.10445871999999999], "xyz": [3.6953753520492603, 5.0133407850696, 4.6104289245638395], "label": "Na", "properties": {}}, {"species": [{"element": "Na", "occu": 1}], "abc": [0.50477739, 0.20836798, 0.18105596000000002], "xyz": [3.55838934294597, 3.2845023850602, 7.991153203377121], "label": "Na", "properties": {}}, {"species": [{"element": "Na", "occu": 1}], "abc": [0.51525269, 0.609047, 0.25304110999999996], "xyz": [3.63223416369787, 9.60040177053, 11.168316562252919], "label": "Na", "properties": {}}, {"species": [{"element": "Na", "occu": 1}], "abc": [0.08794458, 0.11134059, 0.25458031], "xyz": [0.6199585449773399, 1.7550606067641001, 11.23625126603532], "label": "Na", "properties": {}}, {"species": [{"element": "Na", "occu": 1}], "abc": [0.09128704, 0.71867082, 0.18304343], "xyz": [0.64352095937792, 11.328400948951801, 8.07887291863596], "label": "Na", "properties": {}}, {"species": [{"element": "Na", "occu": 1}], "abc": [0.9164715, 0.00665049, 0.14634513000000002], "xyz": [6.4605952709445, 0.1048316073651, 6.459143098068361], "label": "Na", "properties": {}}, {"species": [{"element": "Na", "occu": 1}], "abc": [0.92635616, 0.40578237, 0.21945829], "xyz": [6.53027642049568, 6.3963434404863, 9.68609272592388], "label": "Na", "properties": {}}, {"species": [{"element": "Na", "occu": 1}], "abc": [0.00681488, 0.91885896, 0.21675872000000002], "xyz": [0.04804097181424, 14.4839645978904, 9.566943500163841], "label": "Na", "properties": {}}, {"species": [{"element": "Na", "occu": 1}], "abc": [0.00392817, 0.52562372, 0.15541527000000002], "xyz": [0.02769133194591, 8.2854014421228, 6.859466171200441], "label": "Na", "properties": {}}, {"species": [{"element": "Na", "occu": 1}], "abc": [0.420392, 0.01221761, 0.14487473], "xyz": [2.963521033816, 0.1925860642539, 6.394244976679561], "label": "Na", "properties": {}}, {"species": [{"element": "Na", "occu": 1}], "abc": [0.42998321, 0.40642728, 0.21846783], "xyz": [3.03113353018783, 6.4065091503672, 9.64237741491276], "label": "Na", "properties": {}}, {"species": [{"element": "Na", "occu": 1}], "abc": [0.58584641, 0.1089359, 0.25502832], "xyz": [4.12987915712143, 1.7171555023410001, 11.25602480205504], "label": "Na", "properties": {}}, {"species": [{"element": "Na", "occu": 1}], "abc": [0.58228649, 0.71531176, 0.17956263], "xyz": [4.10478377519527, 11.2754521197624, 7.925243034978361], "label": "Na", "properties": {}}, {"species": [{"element": "Na", "occu": 1}], "abc": [0.50818497, 2.413e-05, 0.32975419], "xyz": [3.5824108157723096, 0.0003803609487, 14.554153598398681], "label": "Na", "properties": {}}, {"species": [{"element": "Na", "occu": 1}], "abc": [0.53023772, 0.38809317, 0.40005757999999997], "xyz": [3.73786997883556, 6.1175087577783, 17.65709017229976], "label": "Na", "properties": {}}, {"species": [{"element": "Na", "occu": 1}], "abc": [0.02855301, 0.88090897, 0.39250055], "xyz": [0.20128224541323, 13.8857592850203, 17.3235502850046], "label": "Na", "properties": {}}, {"species": [{"element": "Na", "occu": 1}], "abc": [0.106881, 0.50711937, 0.32482777999999995], "xyz": [0.7534493796630001, 7.993717558116299, 14.336719734014158], "label": "Na", "properties": {}}, {"species": [{"element": "Na", "occu": 1}], "abc": [0.92488732, 0.81411146, 0.28642620999999996], "xyz": [6.5199219460163595, 12.8328308028654, 12.64181375511012], "label": "Na", "properties": {}}, {"species": [{"element": "Na", "occu": 1}], "abc": [0.92669323, 0.20795981, 0.36358236], "xyz": [6.53265256950629, 3.2780684054319, 16.04720629359792], "label": "Na", "properties": {}}, {"species": [{"element": "Na", "occu": 1}], "abc": [0.00820552, 0.70409313, 0.35050892], "xyz": [0.05784418141495999, 11.098612967258699, 15.47019208243824], "label": "Na", "properties": {}}, {"species": [{"element": "Na", "occu": 1}], "abc": [0.01256473, 0.30898345, 0.29220087], "xyz": [0.08857409665079, 4.8705030325155, 12.89668629704364], "label": "Na", "properties": {}}, {"species": [{"element": "Na", "occu": 1}], "abc": [0.43036627, 0.81144329, 0.28808687], "xyz": [3.03383388216221, 12.790772465837101, 12.71510926263564], "label": "Na", "properties": {}}, {"species": [{"element": "Na", "occu": 1}], "abc": [0.42614851, 0.20399931, 0.36117211], "xyz": [3.00410110780973, 3.2156390835369, 15.94082660298492], "label": "Na", "properties": {}}, {"species": [{"element": "Na", "occu": 1}], "abc": [0.53096975, 0.90101226, 0.40764964], "xyz": [3.7430303679542503, 14.2026472442574, 17.99217615670608], "label": "Na", "properties": {}}, {"species": [{"element": "Na", "occu": 1}], "abc": [0.59768152, 0.5065656, 0.3260938], "xyz": [4.21330985376296, 7.984988487143999, 14.3925972636936], "label": "Na", "properties": {}}, {"species": [{"element": "Na", "occu": 1}], "abc": [0.52507596, 0.79987326, 0.4787542], "xyz": [3.70148254917108, 12.608394198647401, 21.1304734677624], "label": "Na", "properties": {}}, {"species": [{"element": "Na", "occu": 1}], "abc": [0.97196538, 0.27988087, 0.45576405], "xyz": [6.85179510497574, 4.4117593550013, 20.1157716550266], "label": "Na", "properties": {}}, {"species": [{"element": "Na", "occu": 1}], "abc": [0.98278366, 0.61212231, 0.42743772999999996], "xyz": [6.92805773682818, 9.6488778513069, 18.86555065811556], "label": "Na", "properties": {}}, {"species": [{"element": "Na", "occu": 1}], "abc": [0.99581844, 0.06799719, 0.43167935999999996], "xyz": [7.0199454147601195, 1.0718390259981, 19.052760817681918], "label": "Na", "properties": {}}, {"species": [{"element": "Na", "occu": 1}], "abc": [0.46037951, 0.6272435, 0.42836742], "xyz": [3.2454099065227298, 9.887233018065, 18.90658380180024], "label": "Na", "properties": {}}, {"species": [{"element": "Na", "occu": 1}], "abc": [0.32040264, 0.00620211, 0.49482048], "xyz": [2.25865373967672, 0.09776379790890001, 21.83958077849856], "label": "Na", "properties": {}}, {"species": [{"element": "P", "occu": 1}], "abc": [0.02602992, 0.41782058, 0.03888733], "xyz": [0.18349591673616, 6.5861016243342, 1.71634566296676], "label": "P", "properties": {}}, {"species": [{"element": "P", "occu": 1}], "abc": [0.01444658, 0.80813063, 0.11084808], "xyz": [0.10184005332334001, 12.7385550393837, 4.89243209436576], "label": "P", "properties": {}}, {"species": [{"element": "P", "occu": 1}], "abc": [0.48112544, 0.11089792, 0.07039174], "xyz": [3.39165674262112, 1.7480828039808, 3.10683602236728], "label": "P", "properties": {}}, {"species": [{"element": "P", "occu": 1}], "abc": [0.00446957, 0.20743313, 0.18215904000000002], "xyz": [0.03150788955811, 3.2697663538587, 8.039839152602882], "label": "P", "properties": {}}, {"species": [{"element": "P", "occu": 1}], "abc": [0.01758626, 0.60971911, 0.25346414], "xyz": [0.12397298572797999, 9.6109962337389, 11.186987571700081], "label": "P", "properties": {}}, {"species": [{"element": "P", "occu": 1}], "abc": [0.50552983, 0.91271243, 0.21731084], "xyz": [3.5636936107880897, 14.387076906965701, 9.59131207387248], "label": "P", "properties": {}}, {"species": [{"element": "P", "occu": 1}], "abc": [0.50626109, 0.51221742, 0.14885512], "xyz": [3.5688485718510696, 8.0740780692858, 6.569924950424641], "label": "P", "properties": {}}, {"species": [{"element": "P", "occu": 1}], "abc": [0.00648908, 0.00859196, 0.32622336999999996], "xyz": [0.04574426980084, 0.1354349795604, 14.39831601341364], "label": "P", "properties": {}}, {"species": [{"element": "P", "occu": 1}], "abc": [0.02414349, 0.41272433, 0.39618469], "xyz": [0.17019767370627, 6.5057694865467, 17.48615485854468], "label": "P", "properties": {}}, {"species": [{"element": "P", "occu": 1}], "abc": [0.51063511, 0.70969166, 0.35792235], "xyz": [3.5996828890415298, 11.1868625396634, 15.7973939867142], "label": "P", "properties": {}}, {"species": [{"element": "P", "occu": 1}], "abc": [0.5132631, 0.30835911, 0.29032264999999996], "xyz": [3.6182087021913, 4.8606615673389, 12.8137884804258], "label": "P", "properties": {}}, {"species": [{"element": "P", "occu": 1}], "abc": [0.0149479, 0.79633943, 0.46931913], "xyz": [0.1053740700617, 12.5526904716957, 20.71404370839636], "label": "P", "properties": {}}, {"species": [{"element": "P", "occu": 1}], "abc": [0.48581895, 0.11317938, 0.43614792999999996], "xyz": [3.4247432799658504, 1.7840454351462, 19.24998728550996], "label": "P", "properties": {}}, {"species": [{"element": "S", "occu": 1}], "abc": [0.89917653, 0.37609329, 9.99999999999994e-05], "xyz": [6.33867571164219, 5.9283547693371, 0.004413637199999974], "label": "S", "properties": {}}, {"species": [{"element": "S", "occu": 1}], "abc": [0.85867187, 0.77908409, 0.07244081], "xyz": [6.05314122983101, 12.2806947198291, 3.1972745381413197], "label": "S", "properties": {}}, {"species": [{"element": "S", "occu": 1}], "abc": [0.16536368, 0.91864168, 0.10333246], "xyz": [1.16571852915664, 14.4805396154232, 4.56071989423512], "label": "S", "properties": {}}, {"species": [{"element": "S", "occu": 1}], "abc": [0.20006712, 0.5198581, 0.03029099], "xyz": [1.4103577572717598, 8.194518031719, 1.3369344028882801], "label": "S", "properties": {}}, {"species": [{"element": "S", "occu": 1}], "abc": [0.81728532, 0.44986892, 0.07105478], "xyz": [5.76138993237036, 7.0912792872708, 3.13610020245816], "label": "S", "properties": {}}, {"species": [{"element": "S", "occu": 1}], "abc": [0.1853394, 0.32078211, 0.05809396], "xyz": [1.3065358291662, 5.0564851921089, 2.56405662951312], "label": "S", "properties": {}}, {"species": [{"element": "S", "occu": 1}], "abc": [0.27453747, 0.07698688, 0.03911652], "xyz": [1.93533075537981, 1.2135434195711998, 1.72646127806544], "label": "S", "properties": {}}, {"species": [{"element": "S", "occu": 1}], "abc": [0.31277048, 0.47161648, 0.11681594999999999], "xyz": [2.20485141543304, 7.4340858580752, 5.1558322247334], "label": "S", "properties": {}}, {"species": [{"element": "S", "occu": 1}], "abc": [0.6605923, 0.20355347, 0.05325265], "xyz": [4.6567945532429, 3.2086113120752997, 2.3503787703858], "label": "S", "properties": {}}, {"species": [{"element": "S", "occu": 1}], "abc": [0.3492149, 0.1564109, 0.10911405], "xyz": [2.4617635480027, 2.465503452591, 4.815898301226601], "label": "S", "properties": {}}, {"species": [{"element": "S", "occu": 1}], "abc": [0.65290127, 0.00972921, 0.08341683], "xyz": [4.60257722946721, 0.1533614399379, 3.68171623994076], "label": "S", "properties": {}}, {"species": [{"element": "S", "occu": 1}], "abc": [0.83353755, 0.18685585, 0.14452998], "xyz": [5.87595877633365, 2.9454068949914998, 6.37902896243256], "label": "S", "properties": {}}, {"species": [{"element": "S", "occu": 1}], "abc": [0.84821636, 0.58724304, 0.21602227000000002], "xyz": [5.97943591716028, 9.2567061670896, 9.53443926900444], "label": "S", "properties": {}}, {"species": [{"element": "S", "occu": 1}], "abc": [0.18218463, 0.71541357, 0.24519083], "xyz": [1.28429652096849, 11.277056949774302, 10.82183368386876], "label": "S", "properties": {}}, {"species": [{"element": "S", "occu": 1}], "abc": [0.17246439, 0.31262916, 0.17448382], "xyz": [1.21577443754697, 4.927970322788401, 7.701082787501041], "label": "S", "properties": {}}, {"species": [{"element": "S", "occu": 1}], "abc": [0.83661138, 0.82974061, 0.14741663000000002], "xyz": [5.89762750423374, 13.0791929380239, 6.506435220666361], "label": "S", "properties": {}}, {"species": [{"element": "S", "occu": 1}], "abc": [0.83690093, 0.22994265, 0.21968564000000002], "xyz": [5.89966866466339, 3.6245836925235, 9.69612713009808], "label": "S", "properties": {}}, {"species": [{"element": "S", "occu": 1}], "abc": [0.17042408, 0.1018355, 0.18995416], "xyz": [1.20139142930584, 1.605231968145, 8.38388746870752], "label": "S", "properties": {}}, {"species": [{"element": "S", "occu": 1}], "abc": [0.20215613, 0.71109323, 0.11963707999999999], "xyz": [1.4250840724129898, 11.208955473557701, 5.28034666787376], "label": "S", "properties": {}}, {"species": [{"element": "S", "occu": 1}], "abc": [0.33778466, 0.86895118, 0.1824007], "xyz": [2.38118695125118, 13.697268760828202, 8.0505051482604], "label": "S", "properties": {}}, {"species": [{"element": "S", "occu": 1}], "abc": [0.34210796, 0.26404299, 0.25564109999999995], "xyz": [2.4116637217070798, 4.1621070109401, 11.283070688089198], "label": "S", "properties": {}}, {"species": [{"element": "S", "occu": 1}], "abc": [0.66970696, 0.01163235, 0.20137131], "xyz": [4.72104764708408, 0.1833606167265, 8.88779904828732], "label": "S", "properties": {}}, {"species": [{"element": "S", "occu": 1}], "abc": [0.67468158, 0.60585044, 0.13048597], "xyz": [4.75611584772834, 9.5500144272156, 5.7591773127008405], "label": "S", "properties": {}}, {"species": [{"element": "S", "occu": 1}], "abc": [0.34015713, 0.95572483, 0.25284673999999996], "xyz": [2.3979114958359897, 15.0650809380417, 11.159737775627278], "label": "S", "properties": {}}, {"species": [{"element": "S", "occu": 1}], "abc": [0.35959898, 0.55928098, 0.18572786000000002], "xyz": [2.5349653203885403, 8.815940494930201, 8.197353919723922], "label": "S", "properties": {}}, {"species": [{"element": "S", "occu": 1}], "abc": [0.67697216, 0.81486553, 0.23243299000000003], "xyz": [4.77226311506368, 12.8447172007347, 10.258748911712281], "label": "S", "properties": {}}, {"species": [{"element": "S", "occu": 1}], "abc": [0.67242292, 0.4097262, 0.16162155], "xyz": [4.740193597975161, 6.458509993338, 7.133388854016601], "label": "S", "properties": {}}, {"species": [{"element": "S", "occu": 1}], "abc": [0.83491678, 0.98925514, 0.28885634], "xyz": [5.88568155201794, 15.5936188792686, 12.74907087679848], "label": "S", "properties": {}}, {"species": [{"element": "S", "occu": 1}], "abc": [0.85503104, 0.3913475, 0.35862863], "xyz": [6.02747547908992, 6.168806729025, 15.82856662353036], "label": "S", "properties": {}}, {"species": [{"element": "S", "occu": 1}], "abc": [0.21216993, 0.51101308, 0.38845736999999997], "xyz": [1.49567558445039, 8.0550940699092, 17.14509898846164], "label": "S", "properties": {}}, {"species": [{"element": "S", "occu": 1}], "abc": [0.17832124, 0.11223124, 0.31823687], "xyz": [1.25706185064452, 1.7690999138076, 14.045820878435642], "label": "S", "properties": {}}, {"species": [{"element": "S", "occu": 1}], "abc": [0.84859911, 0.63311847, 0.29086859], "xyz": [5.98213408381353, 9.9798401114253, 12.83788429135548], "label": "S", "properties": {}}, {"species": [{"element": "S", "occu": 1}], "abc": [0.84217817, 0.0298749, 0.36446227], "xyz": [5.93687016169591, 0.470917749951, 16.08604232868444], "label": "S", "properties": {}}, {"species": [{"element": "S", "occu": 1}], "abc": [0.16913064, 0.90106292, 0.33294288], "xyz": [1.19227342362072, 14.2034457973308, 14.69489080643136], "label": "S", "properties": {}}, {"species": [{"element": "S", "occu": 1}], "abc": [0.18106928, 0.5036364, 0.26185494], "xyz": [1.27643394702544, 7.938815536836, 11.557327041877679], "label": "S", "properties": {}}, {"species": [{"element": "S", "occu": 1}], "abc": [0.36041038, 0.66151966, 0.32158537], "xyz": [2.54068522221074, 10.427527785383399, 14.19361152007764], "label": "S", "properties": {}}, {"species": [{"element": "S", "occu": 1}], "abc": [0.34381665, 0.06415543, 0.39903834], "xyz": [2.42370900029295, 1.0112814015357, 17.61210461650248], "label": "S", "properties": {}}, {"species": [{"element": "S", "occu": 1}], "abc": [0.67233196, 0.81242718, 0.34479954999999995], "xyz": [4.739552382459079, 12.8062815140682, 15.2182012042326], "label": "S", "properties": {}}, {"species": [{"element": "S", "occu": 1}], "abc": [0.67996841, 0.4060735, 0.27389432999999996], "xyz": [4.79338494872743, 6.400932519765, 12.088702037570759], "label": "S", "properties": {}}, {"species": [{"element": "S", "occu": 1}], "abc": [0.32218662, 0.74857131, 0.3909644], "xyz": [2.27122976932026, 11.7997220738169, 17.2557501971568], "label": "S", "properties": {}}, {"species": [{"element": "S", "occu": 1}], "abc": [0.34990479, 0.35311012, 0.32565939], "xyz": [2.4666268744361703, 5.5660712904588, 14.37342398233308], "label": "S", "properties": {}}, {"species": [{"element": "S", "occu": 1}], "abc": [0.68470266, 0.61558711, 0.37498082], "xyz": [4.82675867956518, 9.7034934590589, 16.55029296438504], "label": "S", "properties": {}}, {"species": [{"element": "S", "occu": 1}], "abc": [0.68048997, 0.21062425, 0.30631685999999997], "xyz": [4.79706164578731, 3.3200679465075003, 13.519714882831918], "label": "S", "properties": {}}, {"species": [{"element": "S", "occu": 1}], "abc": [0.81696971, 0.77009961, 0.43474916999999996], "xyz": [5.7591650639773295, 12.1390724514339, 19.18825109381124], "label": "S", "properties": {}}, {"species": [{"element": "S", "occu": 1}], "abc": [0.1865484, 0.89474541, 0.45295770999999996], "xyz": [1.3150585815732, 14.1038629503759, 19.99190998882812], "label": "S", "properties": {}}, {"species": [{"element": "S", "occu": 1}], "abc": [0.85744664, 0.4410582, 0.4335675], "xyz": [6.04450406528872, 6.952395996018001, 19.13609646711], "label": "S", "properties": {}}, {"species": [{"element": "S", "occu": 1}], "abc": [0.87965485, 0.82933979, 0.50760964], "xyz": [6.20105913165155, 13.072874816372101, 22.40404790182608], "label": "S", "properties": {}}, {"species": [{"element": "S", "occu": 1}], "abc": [0.19035929, 0.69138076, 0.47538715], "xyz": [1.34192315718967, 10.8982280060724, 20.981864096419798], "label": "S", "properties": {}}, {"species": [{"element": "S", "occu": 1}], "abc": [0.17512312, 0.30329591, 0.40434308999999996], "xyz": [1.23451694995976, 4.7808503963709, 17.84623703586948], "label": "S", "properties": {}}, {"species": [{"element": "S", "occu": 1}], "abc": [0.66821963, 0.20746872, 0.42099353], "xyz": [4.710562828773489, 3.2703273586728, 18.58112704967316], "label": "S", "properties": {}}, {"species": [{"element": "S", "occu": 1}], "abc": [0.28830938, 0.15843691, 0.46733986], "xyz": [2.03241477448774, 2.4974394279609, 20.62668591138792], "label": "S", "properties": {}}, {"species": [{"element": "S", "occu": 1}], "abc": [0.64436688, 0.01991243, 0.45706926999999997], "xyz": [4.542414704310239, 0.3138794349657, 20.17337933048844], "label": "S", "properties": {}}]}, "formula": "", "bandgap": 2.3463000000000003, "slab_thickness": 22.39963426462608}