{"miller": "100_0.25", "final_energy": -295.44168375, "sigma": -0.004625682910582785, "incar_parameters": {"SYSTEM": "unknown system", "LCOMPAT": false, "PREC": "normal", "ENMAX": 520.0, "ENAUG": 628.945, "EDIFF": 1e-05, "IALGO": 38, "IWAVPR": 11, "NBANDS": 241, "NBANDSLOW": -1, "NBANDSHIGH": -1, "NELECT": 400.0, "TURBO": 0, "IRESTART": 0, "NREBOOT": 0, "NMIN": 0, "EREF": 0.0, "ISMEAR": 0, "SIGMA": 0.05, "KSPACING": 0.5, "KGAMMA": true, "KBLOWUP": true, "LREAL": true, "ROPT": [-0.0005, -0.0005], "LMAXPAW": -100, "LMAXMIX": 2, "NLSPLINE": false, "ISTART": 0, "ICHARG": 2, "INIWAV": 1, "ISPIN": 1, "LNONCOLLINEAR": false, "MAGMOM": [0.6, 0.6, 0.6, 0.6, 0.6, 0.6, 0.6, 0.6, 0.6, 0.6, 0.6, 0.6, 0.6, 0.6, 0.6, 0.6, 0.6, 0.6, 0.6, 0.6, 0.6, 0.6, 0.6, 0.6, 0.6, 0.6, 0.6, 0.6, 0.6, 0.6, 0.6, 0.6, 0.6, 0.6, 0.6, 0.6, 0.6, 0.6, 0.6, 0.6, 0.6, 0.6, 0.6, 0.6, 0.6, 0.6, 0.6, 0.6, 0.6, 0.6, 0.6, 0.6, 0.6, 0.6, 0.6, 0.6, 0.6, 0.6, 0.6, 0.6, 0.6, 0.6, 0.6, 0.6, 0.6, 0.6, 0.6, 0.6, 0.6, 0.6, 0.6, 0.6, 0.6, 0.6, 0.6, 0.6, 0.6, 0.6, 0.6, 0.6], "NUPDOWN": -1.0, "LSORBIT": false, "SAXIS": [0.0, 0.0, 1.0], "LSPIRAL": false, "QSPIRAL": [0.0, 0.0, 0.0], "LZEROZ": false, "LASPH": false, "LMETAGGA": false, "NELM": 100, "NELMDL": 0, "NELMIN": 6, "ENINI": 520.0, "LDIAG": true, "LSUBROT": false, "WEIMIN": 0.001, "EBREAK": 1e-08, "DEPER": 0.3, "NRMM": 4, "TIME": 0.4, "AMIX": 0.4, "BMIX": 1.0, "AMIN": 0.1, "AMIX_MAG": 1.6, "BMIX_MAG": 1.0, "IMIX": 4, "MIXFIRST": false, "MAXMIX": -45, "WC": 100.0, "INIMIX": 1, "MIXPRE": 1, "MREMOVE": 5, "LDIPOL": false, "LMONO": false, "IDIPOL": 0, "EPSILON": 1.0, "DIPOL": [-100.0, -100.0, -100.0], "EFIELD": 0.0, "NGX": 30, "NGY": 30, "NGZ": 280, "NGXF": 60, "NGYF": 60, "NGZF": 560, "ADDGRID": false, "NSW": 150, "IBRION": 2, "MDALGO": 0, "ISIF": 3, "PSTRESS": 0.0, "EDIFFG": -0.01, "NFREE": 1, "POTIM": 0.5, "SMASS": -3.0, "SCALEE": 1.0, "TEBEG": 0.0001, "TEEND": 0.0001, "NBLOCK": 1, "KBLOCK": 150, "NPACO": 256, "APACO": 10.0, "ISYM": 0, "SYMPREC": 1e-05, "LORBIT": 11, "RWIGS": [-1.0, -1.0], "NEDOS": 301, "EMIN": 10.0, "EMAX": -10.0, "EFERMI": 0.0, "NWRITE": 2, "LWAVE": false, "LDOWNSAMPLE": false, "LCHARG": false, "LPARD": false, "LVTOT": false, "LVHAR": false, "LELF": false, "LOPTICS": false, "STM": [0.0, 0.0, 0.0, 0.0, 0.0, 0.0, 0.0], "NPAR": 1, "NSIM": 4, "NBLK": -1, "LPLANE": true, "LSCALAPACK": true, "LSCAAWARE": false, "LSCALU": false, "LASYNC": false, "LORBITALREAL": false, "IDIOT": 3, "PHON_NSTRUCT": -1, "LMUSIC": false, "POMASS": [7.01, 35.453], "DARWINR": [0.0, 0.0], "DARWINV": [1.0, 1.0], "LCORR": true, "GGA_COMPAT": true, "LBERRY": false, "ICORELEVEL": 0, "LDAU": false, "I_CONSTRAINED_M": 0, "GGA": "--", "VOSKOWN": 0, "LHFCALC": false, "PRECFOCK": "", "LSYMGRAD": false, "LHFONE": false, "LRHFCALC": false, "LTHOMAS": false, "LMODELHF": false, "LFOCKACE": false, "ENCUT4O": -1.0, "EXXOEP": 0, "FOURORBIT": 0, "AEXX": 0.0, "HFALPHA": 0.0, "MCALPHA": 0.0, "ALDAX": 1.0, "AGGAX": 1.0, "ALDAC": 1.0, "AGGAC": 1.0, "NKREDX": 1, "NKREDY": 1, "NKREDZ": 1, "SHIFTRED": false, "ODDONLY": false, "EVENONLY": false, "LMAXFOCK": 0, "NMAXFOCKAE": 0, "LFOCKAEDFT": false, "HFSCREEN": 0.0, "HFSCREENC": 0.0, "NBANDSGWLOW": 0, "LUSE_VDW": false, "Zab_VDW": -0.8491, "PARAM1": 0.1234, "PARAM2": 1.0, "PARAM3": 0.0, "MODEL_GW": 0, "MODEL_EPS0": 9.82505033, "MODEL_ALPHA": 1.0, "LEPSILON": false, "LRPA": false, "LNABLA": false, "LVEL": false, "CSHIFT": 0.1, "OMEGAMAX": -1.0, "DEG_THRESHOLD": 0.002, "RTIME": -0.1, "WPLASMAI": 0.0, "DFIELD": [0.0, 0.0, 0.0], "WPLASMA": [0.0, 0.0, 0.0, 0.0, 0.0, 0.0, 0.0, 0.0, 0.0], "NUCIND": false, "MAGPOS": [0.0, 0.0, 0.0], "LNICSALL": true, "ORBITALMAG": false, "LMAGBLOCH": false, "LCHIMAG": false, "LGAUGE": true, "MAGATOM": 0, "MAGDIPOL": [0.0, 0.0, 0.0], "AVECCONST": [0.0, 0.0, 0.0], "LFINITE_TEMPERATURE": false, "LADDER": false, "LRPAFORCE": false, "LFXC": false, "LHARTREE": true, "IBSE": 0, "KPOINT": [-1, 0, 0, 0], "LTCTC": false, "LTCTE": false, "LTETE": false, "LTRIPLET": false, "LFXCEPS": false, "LFXHEG": false, "NATURALO": 2, "LHOLEGF": false, "L2ORDER": false, "LDMP1": false, "LMP2LT": false, "LSMP2LT": false, "LGWLF": false, "ENCUTGW": -2.0, "ENCUTGWSOFT": -2.0, "ENCUTLF": -1.0, "LESF_SPLINES": false, "LMAXMP2": -1, "SCISSOR": 0.0, "NOMEGA": 0, "NOMEGAR": 0, "NBANDSGW": -1, "NBANDSO": -1, "NBANDSV": -1, "NELMGW": 1, "NELMHF": 1, "DIM": 3, "IESPILON": 4, "ANTIRES": 0, "OMEGAMIN": -30.0, "OMEGATL": -200.0, "OMEGAGRID": 0, "LSELFENERGY": false, "LSPECTRAL": false, "LSPECTRALGW": false, "LSINGLES": false, "LFERMIGW": false, "ODDONLYGW": false, "EVENONLYGW": false, "NKREDLFX": 1, "NKREDLFY": 1, "NKREDLFZ": 1, "MAXMEM": 2800, "TELESCOPE": 0, "NTAUPAR": -1, "NOMEGAPAR": -1, "DAMP_NEWTON": 0.80000001, "LAMBDA": 1.0, "OFIELD_KAPPA": 0.0, "OFIELD_K": [0.0, 0.0, 0.0], "OFIELD_Q6_NEAR": 0.0, "OFIELD_Q6_FAR": 0.0, "OFIELD_A": 0.0, "KPOINTS_OPT_MODE": 1, "LKPOINTS_OPT": false, "@module": "pymatgen.io.vasp.inputs", "@class": "Incar"}, "relaxed_structures": {"@module": "pymatgen.core.structure", "@class": "Structure", "charge": 0, "lattice": {"matrix": [[5.149597, 0.0, 0.0], [0.0, 5.149597, 0.0], [0.0, 0.0, 51.26311808]], "a": 5.149597, "b": 5.149597, "c": 51.26311808, "alpha": 90.0, "beta": 90.0, "gamma": 90.0, "volume": 1359.4132695255535}, "sites": [{"species": [{"element": "Li", "occu": 1}], "abc": [8e-08, 3e-08, 0.0750782], "xyz": [4.1196776000000003e-07, 1.5448791e-07, 3.8487426318338556], "label": "Li", "properties": {}}, {"species": [{"element": "Li", "occu": 1}], "abc": [0.49999996, 0.9999999, 0.02500568], "xyz": [2.5747982940161203, 5.1495964850403, 1.2818691265106943], "label": "Li", "properties": {}}, {"species": [{"element": "Li", "occu": 1}], "abc": [8e-08, 0.50000003, 0.02500568], "xyz": [4.1196776000000003e-07, 2.57479865448791, 1.2818691265106943], "label": "Li", "properties": {}}, {"species": [{"element": "Li", "occu": 1}], "abc": [0.50000007, 0.4999999, 0.07507821], "xyz": [2.57479886047179, 2.5747979850402998, 3.848743144465037], "label": "Li", "properties": {}}, {"species": [{"element": "Li", "occu": 1}], "abc": [0.99999999, 1e-07, 0.17503187], "xyz": [5.14959694850403, 5.149597e-07, 8.97267941957321], "label": "Li", "properties": {}}, {"species": [{"element": "Li", "occu": 1}], "abc": [0.50000011, 0.99999998, 0.12508698], "xyz": [2.57479906645567, 5.14959689700806, 6.412348626010598], "label": "Li", "properties": {}}, {"species": [{"element": "Li", "occu": 1}], "abc": [4e-08, 0.49999993, 0.12508699], "xyz": [2.0598388000000001e-07, 2.57479813952821, 6.41234913864178], "label": "Li", "properties": {}}, {"species": [{"element": "Li", "occu": 1}], "abc": [0.49999984, 0.49999997, 0.1750319], "xyz": [2.5747976760644797, 2.57479834551209, 8.972680957466752], "label": "Li", "properties": {}}, {"species": [{"element": "Li", "occu": 1}], "abc": [0.99999994, 8e-08, 0.27498576], "xyz": [5.14959669102418, 4.1196776000000003e-07, 14.09662748519854], "label": "Li", "properties": {}}, {"species": [{"element": "Li", "occu": 1}], "abc": [0.49999995, -0.0, 0.22501426], "xyz": [2.57479824252015, 0.0, 11.53493258006382], "label": "Li", "properties": {}}, {"species": [{"element": "Li", "occu": 1}], "abc": [0.99999988, 0.50000019, 0.22501428], "xyz": [5.14959638204836, 2.57479947842343, 11.534933605326183], "label": "Li", "properties": {}}, {"species": [{"element": "Li", "occu": 1}], "abc": [0.49999989, 0.50000003, 0.27498575], "xyz": [2.57479793354433, 2.57479865448791, 14.096626972567359], "label": "Li", "properties": {}}, {"species": [{"element": "Li", "occu": 1}], "abc": [4e-08, 2.3e-07, 0.37491297], "xyz": [2.0598388000000001e-07, 1.1844073099999999e-06, 19.2192078508335], "label": "Li", "properties": {}}, {"species": [{"element": "Li", "occu": 1}], "abc": [0.49999999, 3e-08, 0.32496814], "xyz": [2.57479844850403, 1.5448791e-07, 16.65888013305797], "label": "Li", "properties": {}}, {"species": [{"element": "Li", "occu": 1}], "abc": [4e-08, 0.49999998, 0.32496814], "xyz": [2.0598388000000001e-07, 2.57479839700806, 16.65888013305797], "label": "Li", "properties": {}}, {"species": [{"element": "Li", "occu": 1}], "abc": [0.49999994, 0.50000016, 0.37491304], "xyz": [2.57479819102418, 2.5747993239355202, 19.21921143925176], "label": "Li", "properties": {}}, {"species": [{"element": "Li", "occu": 1}], "abc": [1.2e-07, 1.7e-07, 0.47499429], "xyz": [6.1795164e-07, 8.754314899999999e-07, 24.34968837559576], "label": "Li", "properties": {}}, {"species": [{"element": "Li", "occu": 1}], "abc": [0.49999997, 1.6e-07, 0.4249218], "xyz": [2.57479834551209, 8.239355200000001e-07, 21.782816408166145], "label": "Li", "properties": {}}, {"species": [{"element": "Li", "occu": 1}], "abc": [0.99999996, 0.49999999, 0.42492181], "xyz": [5.14959679401612, 2.57479844850403, 21.782816920797323], "label": "Li", "properties": {}}, {"species": [{"element": "Li", "occu": 1}], "abc": [0.50000003, 0.50000016, 0.4749943], "xyz": [2.57479865448791, 2.5747993239355202, 24.349688888226943], "label": "Li", "properties": {}}, {"species": [{"element": "Li", "occu": 1}], "abc": [6e-08, 1.1e-07, 0.57507824], "xyz": [3.0897582e-07, 5.6645567e-07, 29.480303722358578], "label": "Li", "properties": {}}, {"species": [{"element": "Li", "occu": 1}], "abc": [0.49999997, 4e-08, 0.52500569], "xyz": [2.57479834551209, 2.0598388000000001e-07, 26.913428679141873], "label": "Li", "properties": {}}, {"species": [{"element": "Li", "occu": 1}], "abc": [7e-08, 0.50000021, 0.52500568], "xyz": [3.6047179000000003e-07, 2.5747995814153697, 26.913428166510695], "label": "Li", "properties": {}}, {"species": [{"element": "Li", "occu": 1}], "abc": [0.49999997, 0.50000015, 0.57507819], "xyz": [2.57479834551209, 2.57479927243955, 29.480301159202675], "label": "Li", "properties": {}}, {"species": [{"element": "Li", "occu": 1}], "abc": [2.6e-07, 0.99999996, 0.67503187], "xyz": [1.33889522e-06, 5.14959679401612, 34.60423845957321], "label": "Li", "properties": {}}, {"species": [{"element": "Li", "occu": 1}], "abc": [0.50000013, 1e-07, 0.62508698], "xyz": [2.57479916944761, 5.149597e-07, 32.0439076660106], "label": "Li", "properties": {}}, {"species": [{"element": "Li", "occu": 1}], "abc": [1.5e-07, 0.50000007, 0.62508694], "xyz": [7.7243955e-07, 2.57479886047179, 32.043905615485876], "label": "Li", "properties": {}}, {"species": [{"element": "Li", "occu": 1}], "abc": [0.50000015, 0.49999999, 0.67503187], "xyz": [2.57479927243955, 2.57479844850403, 34.60423845957321], "label": "Li", "properties": {}}, {"species": [{"element": "Li", "occu": 1}], "abc": [-1.1e-07, 0.99999994, 0.77498578], "xyz": [-5.6645567e-07, 5.14959669102418, 39.7281875504609], "label": "Li", "properties": {}}, {"species": [{"element": "Li", "occu": 1}], "abc": [0.50000008, 0.99999991, 0.72501427], "xyz": [2.57479891196776, 5.14959653653627, 37.166492132695], "label": "Li", "properties": {}}, {"species": [{"element": "Li", "occu": 1}], "abc": [-4e-08, 0.50000001, 0.72501424], "xyz": [-2.0598388000000001e-07, 2.57479855149597, 37.16649059480146], "label": "Li", "properties": {}}, {"species": [{"element": "Li", "occu": 1}], "abc": [0.50000011, 0.49999995, 0.77498578], "xyz": [2.57479906645567, 2.57479824252015, 39.7281875504609], "label": "Li", "properties": {}}, {"species": [{"element": "Li", "occu": 1}], "abc": [-5e-08, 0.99999988, 0.87491302], "xyz": [-2.5747985e-07, 5.14959638204836, 44.8507694539894], "label": "Li", "properties": {}}, {"species": [{"element": "Li", "occu": 1}], "abc": [0.50000008, 0.99999985, 0.82496807], "xyz": [2.57479891196776, 5.14959622756045, 42.29043558463971], "label": "Li", "properties": {}}, {"species": [{"element": "Li", "occu": 1}], "abc": [4e-08, 0.49999989, 0.82496811], "xyz": [2.0598388000000001e-07, 2.57479793354433, 42.29043763516443], "label": "Li", "properties": {}}, {"species": [{"element": "Li", "occu": 1}], "abc": [0.49999994, 0.50000003, 0.874913], "xyz": [2.57479819102418, 2.57479865448791, 44.850768428727044], "label": "Li", "properties": {}}, {"species": [{"element": "Li", "occu": 1}], "abc": [6e-08, 1.5e-07, 0.97499434], "xyz": [3.0897582e-07, 7.7243955e-07, 49.98124997875166], "label": "Li", "properties": {}}, {"species": [{"element": "Li", "occu": 1}], "abc": [0.50000004, 0.9999998, 0.92492179], "xyz": [2.5747987059838797, 5.1495959700805995, 47.41437493553496], "label": "Li", "properties": {}}, {"species": [{"element": "Li", "occu": 1}], "abc": [-1.7e-07, 0.49999991, 0.92492179], "xyz": [-8.754314899999999e-07, 2.57479803653627, 47.41437493553496], "label": "Li", "properties": {}}, {"species": [{"element": "Li", "occu": 1}], "abc": [0.50000003, 0.49999989, 0.97499433], "xyz": [2.57479865448791, 2.57479793354433, 49.98124946612049], "label": "Li", "properties": {}}, {"species": [{"element": "Cl", "occu": 1}], "abc": [6e-08, 0.50000054, 0.07508871], "xyz": [3.0897582e-07, 2.5748012807823804, 3.849281407204877], "label": "Cl", "properties": {}}, {"species": [{"element": "Cl", "occu": 1}], "abc": [0.99999957, 1.2e-07, 0.02504265], "xyz": [5.1495947856732895, 6.1795164e-07, 1.2837643239861118], "label": "Cl", "properties": {}}, {"species": [{"element": "Cl", "occu": 1}], "abc": [0.50000009, -4.6e-07, 0.07508851], "xyz": [2.57479896346373, -2.3688146199999998e-06, 3.8492711545812606], "label": "Cl", "properties": {}}, {"species": [{"element": "Cl", "occu": 1}], "abc": [0.50000062, 0.49999922, 0.02504261], "xyz": [2.57480169275014, 2.57479448331434, 1.2837622734613887], "label": "Cl", "properties": {}}, {"species": [{"element": "Cl", "occu": 1}], "abc": [0.99999888, 0.50000078, 0.17508298], "xyz": [5.14959123245136, 2.57480251668566, 8.975299477538279], "label": "Cl", "properties": {}}, {"species": [{"element": "Cl", "occu": 1}], "abc": [0.99999996, 0.99999932, 0.12510111], "xyz": [5.14959679401612, 5.14959349827404, 6.413072973869068], "label": "Cl", "properties": {}}, {"species": [{"element": "Cl", "occu": 1}], "abc": [0.50000043, -2.3e-07, 0.17508315], "xyz": [2.5748007143267104, -1.1844073099999999e-06, 8.97530819226835], "label": "Cl", "properties": {}}, {"species": [{"element": "Cl", "occu": 1}], "abc": [0.50000102, 0.50000035, 0.12510118], "xyz": [2.5748037525889402, 2.57480030235895, 6.413076562287334], "label": "Cl", "properties": {}}, {"species": [{"element": "Cl", "occu": 1}], "abc": [1.8e-07, 0.50000043, 0.27495079], "xyz": [9.2692746e-07, 2.5748007143267104, 14.094834813959283], "label": "Cl", "properties": {}}, {"species": [{"element": "Cl", "occu": 1}], "abc": [0.99999986, 1.1e-06, 0.22504923], "xyz": [5.14959627905642, 5.6645567e-06, 11.536725251303077], "label": "Cl", "properties": {}}, {"species": [{"element": "Cl", "occu": 1}], "abc": [0.4999996, -3e-08, 0.27495079], "xyz": [2.5747964401612, -1.5448791e-07, 14.094834813959283], "label": "Cl", "properties": {}}, {"species": [{"element": "Cl", "occu": 1}], "abc": [0.49999971, 0.49999974, 0.22504922], "xyz": [2.57479700661687, 2.57479716110478, 11.536724738671897], "label": "Cl", "properties": {}}, {"species": [{"element": "Cl", "occu": 1}], "abc": [0.99999934, 0.50000039, 0.37489895], "xyz": [5.14959360126598, 2.57480050834283, 19.218489141918017], "label": "Cl", "properties": {}}, {"species": [{"element": "Cl", "occu": 1}], "abc": [3.6e-07, -4.1e-07, 0.3249168], "xyz": [1.85385492e-06, -2.11133477e-06, 16.656248284575742], "label": "Cl", "properties": {}}, {"species": [{"element": "Cl", "occu": 1}], "abc": [0.50000047, -1.1e-07, 0.37489911], "xyz": [2.57480092031059, -5.6645567e-07, 19.218497344016907], "label": "Cl", "properties": {}}, {"species": [{"element": "Cl", "occu": 1}], "abc": [0.49999971, 0.5000001, 0.32491695], "xyz": [2.57479700661687, 2.5747990149596998, 16.656255974043454], "label": "Cl", "properties": {}}, {"species": [{"element": "Cl", "occu": 1}], "abc": [2.4e-07, 0.50000085, 0.47495723], "xyz": [1.23590328e-06, 2.5748028771574503, 24.347788564439718], "label": "Cl", "properties": {}}, {"species": [{"element": "Cl", "occu": 1}], "abc": [3.4e-07, -7.5e-07, 0.42491143], "xyz": [1.7508629799999998e-06, -3.86219775e-06, 21.78228480963165], "label": "Cl", "properties": {}}, {"species": [{"element": "Cl", "occu": 1}], "abc": [0.50000057, -5.4e-07, 0.47495723], "xyz": [2.57480143527029, -2.78078238e-06, 24.347788564439718], "label": "Cl", "properties": {}}, {"species": [{"element": "Cl", "occu": 1}], "abc": [0.49999974, 0.50000064, 0.42491141], "xyz": [2.57479716110478, 2.57480179574208, 21.78228378436929], "label": "Cl", "properties": {}}, {"species": [{"element": "Cl", "occu": 1}], "abc": [-8.5e-07, 0.49999993, 0.57508866], "xyz": [-4.37715745e-06, 2.57479813952821, 29.480837884048974], "label": "Cl", "properties": {}}, {"species": [{"element": "Cl", "occu": 1}], "abc": [-4.6e-07, 1.17e-06, 0.5250426], "xyz": [-2.3688146199999998e-06, 6.02502849e-06, 26.91532080083021], "label": "Cl", "properties": {}}, {"species": [{"element": "Cl", "occu": 1}], "abc": [0.50000073, 3.1e-07, 0.5750886], "xyz": [2.57480225920581, 1.59637507e-06, 29.480834808261886], "label": "Cl", "properties": {}}, {"species": [{"element": "Cl", "occu": 1}], "abc": [0.50000041, 0.49999999, 0.52504277], "xyz": [2.5748006113347697, 2.57479844850403, 26.91532951556028], "label": "Cl", "properties": {}}, {"species": [{"element": "Cl", "occu": 1}], "abc": [1.19e-06, 0.49999955, 0.67508306], "xyz": [6.12802043e-06, 2.57479618268135, 34.60686261858772], "label": "Cl", "properties": {}}, {"species": [{"element": "Cl", "occu": 1}], "abc": [4.1e-07, 0.99999996, 0.62510109], "xyz": [2.11133477e-06, 5.14959679401612, 32.044630988606706], "label": "Cl", "properties": {}}, {"species": [{"element": "Cl", "occu": 1}], "abc": [0.50000123, 0.99999987, 0.67508316], "xyz": [2.57480483400431, 5.14959633055239, 34.60686774489953], "label": "Cl", "properties": {}}, {"species": [{"element": "Cl", "occu": 1}], "abc": [0.50000007, 0.50000023, 0.62510099], "xyz": [2.57479886047179, 2.5747996844073104, 32.04462586229489], "label": "Cl", "properties": {}}, {"species": [{"element": "Cl", "occu": 1}], "abc": [6.7e-07, 0.50000025, 0.7749508], "xyz": [3.45022999e-06, 2.5747997873992503, 39.72639436659046], "label": "Cl", "properties": {}}, {"species": [{"element": "Cl", "occu": 1}], "abc": [4e-08, 4.8e-07, 0.72504915], "xyz": [2.0598388000000001e-07, 2.47180656e-06, 37.16828019025363], "label": "Cl", "properties": {}}, {"species": [{"element": "Cl", "occu": 1}], "abc": [0.49999915, 0.99999963, 0.77495065], "xyz": [2.57479412284255, 5.1495950946491105, 39.72638667712275], "label": "Cl", "properties": {}}, {"species": [{"element": "Cl", "occu": 1}], "abc": [0.49999851, 0.49999926, 0.72504928], "xyz": [2.57479082710047, 2.57479468929822, 37.168286854458984], "label": "Cl", "properties": {}}, {"species": [{"element": "Cl", "occu": 1}], "abc": [-1.23e-06, 0.4999996, 0.87489888], "xyz": [-6.3340043100000004e-06, 2.5747964401612, 44.85004459349975], "label": "Cl", "properties": {}}, {"species": [{"element": "Cl", "occu": 1}], "abc": [4.9e-07, 0.9999996, 0.82491701], "xyz": [2.5233025299999997e-06, 5.1495949401612, 42.28781808983054], "label": "Cl", "properties": {}}, {"species": [{"element": "Cl", "occu": 1}], "abc": [0.49999902, -2e-08, 0.8748988], "xyz": [2.57479345339494, -1.0299194000000001e-07, 44.850040492450304], "label": "Cl", "properties": {}}, {"species": [{"element": "Cl", "occu": 1}], "abc": [0.49999943, 0.49999955, 0.82491696], "xyz": [2.57479556472971, 2.57479618268135, 42.287815526674635], "label": "Cl", "properties": {}}, {"species": [{"element": "Cl", "occu": 1}], "abc": [0.99999995, 0.50000034, 0.97495726], "xyz": [5.14959674252015, 2.5748002508629804, 49.97934914233326], "label": "Cl", "properties": {}}, {"species": [{"element": "Cl", "occu": 1}], "abc": [-1.1e-07, 2e-08, 0.92491153], "xyz": [-5.6645567e-07, 1.0299194000000001e-07, 47.41384897594346], "label": "Cl", "properties": {}}, {"species": [{"element": "Cl", "occu": 1}], "abc": [0.50000117, 0.99999964, 0.97495723], "xyz": [2.57480452502849, 5.14959514614508, 49.97934760443972], "label": "Cl", "properties": {}}, {"species": [{"element": "Cl", "occu": 1}], "abc": [0.49999878, 0.49999871, 0.92491145], "xyz": [2.5747922174916598, 2.57479185701987, 47.41384487489401], "label": "Cl", "properties": {}}]}, "formula": "(LiCl)40.0", "bandgap": 6.2936000000000005}