{"miller": "111_0.25", "final_energy": -469.77942357, "sigma": 0.027592849697121998, "incar_parameters": {"SYSTEM": "unknown system", "LCOMPAT": false, "PREC": "normal", "ENMAX": 520.0, "ENAUG": 628.945, "EDIFF": 1e-05, "IALGO": 38, "IWAVPR": 11, "NBANDS": 385, "NBANDSLOW": -1, "NBANDSHIGH": -1, "NELECT": 640.0, "TURBO": 0, "IRESTART": 0, "NREBOOT": 0, "NMIN": 0, "EREF": 0.0, "ISMEAR": 0, "SIGMA": 0.05, "KSPACING": 0.5, "KGAMMA": true, "KBLOWUP": true, "LREAL": true, "ROPT": [-0.0005, -0.0005], "LMAXPAW": -100, "LMAXMIX": 2, "NLSPLINE": false, "ISTART": 0, "ICHARG": 2, "INIWAV": 1, "ISPIN": 1, "LNONCOLLINEAR": false, "MAGMOM": [0.6, 0.6, 0.6, 0.6, 0.6, 0.6, 0.6, 0.6, 0.6, 0.6, 0.6, 0.6, 0.6, 0.6, 0.6, 0.6, 0.6, 0.6, 0.6, 0.6, 0.6, 0.6, 0.6, 0.6, 0.6, 0.6, 0.6, 0.6, 0.6, 0.6, 0.6, 0.6, 0.6, 0.6, 0.6, 0.6, 0.6, 0.6, 0.6, 0.6, 0.6, 0.6, 0.6, 0.6, 0.6, 0.6, 0.6, 0.6, 0.6, 0.6, 0.6, 0.6, 0.6, 0.6, 0.6, 0.6, 0.6, 0.6, 0.6, 0.6, 0.6, 0.6, 0.6, 0.6, 0.6, 0.6, 0.6, 0.6, 0.6, 0.6, 0.6, 0.6, 0.6, 0.6, 0.6, 0.6, 0.6, 0.6, 0.6, 0.6, 0.6, 0.6, 0.6, 0.6, 0.6, 0.6, 0.6, 0.6, 0.6, 0.6, 0.6, 0.6, 0.6, 0.6, 0.6, 0.6, 0.6, 0.6, 0.6, 0.6, 0.6, 0.6, 0.6, 0.6, 0.6, 0.6, 0.6, 0.6, 0.6, 0.6, 0.6, 0.6, 0.6, 0.6, 0.6, 0.6, 0.6, 0.6, 0.6, 0.6, 0.6, 0.6, 0.6, 0.6, 0.6, 0.6, 0.6, 0.6], "NUPDOWN": -1.0, "LSORBIT": false, "SAXIS": [0.0, 0.0, 1.0], "LSPIRAL": false, "QSPIRAL": [0.0, 0.0, 0.0], "LZEROZ": false, "LASPH": false, "LMETAGGA": false, "NELM": 100, "NELMDL": -5, "NELMIN": 6, "ENINI": 520.0, "LDIAG": true, "LSUBROT": false, "WEIMIN": 0.001, "EBREAK": 1e-08, "DEPER": 0.3, "NRMM": 4, "TIME": 0.4, "AMIX": 0.4, "BMIX": 1.0, "AMIN": 0.1, "AMIX_MAG": 1.6, "BMIX_MAG": 1.0, "IMIX": 4, "MIXFIRST": false, "MAXMIX": -45, "WC": 100.0, "INIMIX": 1, "MIXPRE": 1, "MREMOVE": 5, "LDIPOL": false, "LMONO": false, "IDIPOL": 0, "EPSILON": 1.0, "DIPOL": [-100.0, -100.0, -100.0], "EFIELD": 0.0, "NGX": 42, "NGY": 42, "NGZ": 320, "NGXF": 84, "NGYF": 84, "NGZF": 640, "ADDGRID": false, "NSW": 150, "IBRION": 2, "MDALGO": 0, "ISIF": 3, "PSTRESS": 0.0, "EDIFFG": -0.01, "NFREE": 1, "POTIM": 0.5, "SMASS": -3.0, "SCALEE": 1.0, "TEBEG": 0.0001, "TEEND": 0.0001, "NBLOCK": 1, "KBLOCK": 150, "NPACO": 256, "APACO": 10.0, "ISYM": 0, "SYMPREC": 1e-05, "LORBIT": 11, "RWIGS": [-1.0, -1.0], "NEDOS": 301, "EMIN": 10.0, "EMAX": -10.0, "EFERMI": 0.0, "NWRITE": 2, "LWAVE": false, "LDOWNSAMPLE": false, "LCHARG": false, "LPARD": false, "LVTOT": false, "LVHAR": false, "LELF": false, "LOPTICS": false, "STM": [0.0, 0.0, 0.0, 0.0, 0.0, 0.0, 0.0], "NPAR": 1, "NSIM": 4, "NBLK": -1, "LPLANE": true, "LSCALAPACK": true, "LSCAAWARE": false, "LSCALU": false, "LASYNC": false, "LORBITALREAL": false, "IDIOT": 3, "PHON_NSTRUCT": -1, "LMUSIC": false, "POMASS": [7.01, 35.453], "DARWINR": [0.0, 0.0], "DARWINV": [1.0, 1.0], "LCORR": true, "GGA_COMPAT": true, "LBERRY": false, "ICORELEVEL": 0, "LDAU": false, "I_CONSTRAINED_M": 0, "GGA": "--", "VOSKOWN": 0, "LHFCALC": false, "PRECFOCK": "", "LSYMGRAD": false, "LHFONE": false, "LRHFCALC": false, "LTHOMAS": false, "LMODELHF": false, "LFOCKACE": false, "ENCUT4O": -1.0, "EXXOEP": 0, "FOURORBIT": 0, "AEXX": 0.0, "HFALPHA": 0.0, "MCALPHA": 0.0, "ALDAX": 1.0, "AGGAX": 1.0, "ALDAC": 1.0, "AGGAC": 1.0, "NKREDX": 1, "NKREDY": 1, "NKREDZ": 1, "SHIFTRED": false, "ODDONLY": false, "EVENONLY": false, "LMAXFOCK": 0, "NMAXFOCKAE": 0, "LFOCKAEDFT": false, "HFSCREEN": 0.0, "HFSCREENC": 0.0, "NBANDSGWLOW": 0, "LUSE_VDW": false, "Zab_VDW": -0.8491, "PARAM1": 0.1234, "PARAM2": 1.0, "PARAM3": 0.0, "MODEL_GW": 0, "MODEL_EPS0": 11.60194206, "MODEL_ALPHA": 1.0, "LEPSILON": false, "LRPA": false, "LNABLA": false, "LVEL": false, "CSHIFT": 0.1, "OMEGAMAX": -1.0, "DEG_THRESHOLD": 0.002, "RTIME": -0.1, "WPLASMAI": 0.0, "DFIELD": [0.0, 0.0, 0.0], "WPLASMA": [0.0, 0.0, 0.0, 0.0, 0.0, 0.0, 0.0, 0.0, 0.0], "NUCIND": false, "MAGPOS": [0.0, 0.0, 0.0], "LNICSALL": true, "ORBITALMAG": false, "LMAGBLOCH": false, "LCHIMAG": false, "LGAUGE": true, "MAGATOM": 0, "MAGDIPOL": [0.0, 0.0, 0.0], "AVECCONST": [0.0, 0.0, 0.0], "LFINITE_TEMPERATURE": false, "LADDER": false, "LRPAFORCE": false, "LFXC": false, "LHARTREE": true, "IBSE": 0, "KPOINT": [-1, 0, 0, 0], "LTCTC": false, "LTCTE": false, "LTETE": false, "LTRIPLET": false, "LFXCEPS": false, "LFXHEG": false, "NATURALO": 2, "LHOLEGF": false, "L2ORDER": false, "LDMP1": false, "LMP2LT": false, "LSMP2LT": false, "LGWLF": false, "ENCUTGW": -2.0, "ENCUTGWSOFT": -2.0, "ENCUTLF": -1.0, "LESF_SPLINES": false, "LMAXMP2": -1, "SCISSOR": 0.0, "NOMEGA": 0, "NOMEGAR": 0, "NBANDSGW": -1, "NBANDSO": -1, "NBANDSV": -1, "NELMGW": 1, "NELMHF": 1, "DIM": 3, "IESPILON": 4, "ANTIRES": 0, "OMEGAMIN": -30.0, "OMEGATL": -200.0, "OMEGAGRID": 0, "LSELFENERGY": false, "LSPECTRAL": false, "LSPECTRALGW": false, "LSINGLES": false, "LFERMIGW": false, "ODDONLYGW": false, "EVENONLYGW": false, "NKREDLFX": 1, "NKREDLFY": 1, "NKREDLFZ": 1, "MAXMEM": 2800, "TELESCOPE": 0, "NTAUPAR": -1, "NOMEGAPAR": -1, "DAMP_NEWTON": 0.80000001, "LAMBDA": 1.0, "OFIELD_KAPPA": 0.0, "OFIELD_K": [0.0, 0.0, 0.0], "OFIELD_Q6_NEAR": 0.0, "OFIELD_Q6_FAR": 0.0, "OFIELD_A": 0.0, "KPOINTS_OPT_MODE": 1, "LKPOINTS_OPT": false, "@module": "pymatgen.io.vasp.inputs", "@class": "Incar"}, "relaxed_structures": {"@module": "pymatgen.core.structure", "@class": "Structure", "charge": 0, "lattice": {"matrix": [[7.282629, 0.0, 0.0], [3.641315, 6.306942, 0.0], [0.0, 0.0, 53.88679925]], "a": 7.282629, "b": 7.282629492195041, "c": 53.88679925, "alpha": 90.0, "beta": 90.0, "gamma": 59.999997693408275, "volume": 2475.0809732816024}, "sites": [{"species": [{"element": "Li", "occu": 1}], "abc": [0.71908545, 0.72463612, 0.01832284], "xyz": [7.87546092494585, 4.57023797994504, 0.98735920076987], "label": "Li", "properties": {}}, {"species": [{"element": "Li", "occu": 1}], "abc": [0.23279624, 0.80794691, 0.02023596], "xyz": [4.63735785110161, 5.09567430044922, 1.09045111415103], "label": "Li", "properties": {}}, {"species": [{"element": "Li", "occu": 1}], "abc": [0.71696493, 0.35617419, 0.06434225], "xyz": [6.518332011860819, 2.24636995822698, 3.4671979090433127], "label": "Li", "properties": {}}, {"species": [{"element": "Li", "occu": 1}], "abc": [0.33000951, 0.36374402, 0.03932487], "xyz": [3.7278433839880902, 2.29411243698684, 2.1190913752223475], "label": "Li", "properties": {}}, {"species": [{"element": "Li", "occu": 1}], "abc": [0.43983802, 0.51721939, 0.11496741], "xyz": [5.08653584285243, 3.2620726940053797, 6.195225742962443], "label": "Li", "properties": {}}, {"species": [{"element": "Li", "occu": 1}], "abc": [0.92356331, 0.45450672, 0.11465807], "xyz": [8.38097108187879, 2.86654752165024, 6.178556400482448], "label": "Li", "properties": {}}, {"species": [{"element": "Li", "occu": 1}], "abc": [0.38820867, 0.00611233, 0.07527628], "xyz": [2.8494366371073796, 0.03855011079486, 4.05639778864679], "label": "Li", "properties": {}}, {"species": [{"element": "Li", "occu": 1}], "abc": [0.92207381, 0.00320764, 0.12036532], "xyz": [6.72680149649309, 0.02023039943688, 6.48610183550201], "label": "Li", "properties": {}}, {"species": [{"element": "Li", "occu": 1}], "abc": [0.09232198, 0.16232449, 0.16852269], "xyz": [1.26342132918977, 1.02377114360958, 9.081148365099983], "label": "Li", "properties": {}}, {"species": [{"element": "Li", "occu": 1}], "abc": [0.5655701, 0.16061753, 0.167164], "xyz": [4.70369623304485, 1.01300544589326, 9.007932909827002], "label": "Li", "properties": {}}, {"species": [{"element": "Li", "occu": 1}], "abc": [0.0780612, 0.66257764, 0.16724189], "xyz": [2.9811446580914, 4.17883874597688, 9.012130152620584], "label": "Li", "properties": {}}, {"species": [{"element": "Li", "occu": 1}], "abc": [0.57998384, 0.67707455, 0.16827513], "xyz": [6.68924884774861, 4.2702699165261, 9.067808149077653], "label": "Li", "properties": {}}, {"species": [{"element": "Li", "occu": 1}], "abc": [0.74838254, 0.82930235, 0.22329442], "xyz": [8.46994347548791, 5.2303618219137, 12.032621584185184], "label": "Li", "properties": {}}, {"species": [{"element": "Li", "occu": 1}], "abc": [0.24089245, 0.82753326, 0.22325686], "xyz": [4.76763961488795, 5.21920427389092, 12.030597596005355], "label": "Li", "properties": {}}, {"species": [{"element": "Li", "occu": 1}], "abc": [0.74260087, 0.32869786, 0.2226455], "xyz": [6.60497907937313, 2.07307833854412, 11.997653362415875], "label": "Li", "properties": {}}, {"species": [{"element": "Li", "occu": 1}], "abc": [0.24289933, 0.3327063, 0.22344231], "xyz": [2.98043414552307, 2.0983593371346, 12.040590902926269], "label": "Li", "properties": {}}, {"species": [{"element": "Li", "occu": 1}], "abc": [0.41223292, 0.49573748, 0.27813859], "xyz": [4.80727573993288, 3.1265875335861604, 14.987998363008058], "label": "Li", "properties": {}}, {"species": [{"element": "Li", "occu": 1}], "abc": [0.90434776, 0.49458501, 0.27819235], "xyz": [8.38696903874919, 3.11931897213942, 14.990895317335736], "label": "Li", "properties": {}}, {"species": [{"element": "Li", "occu": 1}], "abc": [0.40912498, 0.99202364, 0.27811055], "xyz": [6.59177600465902, 6.25663556010888, 14.986487377157088], "label": "Li", "properties": {}}, {"species": [{"element": "Li", "occu": 1}], "abc": [0.90759695, 0.99670231, 0.27870667], "xyz": [10.238998940319199, 6.286143660436021, 15.018610375925999], "label": "Li", "properties": {}}, {"species": [{"element": "Li", "occu": 1}], "abc": [0.07371896, 0.16416074, 0.33347648], "xyz": [1.13462880091894, 1.03535226585708, 17.969980132356643], "label": "Li", "properties": {}}, {"species": [{"element": "Li", "occu": 1}], "abc": [0.56574866, 0.1667906, 0.33286021], "xyz": [4.72747471166614, 1.0519386403452, 17.936771314582842], "label": "Li", "properties": {}}, {"species": [{"element": "Li", "occu": 1}], "abc": [0.070109, 0.66248882, 0.33283738], "xyz": [2.9229083141593, 4.17827856338844, 17.935541078955968], "label": "Li", "properties": {}}, {"species": [{"element": "Li", "occu": 1}], "abc": [0.56443648, 0.66949044, 0.33462809], "xyz": [6.5484070594345205, 4.22243737463448, 18.032036709240934], "label": "Li", "properties": {}}, {"species": [{"element": "Li", "occu": 1}], "abc": [0.74650297, 0.84364722, 0.38799759], "xyz": [8.50848945480243, 5.32083408500124, 20.90794824181381], "label": "Li", "properties": {}}, {"species": [{"element": "Li", "occu": 1}], "abc": [0.20054995, 0.84132285, 0.38798226], "xyz": [4.5240523953663, 5.3061744182247, 20.90712215718131], "label": "Li", "properties": {}}, {"species": [{"element": "Li", "occu": 1}], "abc": [0.73512083, 0.31261266, 0.38695489], "xyz": [6.49193344310997, 1.97162991508572, 20.85176047623583], "label": "Li", "properties": {}}, {"species": [{"element": "Li", "occu": 1}], "abc": [0.22260496, 0.3486191, 0.39124951], "xyz": [2.8905812953563403, 2.1987204437922, 21.08318380203087], "label": "Li", "properties": {}}, {"species": [{"element": "Li", "occu": 1}], "abc": [0.45863067, 0.48539097, 0.47598216], "xyz": [5.1074984375569805, 3.06133269511374, 25.649155102501382], "label": "Li", "properties": {}}, {"species": [{"element": "Li", "occu": 1}], "abc": [0.89623337, 0.42047476, 0.45613468], "xyz": [8.05801618183913, 2.6519099237839203, 24.579637932122992], "label": "Li", "properties": {}}, {"species": [{"element": "Li", "occu": 1}], "abc": [0.37601917, 0.06552258, 0.44531051], "xyz": [2.9769964653906302, 0.41324711175036, 23.996358056285118], "label": "Li", "properties": {}}, {"species": [{"element": "Li", "occu": 1}], "abc": [0.88622182, 0.00012245, 0.43835837], "xyz": [6.45447060578653, 0.0007722850479, 23.621729483747224], "label": "Li", "properties": {}}, {"species": [{"element": "Li", "occu": 1}], "abc": [0.28420773, 0.26869797, 0.51812506], "xyz": [3.0481934051527197, 1.6946625123077401, 27.920101094614207], "label": "Li", "properties": {}}, {"species": [{"element": "Li", "occu": 1}], "abc": [0.76840172, 0.18945087, 0.52024371], "xyz": [6.28583494441593, 1.19485564893954, 28.03426836184522], "label": "Li", "properties": {}}, {"species": [{"element": "Li", "occu": 1}], "abc": [0.28284597, 0.64420215, 0.564381], "xyz": [4.40560521548238, 4.0629455963253, 30.41268564751425], "label": "Li", "properties": {}}, {"species": [{"element": "Li", "occu": 1}], "abc": [0.67543436, 0.62948601, 0.54020944], "xyz": [7.21109470823559, 3.9701317548814203, 29.110157646234924], "label": "Li", "properties": {}}, {"species": [{"element": "Li", "occu": 1}], "abc": [0.55813045, 0.48122062, 0.61513247], "xyz": [5.81693286286835, 3.03503053954404, 33.14751992304665], "label": "Li", "properties": {}}, {"species": [{"element": "Li", "occu": 1}], "abc": [0.07510797, 0.5475499, 0.61474214], "xyz": [2.54078514457163, 3.4533654614058005, 33.126486288695396], "label": "Li", "properties": {}}, {"species": [{"element": "Li", "occu": 1}], "abc": [0.61091206, 0.99463964, 0.57535778], "xyz": [8.07084212533234, 6.27313452038088, 31.00418918778567], "label": "Li", "properties": {}}, {"species": [{"element": "Li", "occu": 1}], "abc": [0.07694539, 0.99850198, 0.62038681], "xyz": [4.19622496593401, 6.297494074745161, 33.43065948781789], "label": "Li", "properties": {}}, {"species": [{"element": "Li", "occu": 1}], "abc": [0.90831093, 0.83813071, 0.6687054], "xyz": [9.66678944611862, 5.28604177638882, 36.03439364719095], "label": "Li", "properties": {}}, {"species": [{"element": "Li", "occu": 1}], "abc": [0.43273604, 0.84182722, 0.66717938], "xyz": [6.216814117843461, 5.30935545056124, 35.952161313799465], "label": "Li", "properties": {}}, {"species": [{"element": "Li", "occu": 1}], "abc": [0.91976733, 0.3417952, 0.66739944], "xyz": [7.9429082193985705, 2.1556825022784003, 35.964019642842416], "label": "Li", "properties": {}}, {"species": [{"element": "Li", "occu": 1}], "abc": [0.41961764, 0.3229709, 0.66831078], "xyz": [4.23195837670906, 2.0369587339878, 36.01312883847092], "label": "Li", "properties": {}}, {"species": [{"element": "Li", "occu": 1}], "abc": [0.2510778, 0.17116252, 0.72338189], "xyz": [2.45176311905, 1.07951208621384, 38.980734687515586], "label": "Li", "properties": {}}, {"species": [{"element": "Li", "occu": 1}], "abc": [0.75884628, 0.17289825, 0.72329528], "xyz": [6.15597291646887, 1.0904592346515, 38.97606755183254], "label": "Li", "properties": {}}, {"species": [{"element": "Li", "occu": 1}], "abc": [0.25748706, 0.67170157, 0.72268852], "xyz": [4.32105973264529, 4.23638284329894, 38.94337119751961], "label": "Li", "properties": {}}, {"species": [{"element": "Li", "occu": 1}], "abc": [0.7567812, 0.66766779, 0.72347916], "xyz": [7.94254545251865, 4.21094202679818, 38.98597625647863], "label": "Li", "properties": {}}, {"species": [{"element": "Li", "occu": 1}], "abc": [0.58768848, 0.5044097, 0.77814744], "xyz": [6.116631774169419, 3.1812827221374, 41.931874886181426], "label": "Li", "properties": {}}, {"species": [{"element": "Li", "occu": 1}], "abc": [0.09505933, 0.50583475, 0.77821469], "xyz": [2.53418549607482, 3.1902704298345, 41.935498773430986], "label": "Li", "properties": {}}, {"species": [{"element": "Li", "occu": 1}], "abc": [0.59089911, 0.00836373, 0.77812417], "xyz": [4.33375397006514, 0.05274956001366, 41.93062094036287], "label": "Li", "properties": {}}, {"species": [{"element": "Li", "occu": 1}], "abc": [0.09219478, 0.00320511, 0.77882622], "xyz": [0.68309119359627, 0.020214442873620002, 41.96845216777634], "label": "Li", "properties": {}}, {"species": [{"element": "Li", "occu": 1}], "abc": [0.92634476, 0.83645611, 0.83344775], "xyz": [9.79202539335869, 5.27548017131562, 44.911831589614195], "label": "Li", "properties": {}}, {"species": [{"element": "Li", "occu": 1}], "abc": [0.43427782, 0.83323188, 0.83288398], "xyz": [6.19674398911098, 5.255145139710961, 44.88145182880102], "label": "Li", "properties": {}}, {"species": [{"element": "Li", "occu": 1}], "abc": [0.93084132, 0.33719135, 0.83283617], "xyz": [8.00679191205553, 2.1266462873517002, 44.87887550092887], "label": "Li", "properties": {}}, {"species": [{"element": "Li", "occu": 1}], "abc": [0.43463806, 0.33092463, 0.83471681], "xyz": [4.3703085593481905, 2.0871224477814603, 44.98021717107039], "label": "Li", "properties": {}}, {"species": [{"element": "Li", "occu": 1}], "abc": [0.25374143, 0.15646562, 0.88799068], "xyz": [2.4176453057097698, 0.98681959033404, 47.850975509030995], "label": "Li", "properties": {}}, {"species": [{"element": "Li", "occu": 1}], "abc": [0.80020491, 0.15885634, 0.88830882], "xyz": [6.4060414571954905, 1.00189772271228, 47.86811905534439], "label": "Li", "properties": {}}, {"species": [{"element": "Li", "occu": 1}], "abc": [0.26489254, 0.68742186, 0.88694986], "xyz": [4.432233623833561, 4.335529800552121, 47.794889050635604], "label": "Li", "properties": {}}, {"species": [{"element": "Li", "occu": 1}], "abc": [0.77717791, 0.65156437, 0.89123517], "xyz": [8.03244949947194, 4.10937869085654, 48.02581069032962], "label": "Li", "properties": {}}, {"species": [{"element": "Li", "occu": 1}], "abc": [0.54104503, 0.51534641, 0.97577399], "xyz": [5.8167688387130205, 3.2502599177782203, 52.58133711250151], "label": "Li", "properties": {}}, {"species": [{"element": "Li", "occu": 1}], "abc": [0.10382949, 0.57938303, 0.95610594], "xyz": [2.86586777281366, 3.6541351659942602, 51.52148885051255], "label": "Li", "properties": {}}, {"species": [{"element": "Li", "occu": 1}], "abc": [0.62400966, 0.93444907, 0.94531261], "xyz": [7.94705426152319, 5.89351608644394, 50.93987084356355], "label": "Li", "properties": {}}, {"species": [{"element": "Li", "occu": 1}], "abc": [0.11369906, 0.99997801, 0.93836427], "xyz": [4.469262999111891, 6.30680331034542, 50.5654470408628], "label": "Li", "properties": {}}, {"species": [{"element": "Cl", "occu": 1}], "abc": [0.38284771, 0.021723, 0.02972423], "xyz": [2.8672381211745903, 0.137005701066, 1.6017436148708277], "label": "Cl", "properties": {}}, {"species": [{"element": "Cl", "occu": 1}], "abc": [0.58640272, 0.45666837, 0.02149393], "xyz": [5.933426840057431, 2.88018092282454, 1.1582390910035527], "label": "Cl", "properties": {}}, {"species": [{"element": "Cl", "occu": 1}], "abc": [0.45709339, 0.28768696, 0.08100994], "xyz": [4.37640042047471, 1.81442497087632, 4.365366374034545], "label": "Cl", "properties": {}}, {"species": [{"element": "Cl", "occu": 1}], "abc": [0.6210831, 0.66001544, 0.08770337], "xyz": [6.9264419173735, 4.16267909918448, 4.726053892738473], "label": "Cl", "properties": {}}, {"species": [{"element": "Cl", "occu": 1}], "abc": [0.02000861, 0.68682533, 0.03714072], "xyz": [2.6466626599446403, 4.33176752044086, 2.00139452264046], "label": "Cl", "properties": {}}, {"species": [{"element": "Cl", "occu": 1}], "abc": [0.02946482, 0.13150167, 0.08599209], "xyz": [0.6934203561078299, 0.82937340559314, 4.633838490917932], "label": "Cl", "properties": {}}, {"species": [{"element": "Cl", "occu": 1}], "abc": [0.24819841, 0.8226848, 0.14260545], "xyz": [4.80319144093189, 5.1886253178816, 7.684551256105912], "label": "Cl", "properties": {}}, {"species": [{"element": "Cl", "occu": 1}], "abc": [0.23402582, 0.34111309, 0.14167773], "xyz": [2.94642343479413, 2.15138047407078, 7.634559394705703], "label": "Cl", "properties": {}}, {"species": [{"element": "Cl", "occu": 1}], "abc": [0.74195061, 0.33202314, 0.14308348], "xyz": [6.61235186898279, 2.09405068663788, 7.710310762751391], "label": "Cl", "properties": {}}, {"species": [{"element": "Cl", "occu": 1}], "abc": [0.75737071, 0.8331479, 0.1418999], "xyz": [8.54940384188509, 5.254615482721801, 7.646531424895075], "label": "Cl", "properties": {}}, {"species": [{"element": "Cl", "occu": 1}], "abc": [0.90957333, 0.49720048, 0.1976418], "xyz": [8.434548676515771, 3.1358145897321603, 10.65028400000865], "label": "Cl", "properties": {}}, {"species": [{"element": "Cl", "occu": 1}], "abc": [0.91172069, 0.99743325, 0.19785701], "xyz": [10.27169219161776, 6.290753656621501, 10.661880978075244], "label": "Cl", "properties": {}}, {"species": [{"element": "Cl", "occu": 1}], "abc": [0.41180151, 0.99689399, 0.1971445], "xyz": [6.629002658166639, 6.287352575078581, 10.623486094741626], "label": "Cl", "properties": {}}, {"species": [{"element": "Cl", "occu": 1}], "abc": [0.40983218, 0.49556802, 0.19777707], "xyz": [4.78917498394752, 3.12551875919484, 10.657573267343198], "label": "Cl", "properties": {}}, {"species": [{"element": "Cl", "occu": 1}], "abc": [0.57410307, 0.1624754, 0.25290951], "xyz": [4.77260377772203, 1.0247229242268, 13.628483993785869], "label": "Cl", "properties": {}}, {"species": [{"element": "Cl", "occu": 1}], "abc": [0.57421149, 0.66320254, 0.25240264], "xyz": [6.59669860614731, 4.18277995403268, 13.60117039185002], "label": "Cl", "properties": {}}, {"species": [{"element": "Cl", "occu": 1}], "abc": [0.07424473, 0.66233699, 0.25305661], "xyz": [2.9524744405370202, 4.1773209803845806, 13.636410741955544], "label": "Cl", "properties": {}}, {"species": [{"element": "Cl", "occu": 1}], "abc": [0.07578352, 0.16252795, 0.25279516], "xyz": [1.14371872272833, 1.0250543540289, 13.622322038291632], "label": "Cl", "properties": {}}, {"species": [{"element": "Cl", "occu": 1}], "abc": [0.23761317, 0.83073116, 0.30773203], "xyz": [4.75540239649933, 5.239373243712721, 16.582694123404977], "label": "Cl", "properties": {}}, {"species": [{"element": "Cl", "occu": 1}], "abc": [0.2359774, 0.33080913, 0.30841444], "xyz": [2.92311610379055, 2.08639399598046, 16.61946701408117], "label": "Cl", "properties": {}}, {"species": [{"element": "Cl", "occu": 1}], "abc": [0.73568253, 0.33343134, 0.3077068], "xyz": [6.57183146758347, 2.1029321223622803, 16.5813345594599], "label": "Cl", "properties": {}}, {"species": [{"element": "Cl", "occu": 1}], "abc": [0.73501108, 0.83099021, 0.30790191], "xyz": [8.37871012305547, 5.2410070570378195, 16.59184841286157], "label": "Cl", "properties": {}}, {"species": [{"element": "Cl", "occu": 1}], "abc": [0.88942552, 0.50196025, 0.36401103], "xyz": [8.30515147302083, 3.1658341830555, 19.61538929839573], "label": "Cl", "properties": {}}, {"species": [{"element": "Cl", "occu": 1}], "abc": [0.89604416, 0.00227961, 0.36073174], "xyz": [6.53385796298379, 0.01437736805262, 19.438678856483197], "label": "Cl", "properties": {}}, {"species": [{"element": "Cl", "occu": 1}], "abc": [0.39566842, 0.9917353, 0.36447932], "xyz": [6.49272693379568, 6.2548170164526, 19.64062394761651], "label": "Cl", "properties": {}}, {"species": [{"element": "Cl", "occu": 1}], "abc": [0.39851684, 0.50213962, 0.36354644], "xyz": [4.7306988263726595, 3.16696545924204, 19.590354030332172], "label": "Cl", "properties": {}}, {"species": [{"element": "Cl", "occu": 1}], "abc": [0.56400276, 0.16108891, 0.4157758], "xyz": [4.69399832037269, 1.01597841221322, 22.40482706760815], "label": "Cl", "properties": {}}, {"species": [{"element": "Cl", "occu": 1}], "abc": [0.54572922, 0.70012867, 0.45071231], "xyz": [6.523732471720431, 4.415670914227141, 24.287443768473768], "label": "Cl", "properties": {}}, {"species": [{"element": "Cl", "occu": 1}], "abc": [0.05400714, 0.68340684, 0.41602474], "xyz": [2.8818135415656596, 4.31020730228328, 22.418241647413446], "label": "Cl", "properties": {}}, {"species": [{"element": "Cl", "occu": 1}], "abc": [0.05317819, 0.17799559, 0.41835067], "xyz": [1.03541504046236, 1.12260786238578, 22.543578570393], "label": "Cl", "properties": {}}, {"species": [{"element": "Cl", "occu": 1}], "abc": [0.22393815, 0.34327364, 0.47418627], "xyz": [2.88082591983295, 2.16500693760888, 25.5523803385963], "label": "Cl", "properties": {}}, {"species": [{"element": "Cl", "occu": 1}], "abc": [0.81006745, 0.17431888, 0.47618347], "xyz": [6.53417065585325, 1.09941906566496, 25.6600030540584], "label": "Cl", "properties": {}}, {"species": [{"element": "Cl", "occu": 1}], "abc": [0.62009811, 0.97342551, 0.5298204], "xyz": [8.06049338967684, 6.13933823289042, 28.550325533354698], "label": "Cl", "properties": {}}, {"species": [{"element": "Cl", "occu": 1}], "abc": [0.41663587, 0.53952431, 0.52178362], "xyz": [4.998782432169881, 3.4027485307600203, 28.117249182878286], "label": "Cl", "properties": {}}, {"species": [{"element": "Cl", "occu": 1}], "abc": [0.54308152, 0.71175407, 0.58137601], "xyz": [6.54678199831813, 4.488991637753941, 31.328492339635996], "label": "Cl", "properties": {}}, {"species": [{"element": "Cl", "occu": 1}], "abc": [0.37741334, 0.3404105, 0.58774237], "xyz": [3.9881031946783603, 2.146949279691, 31.67155510290922], "label": "Cl", "properties": {}}, {"species": [{"element": "Cl", "occu": 1}], "abc": [0.98402353, 0.30618894, 0.53729687], "xyz": [8.28120867631647, 1.9311158856214803, 28.95320857134335], "label": "Cl", "properties": {}}, {"species": [{"element": "Cl", "occu": 1}], "abc": [0.96995693, 0.86906926, 0.58608686], "xyz": [10.22839139964587, 5.48116941680292, 31.582344967882857], "label": "Cl", "properties": {}}, {"species": [{"element": "Cl", "occu": 1}], "abc": [0.75113102, 0.17895126, 0.64275024], "xyz": [6.121826456358479, 1.12863521764692, 34.635753150769325], "label": "Cl", "properties": {}}, {"species": [{"element": "Cl", "occu": 1}], "abc": [0.76517796, 0.66175606, 0.64188253], "xyz": [7.982169469275741, 4.17365708856852, 34.5889950361921], "label": "Cl", "properties": {}}, {"species": [{"element": "Cl", "occu": 1}], "abc": [0.25745588, 0.66922544, 0.64313751], "xyz": [4.3118162909621205, 4.2207660350044796, 34.65662189151487], "label": "Cl", "properties": {}}, {"species": [{"element": "Cl", "occu": 1}], "abc": [0.24095206, 0.16885692, 0.64201904], "xyz": [2.36962569541554, 1.06497080073864, 34.596351123157724], "label": "Cl", "properties": {}}, {"species": [{"element": "Cl", "occu": 1}], "abc": [0.09033708, 0.50327255, 0.69771839], "xyz": [2.4904653239865704, 3.1741107830421003, 37.59781081496321], "label": "Cl", "properties": {}}, {"species": [{"element": "Cl", "occu": 1}], "abc": [0.0880896, 0.00284938, 0.69791041], "xyz": [0.6518993656931, 0.01797087439596, 37.60815815815519], "label": "Cl", "properties": {}}, {"species": [{"element": "Cl", "occu": 1}], "abc": [0.58772867, 0.00388622, 0.69722926], "xyz": [4.29436080745273, 0.024510164139240002, 37.571453164846055], "label": "Cl", "properties": {}}, {"species": [{"element": "Cl", "occu": 1}], "abc": [0.59015697, 0.5050534, 0.69784165], "xyz": [6.13695278549513, 3.1853425007028, 37.60445290183876], "label": "Cl", "properties": {}}, {"species": [{"element": "Cl", "occu": 1}], "abc": [0.4254885, 0.83839972, 0.75295902], "xyz": [6.1515523656983, 5.28773840685624, 40.57455155421674], "label": "Cl", "properties": {}}, {"species": [{"element": "Cl", "occu": 1}], "abc": [0.42534073, 0.33760814, 0.75244363], "xyz": [4.32693631948327, 2.1292749577078802, 40.54677883675128], "label": "Cl", "properties": {}}, {"species": [{"element": "Cl", "occu": 1}], "abc": [0.9255068, 0.33811263, 0.75310476], "xyz": [7.97129725268565, 2.1324567468774602, 40.582405016339436], "label": "Cl", "properties": {}}, {"species": [{"element": "Cl", "occu": 1}], "abc": [0.92396897, 0.83803389, 0.75281879], "xyz": [9.78046859018748, 5.2854311382643795, 40.56699500835791], "label": "Cl", "properties": {}}, {"species": [{"element": "Cl", "occu": 1}], "abc": [0.76206671, 0.16959709, 0.80775734], "xyz": [6.167405549953941, 1.06963900999878, 43.527457623294], "label": "Cl", "properties": {}}, {"species": [{"element": "Cl", "occu": 1}], "abc": [0.7640917, 0.66923293, 0.80845369], "xyz": [8.00148427958225, 4.22081327400006, 43.56498169595174], "label": "Cl", "properties": {}}, {"species": [{"element": "Cl", "occu": 1}], "abc": [0.26412395, 0.66689356, 0.80773688], "xyz": [4.35188626129595, 4.20605900309352, 43.52635509938134], "label": "Cl", "properties": {}}, {"species": [{"element": "Cl", "occu": 1}], "abc": [0.2649406, 0.16909167, 0.80792104], "xyz": [2.54518013118345, 1.06645135537314, 43.53627889233122], "label": "Cl", "properties": {}}, {"species": [{"element": "Cl", "occu": 1}], "abc": [0.11026218, 0.4983091, 0.86401501], "xyz": [2.61749895013772, 3.1428065917722003, 46.559003392856745], "label": "Cl", "properties": {}}, {"species": [{"element": "Cl", "occu": 1}], "abc": [0.10348099, 0.99804971, 0.86077751], "xyz": [4.38782703849136, 6.29464163408682, 46.38454488028487], "label": "Cl", "properties": {}}, {"species": [{"element": "Cl", "occu": 1}], "abc": [0.60385137, 0.00863939, 0.86450828], "xyz": [4.429084239249581, 0.05448813164538, 46.585584134322794], "label": "Cl", "properties": {}}, {"species": [{"element": "Cl", "occu": 1}], "abc": [0.60132711, 0.4980406, 0.86362641], "xyz": [6.19276495716119, 3.1411131778452, 46.538062982668194], "label": "Cl", "properties": {}}, {"species": [{"element": "Cl", "occu": 1}], "abc": [0.43584947, 0.83879108, 0.91584354], "xyz": [6.22843253132683, 5.29020669167736, 49.35187698438935], "label": "Cl", "properties": {}}, {"species": [{"element": "Cl", "occu": 1}], "abc": [0.45440974, 0.30056747, 0.9504865], "xyz": [4.40375838742951, 1.8956616003767401, 51.218675215335125], "label": "Cl", "properties": {}}, {"species": [{"element": "Cl", "occu": 1}], "abc": [0.9467506, 0.31701463, 0.91610084], "xyz": [8.04918350276585, 1.9993928845614601, 49.36574205783637], "label": "Cl", "properties": {}}, {"species": [{"element": "Cl", "occu": 1}], "abc": [0.94623576, 0.82292915, 0.91831689], "xyz": [9.88762824444529, 5.1901664191593, 49.48515789931434], "label": "Cl", "properties": {}}, {"species": [{"element": "Cl", "occu": 1}], "abc": [0.77630067, 0.65669426, 0.97414811], "xyz": [8.04474043141333, 4.14173260955292, 52.49372364333692], "label": "Cl", "properties": {}}, {"species": [{"element": "Cl", "occu": 1}], "abc": [0.18958184, 0.8253955, 0.97620157], "xyz": [4.38617922093986, 5.2057215455609995, 52.60437803012482], "label": "Cl", "properties": {}}]}, "formula": "(LiCl)64.0", "bandgap": 5.0976}