{"miller": "210_0.13", "final_energy": -708.02767196, "sigma": 0.0037402908769680315, "incar_parameters": {"SYSTEM": "unknown system", "LCOMPAT": false, "PREC": "normal", "ENMAX": 520.0, "ENAUG": 628.945, "EDIFF": 1e-05, "IALGO": 38, "IWAVPR": 11, "NBANDS": 577, "NBANDSLOW": -1, "NBANDSHIGH": -1, "NELECT": 960.0, "TURBO": 0, "IRESTART": 0, "NREBOOT": 0, "NMIN": 0, "EREF": 0.0, "ISMEAR": 0, "SIGMA": 0.05, "KSPACING": 0.5, "KGAMMA": true, "KBLOWUP": true, "LREAL": true, "ROPT": [-0.0005, -0.0005], "LMAXPAW": -100, "LMAXMIX": 2, "NLSPLINE": false, "ISTART": 0, "ICHARG": 2, "INIWAV": 1, "ISPIN": 1, "LNONCOLLINEAR": false, "MAGMOM": [0.6, 0.6, 0.6, 0.6, 0.6, 0.6, 0.6, 0.6, 0.6, 0.6, 0.6, 0.6, 0.6, 0.6, 0.6, 0.6, 0.6, 0.6, 0.6, 0.6, 0.6, 0.6, 0.6, 0.6, 0.6, 0.6, 0.6, 0.6, 0.6, 0.6, 0.6, 0.6, 0.6, 0.6, 0.6, 0.6, 0.6, 0.6, 0.6, 0.6, 0.6, 0.6, 0.6, 0.6, 0.6, 0.6, 0.6, 0.6, 0.6, 0.6, 0.6, 0.6, 0.6, 0.6, 0.6, 0.6, 0.6, 0.6, 0.6, 0.6, 0.6, 0.6, 0.6, 0.6, 0.6, 0.6, 0.6, 0.6, 0.6, 0.6, 0.6, 0.6, 0.6, 0.6, 0.6, 0.6, 0.6, 0.6, 0.6, 0.6, 0.6, 0.6, 0.6, 0.6, 0.6, 0.6, 0.6, 0.6, 0.6, 0.6, 0.6, 0.6, 0.6, 0.6, 0.6, 0.6, 0.6, 0.6, 0.6, 0.6, 0.6, 0.6, 0.6, 0.6, 0.6, 0.6, 0.6, 0.6, 0.6, 0.6, 0.6, 0.6, 0.6, 0.6, 0.6, 0.6, 0.6, 0.6, 0.6, 0.6, 0.6, 0.6, 0.6, 0.6, 0.6, 0.6, 0.6, 0.6, 0.6, 0.6, 0.6, 0.6, 0.6, 0.6, 0.6, 0.6, 0.6, 0.6, 0.6, 0.6, 0.6, 0.6, 0.6, 0.6, 0.6, 0.6, 0.6, 0.6, 0.6, 0.6, 0.6, 0.6, 0.6, 0.6, 0.6, 0.6, 0.6, 0.6, 0.6, 0.6, 0.6, 0.6, 0.6, 0.6, 0.6, 0.6, 0.6, 0.6, 0.6, 0.6, 0.6, 0.6, 0.6, 0.6, 0.6, 0.6, 0.6, 0.6, 0.6, 0.6, 0.6, 0.6, 0.6, 0.6, 0.6, 0.6, 0.6, 0.6, 0.6, 0.6, 0.6, 0.6], "NUPDOWN": -1.0, "LSORBIT": false, "SAXIS": [0.0, 0.0, 1.0], "LSPIRAL": false, "QSPIRAL": [0.0, 0.0, 0.0], "LZEROZ": false, "LASPH": false, "LMETAGGA": false, "NELM": 100, "NELMDL": -5, "NELMIN": 6, "ENINI": 520.0, "LDIAG": true, "LSUBROT": false, "WEIMIN": 0.001, "EBREAK": 0.0, "DEPER": 0.3, "NRMM": 4, "TIME": 0.4, "AMIX": 0.4, "BMIX": 1.0, "AMIN": 0.1, "AMIX_MAG": 1.6, "BMIX_MAG": 1.0, "IMIX": 4, "MIXFIRST": false, "MAXMIX": -45, "WC": 100.0, "INIMIX": 1, "MIXPRE": 1, "MREMOVE": 5, "LDIPOL": false, "LMONO": false, "IDIPOL": 0, "EPSILON": 1.0, "DIPOL": [-100.0, -100.0, -100.0], "EFIELD": 0.0, "NGX": 30, "NGY": 64, "NGZ": 320, "NGXF": 60, "NGYF": 128, "NGZF": 640, "ADDGRID": false, "NSW": 150, "IBRION": 2, "MDALGO": 0, "ISIF": 3, "PSTRESS": 0.0, "EDIFFG": -0.01, "NFREE": 1, "POTIM": 0.5, "SMASS": -3.0, "SCALEE": 1.0, "TEBEG": 0.0001, "TEEND": 0.0001, "NBLOCK": 1, "KBLOCK": 150, "NPACO": 256, "APACO": 10.0, "ISYM": 0, "SYMPREC": 1e-05, "LORBIT": 11, "RWIGS": [-1.0, -1.0], "NEDOS": 301, "EMIN": 10.0, "EMAX": -10.0, "EFERMI": 0.0, "NWRITE": 2, "LWAVE": false, "LDOWNSAMPLE": false, "LCHARG": false, "LPARD": false, "LVTOT": false, "LVHAR": false, "LELF": false, "LOPTICS": false, "STM": [0.0, 0.0, 0.0, 0.0, 0.0, 0.0, 0.0], "NPAR": 1, "NSIM": 4, "NBLK": -1, "LPLANE": true, "LSCALAPACK": true, "LSCAAWARE": false, "LSCALU": false, "LASYNC": false, "LORBITALREAL": false, "IDIOT": 3, "PHON_NSTRUCT": -1, "LMUSIC": false, "POMASS": [7.01, 35.453], "DARWINR": [0.0, 0.0], "DARWINV": [1.0, 1.0], "LCORR": true, "GGA_COMPAT": true, "LBERRY": false, "ICORELEVEL": 0, "LDAU": false, "I_CONSTRAINED_M": 0, "GGA": "--", "VOSKOWN": 0, "LHFCALC": false, "PRECFOCK": "", "LSYMGRAD": false, "LHFONE": false, "LRHFCALC": false, "LTHOMAS": false, "LMODELHF": false, "LFOCKACE": false, "ENCUT4O": -1.0, "EXXOEP": 0, "FOURORBIT": 0, "AEXX": 0.0, "HFALPHA": 0.0, "MCALPHA": 0.0, "ALDAX": 1.0, "AGGAX": 1.0, "ALDAC": 1.0, "AGGAC": 1.0, "NKREDX": 1, "NKREDY": 1, "NKREDZ": 1, "SHIFTRED": false, "ODDONLY": false, "EVENONLY": false, "LMAXFOCK": 0, "NMAXFOCKAE": 0, "LFOCKAEDFT": false, "HFSCREEN": 0.0, "HFSCREENC": 0.0, "NBANDSGWLOW": 0, "LUSE_VDW": false, "Zab_VDW": -0.8491, "PARAM1": 0.1234, "PARAM2": 1.0, "PARAM3": 0.0, "MODEL_GW": 0, "MODEL_EPS0": 10.64033827, "MODEL_ALPHA": 1.0, "LEPSILON": false, "LRPA": false, "LNABLA": false, "LVEL": false, "CSHIFT": 0.1, "OMEGAMAX": -1.0, "DEG_THRESHOLD": 0.002, "RTIME": -0.1, "WPLASMAI": 0.0, "DFIELD": [0.0, 0.0, 0.0], "WPLASMA": [0.0, 0.0, 0.0, 0.0, 0.0, 0.0, 0.0, 0.0, 0.0], "NUCIND": false, "MAGPOS": [0.0, 0.0, 0.0], "LNICSALL": true, "ORBITALMAG": false, "LMAGBLOCH": false, "LCHIMAG": false, "LGAUGE": true, "MAGATOM": 0, "MAGDIPOL": [0.0, 0.0, 0.0], "AVECCONST": [0.0, 0.0, 0.0], "LFINITE_TEMPERATURE": false, "LADDER": false, "LRPAFORCE": false, "LFXC": false, "LHARTREE": true, "IBSE": 0, "KPOINT": [-1, 0, 0, 0], "LTCTC": false, "LTCTE": false, "LTETE": false, "LTRIPLET": false, "LFXCEPS": false, "LFXHEG": false, "NATURALO": 2, "LHOLEGF": false, "L2ORDER": false, "LDMP1": false, "LMP2LT": false, "LSMP2LT": false, "LGWLF": false, "ENCUTGW": -2.0, "ENCUTGWSOFT": -2.0, "ENCUTLF": -1.0, "LESF_SPLINES": false, "LMAXMP2": -1, "SCISSOR": 0.0, "NOMEGA": 0, "NOMEGAR": 0, "NBANDSGW": -1, "NBANDSO": -1, "NBANDSV": -1, "NELMGW": 1, "NELMHF": 1, "DIM": 3, "IESPILON": 4, "ANTIRES": 0, "OMEGAMIN": -30.0, "OMEGATL": -200.0, "OMEGAGRID": 0, "LSELFENERGY": false, "LSPECTRAL": false, "LSPECTRALGW": false, "LSINGLES": false, "LFERMIGW": false, "ODDONLYGW": false, "EVENONLYGW": false, "NKREDLFX": 1, "NKREDLFY": 1, "NKREDLFZ": 1, "MAXMEM": 2800, "TELESCOPE": 0, "NTAUPAR": -1, "NOMEGAPAR": -1, "DAMP_NEWTON": 0.80000001, "LAMBDA": 1.0, "OFIELD_KAPPA": 0.0, "OFIELD_K": [0.0, 0.0, 0.0], "OFIELD_Q6_NEAR": 0.0, "OFIELD_Q6_FAR": 0.0, "OFIELD_A": 0.0, "KPOINTS_OPT_MODE": 1, "LKPOINTS_OPT": false, "@module": "pymatgen.io.vasp.inputs", "@class": "Incar"}, "relaxed_structures": {"@module": "pymatgen.core.structure", "@class": "Structure", "charge": 0, "lattice": {"matrix": [[5.149597, 0.0, 0.0], [0.0, 11.514848, 0.0], [0.0, 0.0, 57.42142427]], "a": 5.149597, "b": 11.514848, "c": 57.42142427, "alpha": 90.0, "beta": 90.0, "gamma": 90.0, "volume": 3404.908244738807}, "sites": [{"species": [{"element": "Li", "occu": 1}], "abc": [1.0, 0.41445369, 0.04330526], "xyz": [5.149597, 4.77237124338912, 2.4866497075826604], "label": "Li", "properties": {}}, {"species": [{"element": "Li", "occu": 1}], "abc": [1.0, 0.82614614, 0.07964214], "xyz": [5.149597, 9.51294722788672, 4.573165110710738], "label": "Li", "properties": {}}, {"species": [{"element": "Li", "occu": 1}], "abc": [1.0, 0.12254961, 0.05776866], "xyz": [5.149597, 1.4111401316092802, 3.3171587353693783], "label": "Li", "properties": {}}, {"species": [{"element": "Li", "occu": 1}], "abc": [1e-08, 0.74250314, 0.0214589], "xyz": [5.1495970000000004e-08, 8.54981079662272, 1.232200601267503], "label": "Li", "properties": {}}, {"species": [{"element": "Li", "occu": 1}], "abc": [0.5, 0.32625799, 0.07963421], "xyz": [2.5747985, 3.75681116363552, 4.572709758816277], "label": "Li", "properties": {}}, {"species": [{"element": "Li", "occu": 1}], "abc": [0.5, 0.91444743, 0.04330126], "xyz": [2.5747985, 10.52972316044064, 2.4864200218855803], "label": "Li", "properties": {}}, {"species": [{"element": "Li", "occu": 1}], "abc": [0.5, 0.24252592, 0.02145861], "xyz": [2.5747985, 2.79264910486016, 1.2321839490544648], "label": "Li", "properties": {}}, {"species": [{"element": "Li", "occu": 1}], "abc": [0.5, 0.6224794, 0.05780082], "xyz": [2.5747985, 7.1677556741312, 3.3190054083739016], "label": "Li", "properties": {}}, {"species": [{"element": "Li", "occu": 1}], "abc": [1.0, 0.22109159, 0.12025475], "xyz": [5.149597, 2.5458360529283204, 6.905199020232782], "label": "Li", "properties": {}}, {"species": [{"element": "Li", "occu": 1}], "abc": [1.0, 0.62273102, 0.15965694], "xyz": [5.149597, 7.170653040184961, 9.167728889389934], "label": "Li", "properties": {}}, {"species": [{"element": "Li", "occu": 1}], "abc": [0.0, 0.9237494, 0.13965378], "xyz": [0.0, 10.636833931091202, 8.019118952289242], "label": "Li", "properties": {}}, {"species": [{"element": "Li", "occu": 1}], "abc": [0.0, 0.52387418, 0.0997996], "xyz": [0.0, 6.03233155382464, 5.730635173576292], "label": "Li", "properties": {}}, {"species": [{"element": "Li", "occu": 1}], "abc": [0.5, 0.12271348, 0.15966676], "xyz": [2.5747985, 1.41302706975104, 9.168292767776265], "label": "Li", "properties": {}}, {"species": [{"element": "Li", "occu": 1}], "abc": [0.5, 0.72101338, 0.12028405], "xyz": [2.5747985, 8.302359476666242, 6.906881467963894], "label": "Li", "properties": {}}, {"species": [{"element": "Li", "occu": 1}], "abc": [0.5, 0.02370612, 0.09977591], "xyz": [2.5747985, 0.27297236846976003, 5.729274860035336], "label": "Li", "properties": {}}, {"species": [{"element": "Li", "occu": 1}], "abc": [0.5, 0.42370869, 0.13968892], "xyz": [2.5747985, 4.87894116162912, 8.021136741138088], "label": "Li", "properties": {}}, {"species": [{"element": "Li", "occu": 1}], "abc": [0.0, 0.02361728, 0.1996773], "xyz": [0.0, 0.27194938937344004, 11.465754960388072], "label": "Li", "properties": {}}, {"species": [{"element": "Li", "occu": 1}], "abc": [0.0, 0.42558947, 0.23985598], "xyz": [0.0, 4.90059805745056, 13.772871991276634], "label": "Li", "properties": {}}, {"species": [{"element": "Li", "occu": 1}], "abc": [0.0, 0.72425789, 0.2198263], "xyz": [0.0, 8.33971951615072, 12.622739238004302], "label": "Li", "properties": {}}, {"species": [{"element": "Li", "occu": 1}], "abc": [0.0, 0.3241057, 0.18001274], "xyz": [0.0, 3.7320278714336004, 10.3365879175452], "label": "Li", "properties": {}}, {"species": [{"element": "Li", "occu": 1}], "abc": [0.5, 0.92560513, 0.23985609], "xyz": [2.5747985, 10.658202379970241, 13.772878307633304], "label": "Li", "properties": {}}, {"species": [{"element": "Li", "occu": 1}], "abc": [0.5, 0.52355955, 0.19974522], "xyz": [2.5747985, 6.0287086371984, 11.46965502352449], "label": "Li", "properties": {}}, {"species": [{"element": "Li", "occu": 1}], "abc": [0.5, 0.82413357, 0.18000339], "xyz": [2.5747985, 9.489772790247361, 10.336051027228276], "label": "Li", "properties": {}}, {"species": [{"element": "Li", "occu": 1}], "abc": [0.5, 0.22423624, 0.21982368], "xyz": [2.5747985, 2.58204621969152, 12.622588793872714], "label": "Li", "properties": {}}, {"species": [{"element": "Li", "occu": 1}], "abc": [0.0, 0.82573839, 0.27984747], "xyz": [0.0, 9.508252048614722, 16.069240305756097], "label": "Li", "properties": {}}, {"species": [{"element": "Li", "occu": 1}], "abc": [1.0, 0.22739077, 0.32002007], "xyz": [5.149597, 2.61837015315296, 18.3760082143851], "label": "Li", "properties": {}}, {"species": [{"element": "Li", "occu": 1}], "abc": [1.0, 0.52633443, 0.3001802], "xyz": [5.149597, 6.060660958616641, 17.236774621653456], "label": "Li", "properties": {}}, {"species": [{"element": "Li", "occu": 1}], "abc": [1.0, 0.12509672, 0.2598971], "xyz": [5.149597, 1.44046971609856, 14.923661645642618], "label": "Li", "properties": {}}, {"species": [{"element": "Li", "occu": 1}], "abc": [0.5, 0.7273954, 0.32001987], "xyz": [2.5747985, 8.3758474668992, 18.375996730100244], "label": "Li", "properties": {}}, {"species": [{"element": "Li", "occu": 1}], "abc": [0.5, 0.32573389, 0.27984856], "xyz": [2.5747985, 3.7507762317987203, 16.069302895108553], "label": "Li", "properties": {}}, {"species": [{"element": "Li", "occu": 1}], "abc": [0.5, 0.62509999, 0.25990069], "xyz": [2.5747985, 7.197931369651521, 14.923867788555746], "label": "Li", "properties": {}}, {"species": [{"element": "Li", "occu": 1}], "abc": [0.5, 0.02633154, 0.30018042], "xyz": [2.5747985, 0.30320368070592, 17.236787254366796], "label": "Li", "properties": {}}, {"species": [{"element": "Li", "occu": 1}], "abc": [0.0, 0.62800958, 0.36043088], "xyz": [0.0, 7.2314348562438395, 20.69645448048946], "label": "Li", "properties": {}}, {"species": [{"element": "Li", "occu": 1}], "abc": [1.0, 0.0263627, 0.39974996], "xyz": [5.149597, 0.3035624833696, 22.95421205507553], "label": "Li", "properties": {}}, {"species": [{"element": "Li", "occu": 1}], "abc": [1.0, 0.32960803, 0.37975617], "xyz": [5.149597, 3.79538636502944, 21.806140156720247], "label": "Li", "properties": {}}, {"species": [{"element": "Li", "occu": 1}], "abc": [0.0, 0.92733501, 0.34000568], "xyz": [0.0, 10.67812168522848, 19.523610405489855], "label": "Li", "properties": {}}, {"species": [{"element": "Li", "occu": 1}], "abc": [0.5, 0.52635787, 0.3997492], "xyz": [2.5747985, 6.06093086665376, 22.954168414793088], "label": "Li", "properties": {}}, {"species": [{"element": "Li", "occu": 1}], "abc": [0.5, 0.12800369, 0.36043309], "xyz": [2.5747985, 1.4739430337891202, 20.696581381837095], "label": "Li", "properties": {}}, {"species": [{"element": "Li", "occu": 1}], "abc": [0.5, 0.42733294, 0.34000572], "xyz": [2.5747985, 4.92067384949312, 19.523612702346828], "label": "Li", "properties": {}}, {"species": [{"element": "Li", "occu": 1}], "abc": [0.5, 0.82962299, 0.37975624], "xyz": [2.5747985, 9.55298262715552, 21.80614417621995], "label": "Li", "properties": {}}, {"species": [{"element": "Li", "occu": 1}], "abc": [1e-08, 0.42754188, 0.44217507], "xyz": [5.1495970000000004e-08, 4.92307976183424, 25.39032229608695], "label": "Li", "properties": {}}, {"species": [{"element": "Li", "occu": 1}], "abc": [1e-08, 0.80692243, 0.47866995], "xyz": [5.1495970000000004e-08, 9.29158912924064, 27.485910284249687], "label": "Li", "properties": {}}, {"species": [{"element": "Li", "occu": 1}], "abc": [1.0, 0.13377188, 0.45673661], "xyz": [5.149597, 1.5403628648742402, 26.226466662451525], "label": "Li", "properties": {}}, {"species": [{"element": "Li", "occu": 1}], "abc": [1e-08, 0.72283347, 0.42065194], "xyz": [5.1495970000000004e-08, 8.32331753636256, 24.154433516738585], "label": "Li", "properties": {}}, {"species": [{"element": "Li", "occu": 1}], "abc": [0.5, 0.30693012, 0.47867173], "xyz": [2.5747985, 3.5342536784217597, 27.48601249438489], "label": "Li", "properties": {}}, {"species": [{"element": "Li", "occu": 1}], "abc": [0.5, 0.92753136, 0.44218813], "xyz": [2.5747985, 10.68038262563328, 25.391072219887917], "label": "Li", "properties": {}}, {"species": [{"element": "Li", "occu": 1}], "abc": [0.5, 0.22282499, 0.42065259], "xyz": [2.5747985, 2.56579589045152, 24.15447084066436], "label": "Li", "properties": {}}, {"species": [{"element": "Li", "occu": 1}], "abc": [0.5, 0.63375549, 0.45673657], "xyz": [2.5747985, 7.2975981365155205, 26.226464365594556], "label": "Li", "properties": {}}, {"species": [{"element": "Li", "occu": 1}], "abc": [0.5, 0.13377864, 0.54325374], "xyz": [2.5747985, 1.5404407052467202, 31.194403490804273], "label": "Li", "properties": {}}, {"species": [{"element": "Li", "occu": 1}], "abc": [0.5, 0.72286989, 0.57939979], "xyz": [2.5747985, 8.32373690712672, 33.2699611635389], "label": "Li", "properties": {}}, {"species": [{"element": "Li", "occu": 1}], "abc": [0.5, 0.42757729, 0.55782154], "xyz": [2.5747985, 4.923487502601921, 32.03090731528477], "label": "Li", "properties": {}}, {"species": [{"element": "Li", "occu": 1}], "abc": [0.5, 0.80683214, 0.52132134], "xyz": [2.5747985, 9.290549453614721, 29.935013845144923], "label": "Li", "properties": {}}, {"species": [{"element": "Li", "occu": 1}], "abc": [1e-08, 0.2228699, 0.57939955], "xyz": [5.1495970000000004e-08, 2.5663130222752004, 33.26994738239708], "label": "Li", "properties": {}}, {"species": [{"element": "Li", "occu": 1}], "abc": [1.0, 0.63377553, 0.54325385], "xyz": [5.149597, 7.29782889406944, 31.194409807160945], "label": "Li", "properties": {}}, {"species": [{"element": "Li", "occu": 1}], "abc": [1.0, 0.30682944, 0.52131981], "xyz": [5.149597, 3.5330943635251204, 29.934925990365794], "label": "Li", "properties": {}}, {"species": [{"element": "Li", "occu": 1}], "abc": [0.0, 0.92757966, 0.55782206], "xyz": [0.0, 10.68093879279168, 32.0309371744254], "label": "Li", "properties": {}}, {"species": [{"element": "Li", "occu": 1}], "abc": [0.5, 0.32961485, 0.62025429], "xyz": [2.5747985, 3.7954648962928004, 35.61588474137762], "label": "Li", "properties": {}}, {"species": [{"element": "Li", "occu": 1}], "abc": [0.5, 0.92735058, 0.65998987], "xyz": [2.5747985, 10.678300971411842, 37.89755833917214], "label": "Li", "properties": {}}, {"species": [{"element": "Li", "occu": 1}], "abc": [0.5, 0.62802865, 0.63956656], "xyz": [2.5747985, 7.2316544443952, 36.72482279066441], "label": "Li", "properties": {}}, {"species": [{"element": "Li", "occu": 1}], "abc": [0.5, 0.02729442, 0.600067], "xyz": [2.5747985, 0.31429109754816004, 34.45670179742609], "label": "Li", "properties": {}}, {"species": [{"element": "Li", "occu": 1}], "abc": [0.0, 0.42735017, 0.6599897], "xyz": [0.0, 4.92087225032416, 37.897548577530024], "label": "Li", "properties": {}}, {"species": [{"element": "Li", "occu": 1}], "abc": [0.0, 0.8296148, 0.62025445], "xyz": [0.0, 9.5528883205504, 35.615893928805505], "label": "Li", "properties": {}}, {"species": [{"element": "Li", "occu": 1}], "abc": [1.0, 0.52729309, 0.60006699], "xyz": [5.149597, 6.07169978280032, 34.456701223211844], "label": "Li", "properties": {}}, {"species": [{"element": "Li", "occu": 1}], "abc": [0.0, 0.1280295, 0.6395666], "xyz": [0.0, 1.474240232016, 36.72482508752138], "label": "Li", "properties": {}}, {"species": [{"element": "Li", "occu": 1}], "abc": [0.5, 0.52633902, 0.69982382], "xyz": [2.5747985, 6.06071381176896, 40.18488048247211], "label": "Li", "properties": {}}, {"species": [{"element": "Li", "occu": 1}], "abc": [0.5, 0.12510637, 0.74010503], "xyz": [2.5747985, 1.44058083438176, 42.49788493199108], "label": "Li", "properties": {}}, {"species": [{"element": "Li", "occu": 1}], "abc": [0.5, 0.82573446, 0.72015485], "xyz": [2.5747985, 9.50820679526208, 41.352317181948216], "label": "Li", "properties": {}}, {"species": [{"element": "Li", "occu": 1}], "abc": [0.5, 0.22738546, 0.67997847], "xyz": [2.5747985, 2.6183090093100803, 39.04533222033547], "label": "Li", "properties": {}}, {"species": [{"element": "Li", "occu": 1}], "abc": [1.0, 0.62510656, 0.74010516], "xyz": [5.149597, 7.19800702220288, 42.49789239677624], "label": "Li", "properties": {}}, {"species": [{"element": "Li", "occu": 1}], "abc": [0.0, 0.02633868, 0.69982387], "xyz": [0.0, 0.30328589672064, 40.18488335354333], "label": "Li", "properties": {}}, {"species": [{"element": "Li", "occu": 1}], "abc": [0.0, 0.72738612, 0.67997848], "xyz": [0.0, 8.37574060910976, 39.045332794549715], "label": "Li", "properties": {}}, {"species": [{"element": "Li", "occu": 1}], "abc": [1.0, 0.32573449, 0.72015488], "xyz": [5.149597, 3.75078314070752, 41.352318904590945], "label": "Li", "properties": {}}, {"species": [{"element": "Li", "occu": 1}], "abc": [0.5, 0.72424117, 0.78018029], "xyz": [2.5747985, 8.33952698789216, 44.79906343918164], "label": "Li", "properties": {}}, {"species": [{"element": "Li", "occu": 1}], "abc": [0.5, 0.32414737, 0.82001628], "xyz": [2.5747985, 3.73250769514976, 47.08650272218712], "label": "Li", "properties": {}}, {"species": [{"element": "Li", "occu": 1}], "abc": [0.5, 0.02357191, 0.800268], "xyz": [2.5747985, 0.27142696071968003, 45.95252835770436], "label": "Li", "properties": {}}, {"species": [{"element": "Li", "occu": 1}], "abc": [0.50000001, 0.42559873, 0.76014775], "xyz": [2.57479855149597, 4.90070468494304, 43.6487664606359], "label": "Li", "properties": {}}, {"species": [{"element": "Li", "occu": 1}], "abc": [1.0, 0.82414849, 0.8200164], "xyz": [5.149597, 9.48994459177952, 47.08650961275803], "label": "Li", "properties": {}}, {"species": [{"element": "Li", "occu": 1}], "abc": [1.0, 0.2242419, 0.78018038], "xyz": [5.149597, 2.5821113937312, 44.799068607109824], "label": "Li", "properties": {}}, {"species": [{"element": "Li", "occu": 1}], "abc": [0.0, 0.92559852, 0.76014776], "xyz": [0.0, 10.65812626682496, 43.64876703485013], "label": "Li", "properties": {}}, {"species": [{"element": "Li", "occu": 1}], "abc": [0.0, 0.52357134, 0.800268], "xyz": [0.0, 6.028844397256321, 45.95252835770436], "label": "Li", "properties": {}}, {"species": [{"element": "Li", "occu": 1}], "abc": [0.5, 0.92373342, 0.86031773], "xyz": [2.5747985, 10.63664992382016, 49.40066938133331], "label": "Li", "properties": {}}, {"species": [{"element": "Li", "occu": 1}], "abc": [0.5, 0.52370351, 0.90023146], "xyz": [2.5747985, 6.030366314716481, 51.692572605861535], "label": "Li", "properties": {}}, {"species": [{"element": "Li", "occu": 1}], "abc": [0.5, 0.22096618, 0.87972696], "xyz": [2.5747985, 2.5443919758406404, 50.51517501191732], "label": "Li", "properties": {}}, {"species": [{"element": "Li", "occu": 1}], "abc": [0.5, 0.62262217, 0.84038033], "xyz": [2.5747985, 7.16939964898016, 48.25583547709261], "label": "Li", "properties": {}}, {"species": [{"element": "Li", "occu": 1}], "abc": [1.0, 0.02370572, 0.90023094], "xyz": [5.149597, 0.27296776253056, 51.69254274672092], "label": "Li", "properties": {}}, {"species": [{"element": "Li", "occu": 1}], "abc": [1.0, 0.4237325, 0.86031758], "xyz": [5.149597, 4.87921533016, 49.40066076811967], "label": "Li", "properties": {}}, {"species": [{"element": "Li", "occu": 1}], "abc": [0.0, 0.12262198, 0.84038042], "xyz": [0.0, 1.4119734611590402, 48.2558406450208], "label": "Li", "properties": {}}, {"species": [{"element": "Li", "occu": 1}], "abc": [0.0, 0.72096823, 0.87972657], "xyz": [0.0, 8.30183958127904, 50.51515261756185], "label": "Li", "properties": {}}, {"species": [{"element": "Li", "occu": 1}], "abc": [0.5, 0.12250474, 0.94221058], "xyz": [2.5747985, 1.41062346037952, 54.10307346586278], "label": "Li", "properties": {}}, {"species": [{"element": "Li", "occu": 1}], "abc": [0.5, 0.74250627, 0.97854426], "xyz": [2.5747985, 8.549846838096961, 56.18940512043319], "label": "Li", "properties": {}}, {"species": [{"element": "Li", "occu": 1}], "abc": [0.5, 0.41437989, 0.95670588], "xyz": [2.5747985, 4.77152144760672, 54.93541423708371], "label": "Li", "properties": {}}, {"species": [{"element": "Li", "occu": 1}], "abc": [0.5, 0.82614869, 0.92035949], "xyz": [2.5747985, 9.51297659074912, 52.84835275621082], "label": "Li", "properties": {}}, {"species": [{"element": "Li", "occu": 1}], "abc": [1e-08, 0.24250498, 0.97853876], "xyz": [5.1495970000000004e-08, 2.7924079839430402, 56.189089302599704], "label": "Li", "properties": {}}, {"species": [{"element": "Li", "occu": 1}], "abc": [0.0, 0.62251034, 0.94221073], "xyz": [0.0, 7.168111943528321, 54.10308207907642], "label": "Li", "properties": {}}, {"species": [{"element": "Li", "occu": 1}], "abc": [0.0, 0.32614675, 0.92036001], "xyz": [0.0, 3.755530251944, 52.84838261535145], "label": "Li", "properties": {}}, {"species": [{"element": "Li", "occu": 1}], "abc": [0.0, 0.91437373, 0.95670631], "xyz": [0.0, 10.528874516143041, 54.93543892829614], "label": "Li", "properties": {}}, {"species": [{"element": "Cl", "occu": 1}], "abc": [0.49999999, 0.4262862, 0.04037833], "xyz": [2.57479844850403, 4.9086207974976, 2.318581218244069], "label": "Cl", "properties": {}}, {"species": [{"element": "Cl", "occu": 1}], "abc": [0.49999999, 0.82105344, 0.08075731], "xyz": [2.57479844850403, 9.45430556147712, 4.637199760413914], "label": "Cl", "properties": {}}, {"species": [{"element": "Cl", "occu": 1}], "abc": [0.0, 0.32108332, 0.08076045], "xyz": [0.0, 3.6972256251353603, 4.6373800636861215], "label": "Cl", "properties": {}}, {"species": [{"element": "Cl", "occu": 1}], "abc": [0.99999999, 0.92621295, 0.04039001], "xyz": [5.14959694850403, 10.665201334881601, 2.3192519004795424], "label": "Cl", "properties": {}}, {"species": [{"element": "Cl", "occu": 1}], "abc": [1e-08, 0.23597917, 0.02055072], "xyz": [5.1495970000000004e-08, 2.71726427371616, 1.1800516121739746], "label": "Cl", "properties": {}}, {"species": [{"element": "Cl", "occu": 1}], "abc": [1e-08, 0.6209228, 0.05813936], "xyz": [5.1495970000000004e-08, 7.1498316617344, 3.3384448573462673], "label": "Cl", "properties": {}}, {"species": [{"element": "Cl", "occu": 1}], "abc": [0.49999999, 0.12093401, 0.0581258], "xyz": [2.57479844850403, 1.39253674318048, 3.337666222833166], "label": "Cl", "properties": {}}, {"species": [{"element": "Cl", "occu": 1}], "abc": [0.49999999, 0.73596819, 0.02055692], "xyz": [2.57479844850403, 8.474561840685121, 1.1804076250044484], "label": "Cl", "properties": {}}, {"species": [{"element": "Cl", "occu": 1}], "abc": [0.5, 0.22216216, 0.11964184], "xyz": [2.5747985, 2.55816350375168, 6.870004855083457], "label": "Cl", "properties": {}}, {"species": [{"element": "Cl", "occu": 1}], "abc": [0.49999999, 0.62370238, 0.15990912], "xyz": [2.57479844850403, 7.18183810293824, 9.182209424162343], "label": "Cl", "properties": {}}, {"species": [{"element": "Cl", "occu": 1}], "abc": [0.99999999, 0.1237406, 0.15991435], "xyz": [5.14959694850403, 1.4248542004288, 9.182509738211275], "label": "Cl", "properties": {}}, {"species": [{"element": "Cl", "occu": 1}], "abc": [0.99999999, 0.72224555, 0.11963994], "xyz": [5.14959694850403, 8.3165477269264, 6.869895754377344], "label": "Cl", "properties": {}}, {"species": [{"element": "Cl", "occu": 1}], "abc": [0.0, 0.02336023, 0.09980625], "xyz": [0.0, 0.26898949769504, 5.731017026047688], "label": "Cl", "properties": {}}, {"species": [{"element": "Cl", "occu": 1}], "abc": [0.0, 0.42344117, 0.13983661], "xyz": [0.0, 4.87586070949216, 8.029617311288526], "label": "Cl", "properties": {}}, {"species": [{"element": "Cl", "occu": 1}], "abc": [0.5, 0.92343483, 0.13982927], "xyz": [2.5747985, 10.63321170535584, 8.029195838034383], "label": "Cl", "properties": {}}, {"species": [{"element": "Cl", "occu": 1}], "abc": [0.49999999, 0.52336964, 0.09981552], "xyz": [2.57479844850403, 6.02652185241472, 5.731549322650671], "label": "Cl", "properties": {}}, {"species": [{"element": "Cl", "occu": 1}], "abc": [0.50000001, 0.02389922, 0.19984597], "xyz": [2.57479855149597, 0.27519588561856, 11.475440232019693], "label": "Cl", "properties": {}}, {"species": [{"element": "Cl", "occu": 1}], "abc": [0.50000002, 0.42477751, 0.23978124], "xyz": [2.57479860299194, 4.89124846146848, 13.768580314026696], "label": "Cl", "properties": {}}, {"species": [{"element": "Cl", "occu": 1}], "abc": [1.0, 0.92478012, 0.23977949], "xyz": [5.149597, 10.64870251522176, 13.768479826534223], "label": "Cl", "properties": {}}, {"species": [{"element": "Cl", "occu": 1}], "abc": [0.99999999, 0.5239439, 0.19984209], "xyz": [5.14959694850403, 6.0331343690272, 11.475217436893525], "label": "Cl", "properties": {}}, {"species": [{"element": "Cl", "occu": 1}], "abc": [1.0, 0.82383942, 0.17974822], "xyz": [5.149597, 9.48638569770816, 10.3213988023973], "label": "Cl", "properties": {}}, {"species": [{"element": "Cl", "occu": 1}], "abc": [1.0, 0.22429755, 0.21986277], "xyz": [5.149597, 2.5827521950224, 12.624833397347428], "label": "Cl", "properties": {}}, {"species": [{"element": "Cl", "occu": 1}], "abc": [0.50000001, 0.72422696, 0.21987355], "xyz": [2.57479855149597, 8.33936336190208, 12.625452400301059], "label": "Cl", "properties": {}}, {"species": [{"element": "Cl", "occu": 1}], "abc": [0.50000001, 0.3238663, 0.17974588], "xyz": [2.57479855149597, 3.7292712168224003, 10.321264436264508], "label": "Cl", "properties": {}}, {"species": [{"element": "Cl", "occu": 1}], "abc": [0.50000001, 0.82599663, 0.27991638], "xyz": [2.57479855149597, 9.511225642962241, 16.073197216102546], "label": "Cl", "properties": {}}, {"species": [{"element": "Cl", "occu": 1}], "abc": [0.50000001, 0.22669393, 0.32015683], "xyz": [2.57479855149597, 2.61034614647264, 18.383861168368266], "label": "Cl", "properties": {}}, {"species": [{"element": "Cl", "occu": 1}], "abc": [0.0, 0.72668804, 0.32015715], "xyz": [0.0, 8.36770232401792, 18.383879543224033], "label": "Cl", "properties": {}}, {"species": [{"element": "Cl", "occu": 1}], "abc": [0.99999999, 0.32599196, 0.27991436], "xyz": [5.14959694850403, 3.7537478686220807, 16.073081224825515], "label": "Cl", "properties": {}}, {"species": [{"element": "Cl", "occu": 1}], "abc": [0.99999999, 0.6254395, 0.26000454], "xyz": [5.14959694850403, 7.201840775696001, 14.929831003466187], "label": "Cl", "properties": {}}, {"species": [{"element": "Cl", "occu": 1}], "abc": [1.0, 0.02592826, 0.29995322], "xyz": [5.149597, 0.29855997280448004, 17.22374110677265], "label": "Cl", "properties": {}}, {"species": [{"element": "Cl", "occu": 1}], "abc": [0.50000001, 0.52592313, 0.29995502], "xyz": [2.57479855149597, 6.05592490163424, 17.223844465336338], "label": "Cl", "properties": {}}, {"species": [{"element": "Cl", "occu": 1}], "abc": [0.5, 0.12544573, 0.26000342], "xyz": [2.5747985, 1.4444885131990401, 14.929766691471004], "label": "Cl", "properties": {}}, {"species": [{"element": "Cl", "occu": 1}], "abc": [0.49999999, 0.62712292, 0.36005469], "xyz": [2.57479844850403, 7.22122510111616, 20.674853114893327], "label": "Cl", "properties": {}}, {"species": [{"element": "Cl", "occu": 1}], "abc": [0.49999999, 0.02620201, 0.40023258], "xyz": [2.57479844850403, 0.30171216244448, 22.98192478285672], "label": "Cl", "properties": {}}, {"species": [{"element": "Cl", "occu": 1}], "abc": [2e-08, 0.52616893, 0.40022799], "xyz": [1.0299194000000001e-07, 6.05875525127264, 22.981661218519317], "label": "Cl", "properties": {}}, {"species": [{"element": "Cl", "occu": 1}], "abc": [1.0, 0.12712739, 0.36005424], "xyz": [5.149597, 1.4638525724867202, 20.674827275252408], "label": "Cl", "properties": {}}, {"species": [{"element": "Cl", "occu": 1}], "abc": [1e-08, 0.42721258, 0.34005834], "xyz": [5.1495970000000004e-08, 4.9192879223878405, 19.526634217691914], "label": "Cl", "properties": {}}, {"species": [{"element": "Cl", "occu": 1}], "abc": [1e-08, 0.82788849, 0.38027286], "xyz": [5.1495970000000004e-08, 9.53301012329952, 21.835809232426314], "label": "Cl", "properties": {}}, {"species": [{"element": "Cl", "occu": 1}], "abc": [0.49999998, 0.32790121, 0.38027369], "xyz": [2.57479839700806, 3.7757325921660803, 21.835856892208458], "label": "Cl", "properties": {}}, {"species": [{"element": "Cl", "occu": 1}], "abc": [0.5, 0.92721151, 0.34005952], "xyz": [2.5747985, 10.67669960150048, 19.52670197497255], "label": "Cl", "properties": {}}, {"species": [{"element": "Cl", "occu": 1}], "abc": [0.49999997, 0.42809407, 0.44186247], "xyz": [2.57479834551209, 4.9294381457513605, 25.372372358860147], "label": "Cl", "properties": {}}, {"species": [{"element": "Cl", "occu": 1}], "abc": [0.49999998, 0.81309464, 0.47940556], "xyz": [2.57479839700806, 9.36266118921472, 27.528150058156942], "label": "Cl", "properties": {}}, {"species": [{"element": "Cl", "occu": 1}], "abc": [1e-08, 0.31309728, 0.47940477], "xyz": [5.1495970000000004e-08, 3.6052675884134397, 27.528104695231768], "label": "Cl", "properties": {}}, {"species": [{"element": "Cl", "occu": 1}], "abc": [1e-08, 0.928069, 0.4418555], "xyz": [5.1495970000000004e-08, 10.686573468512002, 25.37197213153299], "label": "Cl", "properties": {}}, {"species": [{"element": "Cl", "occu": 1}], "abc": [1.0, 0.22769638, 0.41924721], "xyz": [5.149597, 2.6218892058502403, 24.073771919423788], "label": "Cl", "properties": {}}, {"species": [{"element": "Cl", "occu": 1}], "abc": [2e-08, 0.62297698, 0.45968062], "xyz": [1.0299194000000001e-07, 7.173485232199041, 26.395515909716647], "label": "Cl", "properties": {}}, {"species": [{"element": "Cl", "occu": 1}], "abc": [0.49999999, 0.12298869, 0.45967197], "xyz": [2.57479844850403, 1.4161960710691202, 26.39501921439671], "label": "Cl", "properties": {}}, {"species": [{"element": "Cl", "occu": 1}], "abc": [0.49999997, 0.72767634, 0.41924776], "xyz": [2.57479834551209, 8.379082448296321, 24.073803501207138], "label": "Cl", "properties": {}}, {"species": [{"element": "Cl", "occu": 1}], "abc": [1.0, 0.12306843, 0.54033575], "xyz": [5.149597, 1.4171142650486401, 31.026848348998655], "label": "Cl", "properties": {}}, {"species": [{"element": "Cl", "occu": 1}], "abc": [1.0, 0.72773992, 0.58074825], "xyz": [5.149597, 8.379814562332161, 33.34739165731003], "label": "Cl", "properties": {}}, {"species": [{"element": "Cl", "occu": 1}], "abc": [0.50000001, 0.22773858, 0.58074882], "xyz": [2.57479855149597, 2.62237513243584, 33.34742438752187], "label": "Cl", "properties": {}}, {"species": [{"element": "Cl", "occu": 1}], "abc": [0.50000001, 0.6231252, 0.54033343], "xyz": [2.57479855149597, 7.175191962969601, 31.02671513129435], "label": "Cl", "properties": {}}, {"species": [{"element": "Cl", "occu": 1}], "abc": [0.50000001, 0.31313108, 0.52059962], "xyz": [2.57479855149597, 3.60565679027584, 29.893571654820782], "label": "Cl", "properties": {}}, {"species": [{"element": "Cl", "occu": 1}], "abc": [0.5, 0.92812649, 0.55813451], "xyz": [2.5747985, 10.68723545712352, 32.04887849843856], "label": "Cl", "properties": {}}, {"species": [{"element": "Cl", "occu": 1}], "abc": [0.99999998, 0.42813119, 0.55813533], "xyz": [5.14959689700806, 4.92986557690912, 32.04892558400646], "label": "Cl", "properties": {}}, {"species": [{"element": "Cl", "occu": 1}], "abc": [1e-08, 0.81315269, 0.52059479], "xyz": [5.1495970000000004e-08, 9.363329626141121, 29.893294309341552], "label": "Cl", "properties": {}}, {"species": [{"element": "Cl", "occu": 1}], "abc": [0.99999999, 0.32792789, 0.61971464], "xyz": [5.14959694850403, 3.77603980831072, 35.584897269770316], "label": "Cl", "properties": {}}, {"species": [{"element": "Cl", "occu": 1}], "abc": [0.0, 0.92721297, 0.6599386], "xyz": [0.0, 10.67671641317856, 37.894614342749826], "label": "Cl", "properties": {}}, {"species": [{"element": "Cl", "occu": 1}], "abc": [0.5, 0.427213, 0.6599386], "xyz": [2.5747985, 4.9192927586240005, 37.894614342749826], "label": "Cl", "properties": {}}, {"species": [{"element": "Cl", "occu": 1}], "abc": [0.49999999, 0.82792847, 0.61971453], "xyz": [2.57479844850403, 9.53347048692256, 35.58489095341364], "label": "Cl", "properties": {}}, {"species": [{"element": "Cl", "occu": 1}], "abc": [0.50000001, 0.52620874, 0.5997507], "xyz": [2.57479855149597, 6.05921365737152, 34.438539400929486], "label": "Cl", "properties": {}}, {"species": [{"element": "Cl", "occu": 1}], "abc": [0.5, 0.12713439, 0.63993635], "xyz": [2.5747985, 1.4639331764227201, 36.74605665914522], "label": "Cl", "properties": {}}, {"species": [{"element": "Cl", "occu": 1}], "abc": [1e-08, 0.62713518, 0.63993635], "xyz": [5.1495970000000004e-08, 7.221366273152641, 36.74605665914522], "label": "Cl", "properties": {}}, {"species": [{"element": "Cl", "occu": 1}], "abc": [1e-08, 0.02620725, 0.59975088], "xyz": [5.1495970000000004e-08, 0.301772500248, 34.43854973678586], "label": "Cl", "properties": {}}, {"species": [{"element": "Cl", "occu": 1}], "abc": [0.0, 0.52595595, 0.70004565], "xyz": [0.0, 6.0563028189456, 40.197618277017924], "label": "Cl", "properties": {}}, {"species": [{"element": "Cl", "occu": 1}], "abc": [0.0, 0.12545253, 0.74000187], "xyz": [0.0, 1.4445668141654402, 42.49196133786339], "label": "Cl", "properties": {}}, {"species": [{"element": "Cl", "occu": 1}], "abc": [0.5, 0.62545077, 0.74000154], "xyz": [2.5747985, 7.2019705480329606, 42.491942388793376], "label": "Cl", "properties": {}}, {"species": [{"element": "Cl", "occu": 1}], "abc": [0.5, 0.02595606, 0.70004536], "xyz": [2.5747985, 0.29888008557888, 40.19760162480489], "label": "Cl", "properties": {}}, {"species": [{"element": "Cl", "occu": 1}], "abc": [0.49999999, 0.72669384, 0.67985301], "xyz": [2.57479844850403, 8.36776911013632, 39.03812812844655], "label": "Cl", "properties": {}}, {"species": [{"element": "Cl", "occu": 1}], "abc": [0.49999999, 0.32601821, 0.72009483], "xyz": [2.57479844850403, 3.75405013338208, 41.348870748063526], "label": "Cl", "properties": {}}, {"species": [{"element": "Cl", "occu": 1}], "abc": [1e-08, 0.82601696, 0.7200947], "xyz": [5.1495970000000004e-08, 9.511459739822081, 41.34886328327837], "label": "Cl", "properties": {}}, {"species": [{"element": "Cl", "occu": 1}], "abc": [1.0, 0.2266934, 0.67985307], "xyz": [5.149597, 2.6103400436032, 39.03813157373201], "label": "Cl", "properties": {}}, {"species": [{"element": "Cl", "occu": 1}], "abc": [1.0, 0.72428417, 0.78014354], "xyz": [5.149597, 8.34002212635616, 44.79695320183971], "label": "Cl", "properties": {}}, {"species": [{"element": "Cl", "occu": 1}], "abc": [1.0, 0.32386268, 0.82026125], "xyz": [5.149597, 3.7292295330726404, 47.100569248490544], "label": "Cl", "properties": {}}, {"species": [{"element": "Cl", "occu": 1}], "abc": [0.49999999, 0.82386025, 0.82026057], "xyz": [2.57479844850403, 9.486625551992, 47.100530201922034], "label": "Cl", "properties": {}}, {"species": [{"element": "Cl", "occu": 1}], "abc": [0.5, 0.22428191, 0.78014308], "xyz": [2.5747985, 2.58257210279968, 44.79692678798455], "label": "Cl", "properties": {}}, {"species": [{"element": "Cl", "occu": 1}], "abc": [0.49999999, 0.92477893, 0.76022255], "xyz": [2.57479844850403, 10.64868881255264, 43.653061583171294], "label": "Cl", "properties": {}}, {"species": [{"element": "Cl", "occu": 1}], "abc": [0.49999999, 0.52392147, 0.80016133], "xyz": [2.57479844850403, 6.03287609098656, 45.94640321437748], "label": "Cl", "properties": {}}, {"species": [{"element": "Cl", "occu": 1}], "abc": [1e-08, 0.02392215, 0.8001606], "xyz": [5.1495970000000004e-08, 0.2754599210832, 45.94636129673776], "label": "Cl", "properties": {}}, {"species": [{"element": "Cl", "occu": 1}], "abc": [1.0, 0.42477839, 0.76022202], "xyz": [5.149597, 4.891258594534721, 43.65303114981643], "label": "Cl", "properties": {}}, {"species": [{"element": "Cl", "occu": 1}], "abc": [0.0, 0.9234507, 0.86017904], "xyz": [0.0, 10.6333944459936, 49.39270560400131], "label": "Cl", "properties": {}}, {"species": [{"element": "Cl", "occu": 1}], "abc": [2e-08, 0.523365, 0.90019476], "xyz": [1.0299194000000001e-07, 6.02646842352, 51.69046523959083], "label": "Cl", "properties": {}}, {"species": [{"element": "Cl", "occu": 1}], "abc": [0.50000001, 0.02336702, 0.90019348], "xyz": [2.57479855149597, 0.26906768351296, 51.69039174016776], "label": "Cl", "properties": {}}, {"species": [{"element": "Cl", "occu": 1}], "abc": [0.5, 0.42344912, 0.86018019], "xyz": [2.5747985, 4.87595225253376, 49.39277163863922], "label": "Cl", "properties": {}}, {"species": [{"element": "Cl", "occu": 1}], "abc": [0.5, 0.12370608, 0.84009531], "xyz": [2.5747985, 1.4244567078758401, 48.239469222747175], "label": "Cl", "properties": {}}, {"species": [{"element": "Cl", "occu": 1}], "abc": [0.49999999, 0.72220746, 0.88037536], "xyz": [2.57479844850403, 8.316109126366081, 50.552407063413995], "label": "Cl", "properties": {}}, {"species": [{"element": "Cl", "occu": 1}], "abc": [1e-08, 0.22221021, 0.88037559], "xyz": [5.1495970000000004e-08, 2.55871679219808, 50.55242027034157], "label": "Cl", "properties": {}}, {"species": [{"element": "Cl", "occu": 1}], "abc": [0.0, 0.6237026, 0.84009538], "xyz": [0.0, 7.1818406362048, 48.23947324224687], "label": "Cl", "properties": {}}, {"species": [{"element": "Cl", "occu": 1}], "abc": [1e-08, 0.12089422, 0.94186655], "xyz": [5.1495970000000004e-08, 1.39207856737856, 54.083318773271166], "label": "Cl", "properties": {}}, {"species": [{"element": "Cl", "occu": 1}], "abc": [0.99999999, 0.73597992, 0.97944986], "xyz": [5.14959694850403, 8.474696909852161, 56.2414059622521], "label": "Cl", "properties": {}}, {"species": [{"element": "Cl", "occu": 1}], "abc": [0.50000001, 0.23598039, 0.97945102], "xyz": [2.57479855149597, 2.71727832183072, 56.241472571104254], "label": "Cl", "properties": {}}, {"species": [{"element": "Cl", "occu": 1}], "abc": [0.49999999, 0.62089506, 0.94186564], "xyz": [2.57479844850403, 7.149512239850881, 54.08326651977508], "label": "Cl", "properties": {}}, {"species": [{"element": "Cl", "occu": 1}], "abc": [0.5, 0.32101511, 0.91925734], "xyz": [2.5747985, 3.6964401973532803, 52.785065733451646], "label": "Cl", "properties": {}}, {"species": [{"element": "Cl", "occu": 1}], "abc": [0.49999999, 0.92624421, 0.95961273], "xyz": [2.57479844850403, 10.66556128903008, 55.10232970422296], "label": "Cl", "properties": {}}, {"species": [{"element": "Cl", "occu": 1}], "abc": [1e-08, 0.42624357, 0.95961346], "xyz": [5.1495970000000004e-08, 4.908129919527361, 55.10237162186268], "label": "Cl", "properties": {}}, {"species": [{"element": "Cl", "occu": 1}], "abc": [0.99999999, 0.82102718, 0.91925671], "xyz": [5.14959694850403, 9.45400318156864, 52.78502955795435], "label": "Cl", "properties": {}}]}, "formula": "(LiCl)96.0", "bandgap": 5.8935}