{"miller": "010_0.25", "final_energy": -648.43381118, "sigma": 0.0248105680859195, "incar_parameters": {"SYSTEM": "unknown system", "LCOMPAT": false, "PREC": "normal", "ENMAX": 520.0, "ENAUG": 628.945, "EDIFF": 1e-05, "IALGO": 38, "IWAVPR": 11, "NBANDS": 439, "NBANDSLOW": -1, "NBANDSHIGH": -1, "NELECT": 720.0, "TURBO": 0, "IRESTART": 0, "NREBOOT": 0, "NMIN": 0, "EREF": 0.0, "ISMEAR": 0, "SIGMA": 0.05, "KSPACING": 0.5, "KGAMMA": true, "KBLOWUP": true, "LREAL": true, "ROPT": [-0.0005, -0.0005, -0.0005, -0.0005], "LMAXPAW": -100, "LMAXMIX": 2, "NLSPLINE": false, "ISTART": 0, "ICHARG": 2, "INIWAV": 1, "ISPIN": 1, "LNONCOLLINEAR": false, "MAGMOM": [0.6, 0.6, 0.6, 0.6, 0.6, 0.6, 0.6, 0.6, 0.6, 0.6, 0.6, 0.6, 0.6, 0.6, 0.6, 0.6, 0.6, 0.6, 0.6, 0.6, 0.6, 0.6, 0.6, 0.6, 0.6, 0.6, 0.6, 0.6, 0.6, 0.6, 0.6, 0.6, 0.6, 0.6, 0.6, 0.6, 0.6, 0.6, 0.6, 0.6, 0.6, 0.6, 0.6, 0.6, 0.6, 0.6, 0.6, 0.6, 0.6, 0.6, 0.6, 0.6, 0.6, 0.6, 0.6, 0.6, 0.6, 0.6, 0.6, 0.6, 0.6, 0.6, 0.6, 0.6, 0.6, 0.6, 0.6, 0.6, 0.6, 0.6, 0.6, 0.6, 0.6, 0.6, 0.6, 0.6, 0.6, 0.6, 0.6, 0.6, 0.6, 0.6, 0.6, 0.6, 0.6, 0.6, 0.6, 0.6, 0.6, 0.6, 0.6, 0.6, 0.6, 0.6, 0.6, 0.6, 0.6, 0.6, 0.6, 0.6, 0.6, 0.6, 0.6, 0.6, 0.6, 0.6, 0.6, 0.6, 0.6, 0.6, 0.6, 0.6, 0.6, 0.6, 0.6, 0.6, 0.6, 0.6, 0.6, 0.6, 0.6, 0.6, 0.6, 0.6, 0.6, 0.6, 0.6, 0.6, 0.6, 0.6, 0.6, 0.6, 0.6, 0.6, 0.6, 0.6, 0.6, 0.6, 0.6, 0.6, 0.6, 0.6, 0.6, 0.6, 0.6, 0.6, 0.6, 0.6, 0.6, 0.6, 0.6, 0.6, 0.6, 0.6, 0.6, 0.6], "NUPDOWN": -1.0, "LSORBIT": false, "SAXIS": [0.0, 0.0, 1.0], "LSPIRAL": false, "QSPIRAL": [0.0, 0.0, 0.0], "LZEROZ": false, "LASPH": false, "LMETAGGA": false, "NELM": 100, "NELMDL": -5, "NELMIN": 6, "ENINI": 520.0, "LDIAG": true, "LSUBROT": false, "WEIMIN": 0.001, "EBREAK": 1e-08, "DEPER": 0.3, "NRMM": 4, "TIME": 0.4, "AMIX": 0.4, "BMIX": 1.0, "AMIN": 0.1, "AMIX_MAG": 1.6, "BMIX_MAG": 1.0, "IMIX": 4, "MIXFIRST": false, "MAXMIX": -45, "WC": 100.0, "INIMIX": 1, "MIXPRE": 1, "MREMOVE": 5, "LDIPOL": false, "LMONO": false, "IDIPOL": 0, "EPSILON": 1.0, "DIPOL": [-100.0, -100.0, -100.0], "EFIELD": 0.0, "NGX": 70, "NGY": 40, "NGZ": 250, "NGXF": 140, "NGYF": 80, "NGZF": 500, "ADDGRID": false, "NSW": 150, "IBRION": 2, "MDALGO": 0, "ISIF": 3, "PSTRESS": 0.0, "EDIFFG": -0.01, "NFREE": 1, "POTIM": 0.5, "SMASS": -3.0, "SCALEE": 1.0, "TEBEG": 0.0001, "TEEND": 0.0001, "NBLOCK": 1, "KBLOCK": 150, "NPACO": 256, "APACO": 10.0, "ISYM": 0, "SYMPREC": 1e-05, "LORBIT": 11, "RWIGS": [-1.0, -1.0, -1.0, -1.0], "NEDOS": 301, "EMIN": 10.0, "EMAX": -10.0, "EFERMI": 0.0, "NWRITE": 2, "LWAVE": false, "LDOWNSAMPLE": false, "LCHARG": false, "LPARD": false, "LVTOT": false, "LVHAR": false, "LELF": false, "LOPTICS": false, "STM": [0.0, 0.0, 0.0, 0.0, 0.0, 0.0, 0.0], "NPAR": 1, "NSIM": 2, "NBLK": -1, "LPLANE": true, "LSCALAPACK": true, "LSCAAWARE": false, "LSCALU": false, "LASYNC": false, "LORBITALREAL": false, "IDIOT": 3, "PHON_NSTRUCT": -1, "LMUSIC": false, "POMASS": [7.01, 30.974, 32.066, 35.453], "DARWINR": [0.0, 0.0, 0.0, 0.0], "DARWINV": [1.0, 1.0, 1.0, 1.0], "LCORR": true, "GGA_COMPAT": true, "LBERRY": false, "ICORELEVEL": 0, "LDAU": false, "I_CONSTRAINED_M": 0, "GGA": "--", "VOSKOWN": 0, "LHFCALC": false, "PRECFOCK": "", "LSYMGRAD": false, "LHFONE": false, "LRHFCALC": false, "LTHOMAS": false, "LMODELHF": false, "LFOCKACE": false, "ENCUT4O": -1.0, "EXXOEP": 0, "FOURORBIT": 0, "AEXX": 0.0, "HFALPHA": 0.0, "MCALPHA": 0.0, "ALDAX": 1.0, "AGGAX": 1.0, "ALDAC": 1.0, "AGGAC": 1.0, "NKREDX": 1, "NKREDY": 1, "NKREDZ": 1, "SHIFTRED": false, "ODDONLY": false, "EVENONLY": false, "LMAXFOCK": 0, "NMAXFOCKAE": 0, "LFOCKAEDFT": false, "HFSCREEN": 0.0, "HFSCREENC": 0.0, "NBANDSGWLOW": 0, "LUSE_VDW": false, "Zab_VDW": -0.8491, "PARAM1": 0.1234, "PARAM2": 1.0, "PARAM3": 0.0, "MODEL_GW": 0, "MODEL_EPS0": 12.24496418, "MODEL_ALPHA": 1.0, "LEPSILON": false, "LRPA": false, "LNABLA": false, "LVEL": false, "CSHIFT": 0.1, "OMEGAMAX": -1.0, "DEG_THRESHOLD": 0.002, "RTIME": -0.1, "WPLASMAI": 0.0, "DFIELD": [0.0, 0.0, 0.0], "WPLASMA": [0.0, 0.0, 0.0, 0.0, 0.0, 0.0, 0.0, 0.0, 0.0], "NUCIND": false, "MAGPOS": [0.0, 0.0, 0.0], "LNICSALL": true, "ORBITALMAG": false, "LMAGBLOCH": false, "LCHIMAG": false, "LGAUGE": true, "MAGATOM": 0, "MAGDIPOL": [0.0, 0.0, 0.0], "AVECCONST": [0.0, 0.0, 0.0], "LFINITE_TEMPERATURE": false, "LADDER": false, "LRPAFORCE": false, "LFXC": false, "LHARTREE": true, "IBSE": 0, "KPOINT": [-1, 0, 0, 0], "LTCTC": false, "LTCTE": false, "LTETE": false, "LTRIPLET": false, "LFXCEPS": false, "LFXHEG": false, "NATURALO": 2, "LHOLEGF": false, "L2ORDER": false, "LDMP1": false, "LMP2LT": false, "LSMP2LT": false, "LGWLF": false, "ENCUTGW": -2.0, "ENCUTGWSOFT": -2.0, "ENCUTLF": -1.0, "LESF_SPLINES": false, "LMAXMP2": -1, "SCISSOR": 0.0, "NOMEGA": 0, "NOMEGAR": 0, "NBANDSGW": -1, "NBANDSO": -1, "NBANDSV": -1, "NELMGW": 1, "NELMHF": 1, "DIM": 3, "IESPILON": 4, "ANTIRES": 0, "OMEGAMIN": -30.0, "OMEGATL": -200.0, "OMEGAGRID": 0, "LSELFENERGY": false, "LSPECTRAL": false, "LSPECTRALGW": false, "LSINGLES": false, "LFERMIGW": false, "ODDONLYGW": false, "EVENONLYGW": false, "NKREDLFX": 1, "NKREDLFY": 1, "NKREDLFZ": 1, "MAXMEM": 2800, "TELESCOPE": 0, "NTAUPAR": -1, "NOMEGAPAR": -1, "DAMP_NEWTON": 0.80000001, "LAMBDA": 1.0, "OFIELD_KAPPA": 0.0, "OFIELD_K": [0.0, 0.0, 0.0], "OFIELD_Q6_NEAR": 0.0, "OFIELD_Q6_FAR": 0.0, "OFIELD_A": 0.0, "KPOINTS_OPT_MODE": 1, "LKPOINTS_OPT": false, "@module": "pymatgen.io.vasp.inputs", "@class": "Incar"}, "relaxed_structures": {"@module": "pymatgen.core.structure", "@class": "Structure", "charge": 0, "lattice": {"matrix": [[12.275469, 0.0, 0.0], [-4.032337, 5.85224, 0.0], [0.0, 0.0, 44.31702974]], "a": 12.275469, "b": 7.106930047437431, "c": 44.31702974, "alpha": 90.0, "beta": 90.0, "gamma": 124.56779534439714, "volume": 3183.6906873683015}, "sites": [{"species": [{"element": "Li", "occu": 1}], "abc": [0.83816321, 0.72647025, 0.08955157], "xyz": [7.35947363282124, 4.25147825586, 3.968659590953692], "label": "Li", "properties": {}}, {"species": [{"element": "Li", "occu": 1}], "abc": [0.83651883, 0.68927406, 0.02471269], "xyz": [7.4892756703030505, 4.0337972248944, 1.0951930176854006], "label": "Li", "properties": {}}, {"species": [{"element": "Li", "occu": 1}], "abc": [0.36341687, 0.69552329, 0.16403354], "xyz": [1.6565282251332998, 4.0703692186696, 7.26947927053748], "label": "Li", "properties": {}}, {"species": [{"element": "Li", "occu": 1}], "abc": [0.3360998, 0.67954184, 0.09663119], "xyz": [1.3856409713261195, 3.9768419377215998, 4.282407321041591], "label": "Li", "properties": {}}, {"species": [{"element": "Li", "occu": 1}], "abc": [0.65283392, 0.91995801, 0.07976884], "xyz": [4.304261824939109, 5.3838150644424, 3.5351180546053014], "label": "Li", "properties": {}}, {"species": [{"element": "Li", "occu": 1}], "abc": [0.73773592, 0.93510928, 0.00653974], "xyz": [5.285378667359119, 5.4724839327872, 0.2898218520718676], "label": "Li", "properties": {}}, {"species": [{"element": "Li", "occu": 1}], "abc": [0.21426394, 0.87493723, 0.17529851], "xyz": [-0.89785141191865, 5.1203426548952, 7.768709281047688], "label": "Li", "properties": {}}, {"species": [{"element": "Li", "occu": 1}], "abc": [0.17798239, 0.872977, 0.09600475], "xyz": [-1.3353201462580904, 5.10887091848, 4.254645360931265], "label": "Li", "properties": {}}, {"species": [{"element": "Li", "occu": 1}], "abc": [0.6021248, 0.29496634, 0.0698792], "xyz": [6.20196062999462, 1.7262138136016, 3.0968385846074082], "label": "Li", "properties": {}}, {"species": [{"element": "Li", "occu": 1}], "abc": [0.14584687, 0.27289196, 0.13331902], "xyz": [0.6899463841215099, 1.5970292439904, 5.908302974247656], "label": "Li", "properties": {}}, {"species": [{"element": "Li", "occu": 1}], "abc": [0.4498969, 0.54293219, 0.0499834], "xyz": [3.333409890918069, 3.1773694796056002, 2.215115824306316], "label": "Li", "properties": {}}, {"species": [{"element": "Li", "occu": 1}], "abc": [0.95594597, 0.36755703, 0.13141613], "xyz": [10.25257130873082, 2.1510319532472, 5.823972541525706], "label": "Li", "properties": {}}, {"species": [{"element": "Li", "occu": 1}], "abc": [0.72248953, 0.55789845, 0.25246424], "xyz": [6.619263266161919, 3.2649556250280005, 11.188465232366498], "label": "Li", "properties": {}}, {"species": [{"element": "Li", "occu": 1}], "abc": [0.90440337, 0.88464647, 0.19642035], "xyz": [7.5347828390301395, 5.1771634575928, 8.70476649249121], "label": "Li", "properties": {}}, {"species": [{"element": "Li", "occu": 1}], "abc": [0.40171198, 0.88599621, 0.3017667], "xyz": [1.35856765797585, 5.1850624600104, 13.373403818441659], "label": "Li", "properties": {}}, {"species": [{"element": "Li", "occu": 1}], "abc": [0.22032891, 0.54933452, 0.24775286], "xyz": [0.4895387941355498, 3.2148374513248004, 10.979670864790057], "label": "Li", "properties": {}}, {"species": [{"element": "Li", "occu": 1}], "abc": [0.6150694, 0.89098311, 0.23296898], "xyz": [3.9575211917205295, 5.2142469956664, 10.324493215157466], "label": "Li", "properties": {}}, {"species": [{"element": "Li", "occu": 1}], "abc": [0.71683286, 0.88555054, 0.16350209], "xyz": [5.22862134329936, 5.1824542922096, 7.245926985082156], "label": "Li", "properties": {}}, {"species": [{"element": "Li", "occu": 1}], "abc": [0.2157545, 0.88195587, 0.33696178], "xyz": [-0.9078556106076903, 5.1614174206488, 14.933145225503338], "label": "Li", "properties": {}}, {"species": [{"element": "Li", "occu": 1}], "abc": [0.11688, 0.88905349, 0.26665569], "xyz": [-2.1502064659861304, 5.2029543963176, 11.817388144070222], "label": "Li", "properties": {}}, {"species": [{"element": "Li", "occu": 1}], "abc": [0.63301808, 0.33924951, 0.17901765], "xyz": [6.40262546607465, 1.9853695524024, 7.933530519034911], "label": "Li", "properties": {}}, {"species": [{"element": "Li", "occu": 1}], "abc": [0.13086082, 0.33805497, 0.32138912], "xyz": [0.24322637565968974, 1.9783788176328, 14.243011189152428], "label": "Li", "properties": {}}, {"species": [{"element": "Li", "occu": 1}], "abc": [0.44721868, 0.32530859, 0.21456523], "xyz": [4.178065178686089, 1.9037839427416001, 9.508893679079941], "label": "Li", "properties": {}}, {"species": [{"element": "Li", "occu": 1}], "abc": [0.942977, 0.32307185, 0.28587183], "xyz": [10.27275035679955, 1.890694003444, 12.668990391938225], "label": "Li", "properties": {}}, {"species": [{"element": "Li", "occu": 1}], "abc": [0.83266387, 0.6828536, 0.4040128], "xyz": [7.46784368674183, 3.9962231520639997, 17.90464727294067], "label": "Li", "properties": {}}, {"species": [{"element": "Li", "occu": 1}], "abc": [0.86330478, 0.70117682, 0.33655794], "xyz": [7.770089829613479, 4.1034550330768, 14.915248236213136], "label": "Li", "properties": {}}, {"species": [{"element": "Li", "occu": 1}], "abc": [0.33401911, 0.68748828, 0.4756337], "xyz": [1.32805680170223, 4.0233464117472, 21.07867282824624], "label": "Li", "properties": {}}, {"species": [{"element": "Li", "occu": 1}], "abc": [0.33636923, 0.7280913, 0.41086209], "xyz": [1.1931805670507702, 4.260965029512, 18.20818746156856], "label": "Li", "properties": {}}, {"species": [{"element": "Li", "occu": 1}], "abc": [0.67506078, 0.87973033, 0.40389525], "xyz": [4.739318518324609, 5.1483930264392, 17.899437806094735], "label": "Li", "properties": {}}, {"species": [{"element": "Li", "occu": 1}], "abc": [0.71211119, 0.87569887, 0.32496952], "xyz": [5.21038588303892, 5.1247999549688, 14.401683882433526], "label": "Li", "properties": {}}, {"species": [{"element": "Li", "occu": 1}], "abc": [0.23663825, 0.93548896, 0.49389411], "xyz": [-0.8673612444102705, 5.474705911270401, 21.887919961280833], "label": "Li", "properties": {}}, {"species": [{"element": "Li", "occu": 1}], "abc": [0.15205954, 0.92615215, 0.42116253], "xyz": [-1.8679554126502902, 5.420064658316, 18.66467236738364], "label": "Li", "properties": {}}, {"species": [{"element": "Li", "occu": 1}], "abc": [0.64402998, 0.27680689, 0.36735034], "xyz": [6.789591390158689, 1.6199403539336001, 16.279875942779114], "label": "Li", "properties": {}}, {"species": [{"element": "Li", "occu": 1}], "abc": [0.09883789, 0.29677865, 0.43051397], "xyz": [0.016569923515359797, 1.7368198866759998, 19.07910041197547], "label": "Li", "properties": {}}, {"species": [{"element": "Li", "occu": 1}], "abc": [0.45310514, 0.36654742, 0.36833525], "xyz": [4.08403537589012, 2.1451234732208, 16.323524228540336], "label": "Li", "properties": {}}, {"species": [{"element": "Li", "occu": 1}], "abc": [0.94869671, 0.54823665, 0.45046609], "xyz": [9.435022125455939, 3.208412452596, 19.963319107391516], "label": "Li", "properties": {}}, {"species": [{"element": "Li", "occu": 1}], "abc": [0.43852812, 0.59360637, 0.58980024], "xyz": [2.98951741350159, 3.4739269427688004, 26.138194776739137], "label": "Li", "properties": {}}, {"species": [{"element": "Li", "occu": 1}], "abc": [0.43952005, 0.62808557, 0.52509404], "xyz": [2.8626620655763593, 3.6757074961768, 23.27060818697675], "label": "Li", "properties": {}}, {"species": [{"element": "Li", "occu": 1}], "abc": [0.91748611, 0.63416249, 0.664002], "xyz": [8.70541542879646, 3.7112710904776, 29.42659638141948], "label": "Li", "properties": {}}, {"species": [{"element": "Li", "occu": 1}], "abc": [0.93706469, 0.63782379, 0.59680552], "xyz": [8.930988085192379, 3.7326978967896003, 26.448647978836167], "label": "Li", "properties": {}}, {"species": [{"element": "Li", "occu": 1}], "abc": [0.62374494, 0.39366789, 0.57970373], "xyz": [6.069360076317929, 2.3038389725736, 25.69074744279893], "label": "Li", "properties": {}}, {"species": [{"element": "Li", "occu": 1}], "abc": [0.5381846, 0.38394184, 0.5062124], "xyz": [5.0582854862973194, 2.2469197937216, 22.433829985556777], "label": "Li", "properties": {}}, {"species": [{"element": "Li", "occu": 1}], "abc": [0.06001131, 0.44745712, 0.67479591], "xyz": [-1.06763092533505, 2.6186264559488, 29.904950411900366], "label": "Li", "properties": {}}, {"species": [{"element": "Li", "occu": 1}], "abc": [0.09723986, 0.45035988, 0.59509441], "xyz": [-0.6223379204452202, 2.6356141041312, 26.372816666077753], "label": "Li", "properties": {}}, {"species": [{"element": "Li", "occu": 1}], "abc": [0.67467386, 0.02185077, 0.56925886], "xyz": [8.193828385190848, 0.1278759502248, 25.2278618283785], "label": "Li", "properties": {}}, {"species": [{"element": "Li", "occu": 1}], "abc": [0.13228573, 0.05423354, 0.63208887], "xyz": [1.40518146777439, 0.3173876921296, 28.012301250112998], "label": "Li", "properties": {}}, {"species": [{"element": "Li", "occu": 1}], "abc": [0.82511354, 0.7712453, 0.54967187], "xyz": [7.01873472248416, 4.513512594472, 24.359824610031414], "label": "Li", "properties": {}}, {"species": [{"element": "Li", "occu": 1}], "abc": [0.32109889, 0.95626921, 0.63139825], "xyz": [0.08563975268564006, 5.5963169215304, 27.981695023033957], "label": "Li", "properties": {}}, {"species": [{"element": "Li", "occu": 1}], "abc": [0.55141824, 0.77638212, 0.75186154], "xyz": [3.638283162540119, 4.5435744979488, 33.320270228542206], "label": "Li", "properties": {}}, {"species": [{"element": "Li", "occu": 1}], "abc": [0.37187324, 0.4488715, 0.69590478], "xyz": [2.75491727185406, 2.62690374716, 30.84043283146816], "label": "Li", "properties": {}}, {"species": [{"element": "Li", "occu": 1}], "abc": [0.87203249, 0.44198842, 0.80140249], "xyz": [8.92236153845027, 2.5866223110608, 35.51577798304005], "label": "Li", "properties": {}}, {"species": [{"element": "Li", "occu": 1}], "abc": [0.05705814, 0.78045566, 0.74708546], "xyz": [-2.44664480590976, 4.5674138316784, 33.10860854914158], "label": "Li", "properties": {}}, {"species": [{"element": "Li", "occu": 1}], "abc": [0.65061992, 0.43743982, 0.73436612], "xyz": [6.222759887283139, 2.5600028121968, 32.54492518008841], "label": "Li", "properties": {}}, {"species": [{"element": "Li", "occu": 1}], "abc": [0.56162598, 0.44019988, 0.66381558], "xyz": [5.119188043565059, 2.5761553457312, 29.418334800735348], "label": "Li", "properties": {}}, {"species": [{"element": "Li", "occu": 1}], "abc": [0.05942591, 0.44880985, 0.83688414], "xyz": [-1.0802716481176602, 2.626542956564, 37.08821932131433], "label": "Li", "properties": {}}, {"species": [{"element": "Li", "occu": 1}], "abc": [0.15830236, 0.43684934, 0.76682193], "xyz": [0.1817119556992599, 2.5565471815216, 33.9832702770942], "label": "Li", "properties": {}}, {"species": [{"element": "Li", "occu": 1}], "abc": [0.64741209, 0.99537673, 0.6785523], "xyz": [3.933592623702199, 5.8251835143752, 30.071422459245404], "label": "Li", "properties": {}}, {"species": [{"element": "Li", "occu": 1}], "abc": [0.14038015, 0.9892018, 0.82065229], "xyz": [-2.2655628390662503, 5.789046342032, 36.368871942129104], "label": "Li", "properties": {}}, {"species": [{"element": "Li", "occu": 1}], "abc": [0.83099675, 0.00191689, 0.71371788], "xyz": [10.19314529725382, 0.0112181003336, 31.629856513929756], "label": "Li", "properties": {}}, {"species": [{"element": "Li", "occu": 1}], "abc": [0.32965826, 0.00330572, 0.78632145], "xyz": [4.0333799741563, 0.0193458668128, 34.84743108484992], "label": "Li", "properties": {}}, {"species": [{"element": "Li", "occu": 1}], "abc": [0.43641043, 0.64049933, 0.90310904], "xyz": [2.77443355790746, 3.7483557989992002, 40.02311018414285], "label": "Li", "properties": {}}, {"species": [{"element": "Li", "occu": 1}], "abc": [0.41657364, 0.63467674, 0.83570993], "xyz": [2.55440630229578, 3.7142806048976, 37.03618182182332], "label": "Li", "properties": {}}, {"species": [{"element": "Li", "occu": 1}], "abc": [0.9382796, 0.6273515, 0.97492647], "xyz": [8.9881294776769, 3.67141154236, 43.20584536530322], "label": "Li", "properties": {}}, {"species": [{"element": "Li", "occu": 1}], "abc": [0.93967923, 0.60231446, 0.91002043], "xyz": [9.10626837511585, 3.5248887753904, 40.32940246031759], "label": "Li", "properties": {}}, {"species": [{"element": "Li", "occu": 1}], "abc": [0.59699855, 0.45403223, 0.90495997], "xyz": [5.49762623334844, 2.6571055776951997, 40.105137903999506], "label": "Li", "properties": {}}, {"species": [{"element": "Li", "occu": 1}], "abc": [0.561934, 0.4500459, 0.82549895], "xyz": [5.0832666627776995, 2.6337766178160003, 36.58366151748877], "label": "Li", "properties": {}}, {"species": [{"element": "Li", "occu": 1}], "abc": [0.0399152, 0.3865248, 0.99352225], "xyz": [-1.0686204522288, 2.262035895552, 44.02995510060172], "label": "Li", "properties": {}}, {"species": [{"element": "Li", "occu": 1}], "abc": [0.12178251, 0.39973981, 0.9202341], "xyz": [-0.11694819998878003, 2.3393733056743997, 40.782041977462136], "label": "Li", "properties": {}}, {"species": [{"element": "Li", "occu": 1}], "abc": [0.63139892, 0.05555233, 0.86792962], "xyz": [7.526712153398269, 0.32510556771919996, 38.4640627817669], "label": "Li", "properties": {}}, {"species": [{"element": "Li", "occu": 1}], "abc": [0.17399809, 0.0277777, 0.93048474], "xyz": [2.02389911236931, 0.162561767048, 41.23631989519617], "label": "Li", "properties": {}}, {"species": [{"element": "Li", "occu": 1}], "abc": [0.82012574, 0.96004466, 0.86852334], "xyz": [6.19620449330164, 5.6184117610384, 38.49037468866413], "label": "Li", "properties": {}}, {"species": [{"element": "Li", "occu": 1}], "abc": [0.32565468, 0.77802195, 0.95007676], "xyz": [0.8603172332477698, 4.553171176668, 42.10458002820285], "label": "Li", "properties": {}}, {"species": [{"element": "P", "occu": 1}], "abc": [0.43573993, 0.4039129, 0.12872102], "xyz": [3.72019907132987, 2.363795229896, 5.704533271503135], "label": "P", "properties": {}}, {"species": [{"element": "P", "occu": 1}], "abc": [0.94465899, 0.46123381, 0.0530868], "xyz": [9.73628198960234, 2.6992509522344004, 2.352649294401432], "label": "P", "properties": {}}, {"species": [{"element": "P", "occu": 1}], "abc": [0.42192494, 0.40689573, 0.28825513], "xyz": [3.5385858140758506, 2.3812514669352, 12.774611168917568], "label": "P", "properties": {}}, {"species": [{"element": "P", "occu": 1}], "abc": [0.92277855, 0.40687375, 0.21165522], "xyz": [9.686887407936199, 2.3811228346999997, 9.379930679366243], "label": "P", "properties": {}}, {"species": [{"element": "P", "occu": 1}], "abc": [0.44366649, 0.46277569, 0.44688416], "xyz": [3.5801467068462802, 2.7082744040456, 19.804578609054918], "label": "P", "properties": {}}, {"species": [{"element": "P", "occu": 1}], "abc": [0.93374471, 0.40653371, 0.37167565], "xyz": [9.822873320938719, 2.3791328390104, 16.47156083468383], "label": "P", "properties": {}}, {"species": [{"element": "P", "occu": 1}], "abc": [0.84079293, 0.91779847, 0.62830728], "xyz": [6.62025481850978, 5.3711769180728, 27.84471241361851], "label": "P", "properties": {}}, {"species": [{"element": "P", "occu": 1}], "abc": [0.33190213, 0.85955367, 0.55297784], "xyz": [0.60824424082218, 5.0303143697208, 24.506335380840966], "label": "P", "properties": {}}, {"species": [{"element": "P", "occu": 1}], "abc": [0.85115462, 0.92067387, 0.78823571], "xyz": [6.735854841082588, 5.3880044489688, 34.93226540220002], "label": "P", "properties": {}}, {"species": [{"element": "P", "occu": 1}], "abc": [0.35124397, 0.92071678, 0.71142178], "xyz": [0.5990441266570699, 5.3882555685872005, 31.52810018194374], "label": "P", "properties": {}}, {"species": [{"element": "P", "occu": 1}], "abc": [0.83091113, 0.86017508, 0.94704728], "xyz": [6.7313080165080095, 5.0339510101792, 41.97032247294611], "label": "P", "properties": {}}, {"species": [{"element": "P", "occu": 1}], "abc": [0.3394268, 0.92004476, 0.87141902], "xyz": [0.45669263376507896, 5.3843227462624, 38.61870262534166], "label": "P", "properties": {}}, {"species": [{"element": "S", "occu": 1}], "abc": [0.81343206, 0.32497155, 0.08963861], "xyz": [8.674865231123789, 1.901811503772, 3.9725169452222615], "label": "S", "properties": {}}, {"species": [{"element": "S", "occu": 1}], "abc": [0.82727344, 0.34447397, 0.01446129], "xyz": [8.766134332475469, 2.0159443461928, 0.6408814190087646], "label": "S", "properties": {}}, {"species": [{"element": "S", "occu": 1}], "abc": [0.31627373, 0.29510424, 0.16691677], "xyz": [2.692448622320489, 1.7270208374976002, 7.39725546019474], "label": "S", "properties": {}}, {"species": [{"element": "S", "occu": 1}], "abc": [0.30537956, 0.29174, 0.09237682], "xyz": [2.5722833256336397, 1.7073324976, 4.093866279226627], "label": "S", "properties": {}}, {"species": [{"element": "S", "occu": 1}], "abc": [0.6686804, 0.66368793, 0.05067658], "xyz": [5.532152124515188, 3.8840610514632004, 2.2458355029814894], "label": "S", "properties": {}}, {"species": [{"element": "S", "occu": 1}], "abc": [0.18745484, 0.64815955, 0.13312646], "xyz": [-0.31250165804839014, 3.7931852448920003, 5.899769287000921], "label": "S", "properties": {}}, {"species": [{"element": "S", "occu": 1}], "abc": [0.55397283, 0.29309215, 0.12644251], "xyz": [5.618429980652719, 1.715245603916, 5.603556476070248], "label": "S", "properties": {}}, {"species": [{"element": "S", "occu": 1}], "abc": [0.07728873, 0.38292442, 0.05081046], "xyz": [-0.59532489780517, 2.2409656077008, 2.2517686669230805], "label": "S", "properties": {}}, {"species": [{"element": "S", "occu": 1}], "abc": [0.53563392, 0.75721983, 0.12866298], "xyz": [3.521792042665769, 4.4314321779192, 5.701961111097026], "label": "S", "properties": {}}, {"species": [{"element": "S", "occu": 1}], "abc": [0.02826877, 0.80757293, 0.05607802], "xyz": [-2.90939379603428, 4.7261106038632, 2.485211280100315], "label": "S", "properties": {}}, {"species": [{"element": "S", "occu": 1}], "abc": [0.7933316, 0.29322376, 0.24774683], "xyz": [8.55614044579328, 1.7160158172224, 10.979403633100725], "label": "S", "properties": {}}, {"species": [{"element": "S", "occu": 1}], "abc": [0.81079001, 0.29828021, 0.17274145], "xyz": [8.75006130611392, 1.7456073761704, 7.655387976980723], "label": "S", "properties": {}}, {"species": [{"element": "S", "occu": 1}], "abc": [0.30836435, 0.29458459, 0.32692209], "xyz": [2.5974526772433197, 1.7239797209816, 14.488215985192957], "label": "S", "properties": {}}, {"species": [{"element": "S", "occu": 1}], "abc": [0.2936972, 0.29176704, 0.25194256], "xyz": [2.42876784321432, 1.7074907421696, 11.165345924291735], "label": "S", "properties": {}}, {"species": [{"element": "S", "occu": 1}], "abc": [0.6694612, 0.6579034, 0.20686734], "xyz": [5.565061985056999, 3.850208593616, 9.167746059014693], "label": "S", "properties": {}}, {"species": [{"element": "S", "occu": 1}], "abc": [0.16731576, 0.6545752, 0.29313044], "xyz": [-0.5855883731509599, 3.830731168448, 12.990670427179285], "label": "S", "properties": {}}, {"species": [{"element": "S", "occu": 1}], "abc": [0.5406448, 0.29272068, 0.28674201], "xyz": [5.45632005378204, 1.7130716723232, 12.707554184877377], "label": "S", "properties": {}}, {"species": [{"element": "S", "occu": 1}], "abc": [0.04016003, 0.29001165, 0.21314512], "xyz": [-0.6764415034219802, 1.697217778596, 9.445958621975869], "label": "S", "properties": {}}, {"species": [{"element": "S", "occu": 1}], "abc": [0.5399375, 0.7610676, 0.28656449], "xyz": [3.559105000206299, 4.453950251424, 12.699687025757934], "label": "S", "properties": {}}, {"species": [{"element": "S", "occu": 1}], "abc": [0.04170607, 0.76112505, 0.21342567], "xyz": [-2.55715113134502, 4.454286462612, 9.458391764669427], "label": "S", "properties": {}}, {"species": [{"element": "S", "occu": 1}], "abc": [0.80403516, 0.29621618, 0.40810648], "xyz": [8.675465218877378, 1.7335281772432, 18.086067011246715], "label": "S", "properties": {}}, {"species": [{"element": "S", "occu": 1}], "abc": [0.8135926, 0.29721255, 0.33359762], "xyz": [8.78876957770005, 1.7393591736120002, 14.784055646733218], "label": "S", "properties": {}}, {"species": [{"element": "S", "occu": 1}], "abc": [0.32665239, 0.34438992, 0.48557579], "xyz": [2.6211150703778703, 2.0154524654208, 21.519276726453995], "label": "S", "properties": {}}, {"species": [{"element": "S", "occu": 1}], "abc": [0.31196785, 0.32837156, 0.41040879], "xyz": [2.5054468805359296, 1.9217091782944, 18.188098551987416], "label": "S", "properties": {}}, {"species": [{"element": "S", "occu": 1}], "abc": [0.68488554, 0.65101147, 0.36720656], "xyz": [5.78219357691287, 3.8098753651928003, 16.273504040243097], "label": "S", "properties": {}}, {"species": [{"element": "S", "occu": 1}], "abc": [0.16682652, 0.66595629, 0.44979836], "xyz": [-0.6374864139118501, 3.8973360385896, 19.933727297123227], "label": "S", "properties": {}}, {"species": [{"element": "S", "occu": 1}], "abc": [0.57638772, 0.38450116, 0.4489252], "xyz": [5.52499133482976, 2.2501930685984, 19.89503143943545], "label": "S", "properties": {}}, {"species": [{"element": "S", "occu": 1}], "abc": [0.05116546, 0.2937205, 0.37395907], "xyz": [-0.55630002170776, 1.71892285892, 16.572755226732742], "label": "S", "properties": {}}, {"species": [{"element": "S", "occu": 1}], "abc": [0.52650291, 0.80887201, 0.4442851], "xyz": [3.20142561592742, 4.7337131318024, 19.689395989738873], "label": "S", "properties": {}}, {"species": [{"element": "S", "occu": 1}], "abc": [0.03490353, 0.75987511, 0.37177648], "xyz": [-2.6356153209265, 4.4469715137464, 16.476029320792517], "label": "S", "properties": {}}, {"species": [{"element": "S", "occu": 1}], "abc": [0.4627782, 0.99328036, 0.58962422], "xyz": [1.675578300974479, 5.8129150540064, 26.130394093164306], "label": "S", "properties": {}}, {"species": [{"element": "S", "occu": 1}], "abc": [0.44950829, 0.97497877, 0.51442753], "xyz": [1.5864821106525189, 5.7058097569448, 22.797900146084743], "label": "S", "properties": {}}, {"species": [{"element": "S", "occu": 1}], "abc": [0.96153876, 0.0297082, 0.66630576], "xyz": [11.68354576661504, 0.173859516368, 29.5286921818533], "label": "S", "properties": {}}, {"species": [{"element": "S", "occu": 1}], "abc": [0.9699623, 0.02847056, 0.59177973], "xyz": [11.791939252319981, 0.1666165500544, 26.22591989393917], "label": "S", "properties": {}}, {"species": [{"element": "S", "occu": 1}], "abc": [0.60692831, 0.65105057, 0.55069831], "xyz": [4.8250743523452995, 3.8101041877768, 24.405313382037743], "label": "S", "properties": {}}, {"species": [{"element": "S", "occu": 1}], "abc": [0.09003732, 0.67624677, 0.63261254], "xyz": [-1.62160454129841, 3.9575583972648, 28.035508749076943], "label": "S", "properties": {}}, {"species": [{"element": "S", "occu": 1}], "abc": [0.72181164, 0.02705712, 0.62586938], "xyz": [8.75147298456972, 0.1583447599488, 27.736671926815365], "label": "S", "properties": {}}, {"species": [{"element": "S", "occu": 1}], "abc": [0.19993829, 0.93942492, 0.55080124], "xyz": [-1.3337415828300303, 5.4977400938208, 24.409874933908878], "label": "S", "properties": {}}, {"species": [{"element": "S", "occu": 1}], "abc": [0.74127399, 0.5644867, 0.62876958], "xyz": [6.82328527833341, 3.3035116452080002, 27.86520017646731], "label": "S", "properties": {}}, {"species": [{"element": "S", "occu": 1}], "abc": [0.24778344, 0.51309769, 0.55588508], "xyz": [0.9726751364318291, 3.0027708253256002, 24.63517562238228], "label": "S", "properties": {}}, {"species": [{"element": "S", "occu": 1}], "abc": [0.47847837, 0.03441959, 0.74796041], "xyz": [5.734755011823699, 0.2014317013816, 33.1473837343126], "label": "S", "properties": {}}, {"species": [{"element": "S", "occu": 1}], "abc": [0.46580217, 0.02846752, 0.67290088], "xyz": [5.603149463773489, 0.1665987592448, 29.820968311032175], "label": "S", "properties": {}}, {"species": [{"element": "S", "occu": 1}], "abc": [0.96436461, 0.03354826, 0.82694689], "xyz": [11.702749984668468, 0.19633246910240001, 36.64782991753051], "label": "S", "properties": {}}, {"species": [{"element": "S", "occu": 1}], "abc": [0.9801878, 0.03427301, 0.75207069], "xyz": [11.89406462675383, 0.2005738800424, 33.329539135312324], "label": "S", "properties": {}}, {"species": [{"element": "S", "occu": 1}], "abc": [0.60608172, 0.67325273, 0.70665654], "xyz": [4.72515547179667, 3.9400365566152, 31.316918899145502], "label": "S", "properties": {}}, {"species": [{"element": "S", "occu": 1}], "abc": [0.10617538, 0.67252387, 0.79278474], "xyz": [-1.4084902986309702, 3.9357710929688, 35.133864899998166], "label": "S", "properties": {}}, {"species": [{"element": "S", "occu": 1}], "abc": [0.73259654, 0.0351448, 0.7866244], "xyz": [8.851250438879658, 0.20567580435199997, 34.86085692900966], "label": "S", "properties": {}}, {"species": [{"element": "S", "occu": 1}], "abc": [0.23490764, 0.03967996, 0.71219171], "xyz": [2.72359848181664, 0.2322166491104, 31.56222119265146], "label": "S", "properties": {}}, {"species": [{"element": "S", "occu": 1}], "abc": [0.73280091, 0.56625725, 0.78685416], "xyz": [6.712134793183539, 3.31387332874, 34.87103920976272], "label": "S", "properties": {}}, {"species": [{"element": "S", "occu": 1}], "abc": [0.23240452, 0.56684197, 0.71334017], "xyz": [0.5671766319359897, 3.3172952505128004, 31.61311752862666], "label": "S", "properties": {}}, {"species": [{"element": "S", "occu": 1}], "abc": [0.46876353, 0.03259168, 0.907938], "xyz": [5.622871543689409, 0.1907343333632, 40.237115348076124], "label": "S", "properties": {}}, {"species": [{"element": "S", "occu": 1}], "abc": [0.46065523, 0.03195509, 0.83348496], "xyz": [5.52590530380754, 0.1870088559016, 36.93757776016272], "label": "S", "properties": {}}, {"species": [{"element": "S", "occu": 1}], "abc": [0.94889416, 0.97556487, 0.98556532], "xyz": [7.71431452415985, 5.7092397548088005, 43.67732759715262], "label": "S", "properties": {}}, {"species": [{"element": "S", "occu": 1}], "abc": [0.96163827, 0.99701716, 0.91037435], "xyz": [7.784251588695709, 5.8347837044384, 40.34508714348317], "label": "S", "properties": {}}, {"species": [{"element": "S", "occu": 1}], "abc": [0.5890884, 0.67851026, 0.86731717], "xyz": [4.495354366181979, 3.9708048839824004, 38.436920816902635], "label": "S", "properties": {}}, {"species": [{"element": "S", "occu": 1}], "abc": [0.10744245, 0.65779312, 0.94922535], "xyz": [-1.3335370718623902, 3.8495632085888003, 42.06684806591191], "label": "S", "properties": {}}, {"species": [{"element": "S", "occu": 1}], "abc": [0.69811257, 0.93786193, 0.94949889], "xyz": [4.787883850314921, 5.488593101223199, 42.07897054622699], "label": "S", "properties": {}}, {"species": [{"element": "S", "occu": 1}], "abc": [0.2193602, 0.02729305, 0.87354592], "xyz": [2.58269455957595, 0.159725478932, 38.71296051589566], "label": "S", "properties": {}}, {"species": [{"element": "S", "occu": 1}], "abc": [0.74780213, 0.51410726, 0.94394064], "xyz": [7.1065681384823485, 3.0086790712624, 41.832645415674634], "label": "S", "properties": {}}, {"species": [{"element": "S", "occu": 1}], "abc": [0.24069372, 0.56695641, 0.87112668], "xyz": [0.6684689889245097, 3.3179649808583997, 38.605746984867466], "label": "S", "properties": {}}, {"species": [{"element": "Cl", "occu": 1}], "abc": [0.46189254, 0.89218233, 0.05432049], "xyz": [2.0723677360960497, 5.2212651189192005, 2.4073227708213727], "label": "Cl", "properties": {}}, {"species": [{"element": "Cl", "occu": 1}], "abc": [0.91796771, 0.96289853, 0.13585999], "xyz": [7.385752797341379, 5.6351132932072, 6.020911217306104], "label": "Cl", "properties": {}}, {"species": [{"element": "Cl", "occu": 1}], "abc": [0.42877775, 0.9539593, 0.20486228], "xyz": [1.4167625961306505, 5.582798773832, 9.078887755364208], "label": "Cl", "properties": {}}, {"species": [{"element": "Cl", "occu": 1}], "abc": [0.92458017, 0.95436302, 0.29539419], "xyz": [7.50134189787199, 5.5851614401648, 13.090993103253211], "label": "Cl", "properties": {}}, {"species": [{"element": "Cl", "occu": 1}], "abc": [0.4167509, 0.96492833, 0.36468135], "xyz": [1.22489654626489, 5.6469921699592005, 16.16159423357335], "label": "Cl", "properties": {}}, {"species": [{"element": "Cl", "occu": 1}], "abc": [0.96034353, 0.89586614, 0.44625466], "xyz": [8.176233048496389, 5.2428236591536, 19.77668103883359], "label": "Cl", "properties": {}}, {"species": [{"element": "Cl", "occu": 1}], "abc": [0.81516194, 0.42548223, 0.55418142], "xyz": [8.290807385578349, 2.4900241256952, 24.559674471495434], "label": "Cl", "properties": {}}, {"species": [{"element": "Cl", "occu": 1}], "abc": [0.35969816, 0.36255203, 0.63576722], "xyz": [2.9535316474429294, 2.1217414920472, 28.175314796457123], "label": "Cl", "properties": {}}, {"species": [{"element": "Cl", "occu": 1}], "abc": [0.85020733, 0.36927281, 0.70388747], "xyz": [8.9476613081308, 2.1610731095944002, 31.194201941603357], "label": "Cl", "properties": {}}, {"species": [{"element": "Cl", "occu": 1}], "abc": [0.34695518, 0.37301878, 0.79523301], "xyz": [2.754900128190559, 2.1829954250672, 35.24236495439972], "label": "Cl", "properties": {}}, {"species": [{"element": "Cl", "occu": 1}], "abc": [0.85840461, 0.3640122, 0.86454162], "xyz": [9.06949931700069, 2.130286757328, 38.31391668500778], "label": "Cl", "properties": {}}, {"species": [{"element": "Cl", "occu": 1}], "abc": [0.31374085, 0.42970728, 0.9457139], "xyz": [2.1185915138952898, 2.5147501323072, 41.911231031831385], "label": "Cl", "properties": {}}]}, "formula": "(Li3PS4)12.0(Li2S)12.0(LiCl)12.0", "bandgap": 2.1964}