{"miller": "11-1_0.22", "final_energy": -423.57969341, "sigma": 0.024588489920921424, "incar_parameters": {"SYSTEM": "unknown system", "LCOMPAT": false, "PREC": "normal", "ENMAX": 520.0, "ENAUG": 628.945, "EDIFF": 1e-05, "IALGO": 38, "IWAVPR": 11, "NBANDS": 289, "NBANDSLOW": -1, "NBANDSHIGH": -1, "NELECT": 472.0, "TURBO": 0, "IRESTART": 0, "NREBOOT": 0, "NMIN": 0, "EREF": 0.0, "ISMEAR": 0, "SIGMA": 0.05, "KSPACING": 0.5, "KGAMMA": true, "KBLOWUP": true, "LREAL": true, "ROPT": [-0.0005, -0.0005, -0.0005, -0.0005], "LMAXPAW": -100, "LMAXMIX": 2, "NLSPLINE": false, "ISTART": 0, "ICHARG": 2, "INIWAV": 1, "ISPIN": 1, "LNONCOLLINEAR": false, "MAGMOM": [0.6, 0.6, 0.6, 0.6, 0.6, 0.6, 0.6, 0.6, 0.6, 0.6, 0.6, 0.6, 0.6, 0.6, 0.6, 0.6, 0.6, 0.6, 0.6, 0.6, 0.6, 0.6, 0.6, 0.6, 0.6, 0.6, 0.6, 0.6, 0.6, 0.6, 0.6, 0.6, 0.6, 0.6, 0.6, 0.6, 0.6, 0.6, 0.6, 0.6, 0.6, 0.6, 0.6, 0.6, 0.6, 0.6, 0.6, 0.6, 0.6, 0.6, 0.6, 0.6, 0.6, 0.6, 0.6, 0.6, 0.6, 0.6, 0.6, 0.6, 0.6, 0.6, 0.6, 0.6, 0.6, 0.6, 0.6, 0.6, 0.6, 0.6, 0.6, 0.6, 0.6, 0.6, 0.6, 0.6, 0.6, 0.6, 0.6, 0.6, 0.6, 0.6, 0.6, 0.6, 0.6, 0.6, 0.6, 0.6, 0.6, 0.6, 0.6, 0.6, 0.6, 0.6, 0.6, 0.6, 0.6, 0.6, 0.6, 0.6, 0.6, 0.6, 0.6, 0.6], "NUPDOWN": -1.0, "LSORBIT": false, "SAXIS": [0.0, 0.0, 1.0], "LSPIRAL": false, "QSPIRAL": [0.0, 0.0, 0.0], "LZEROZ": false, "LASPH": false, "LMETAGGA": false, "NELM": 100, "NELMDL": -5, "NELMIN": 6, "ENINI": 520.0, "LDIAG": true, "LSUBROT": false, "WEIMIN": 0.001, "EBREAK": 1e-08, "DEPER": 0.3, "NRMM": 4, "TIME": 0.4, "AMIX": 0.4, "BMIX": 1.0, "AMIN": 0.1, "AMIX_MAG": 1.6, "BMIX_MAG": 1.0, "IMIX": 4, "MIXFIRST": false, "MAXMIX": -45, "WC": 100.0, "INIMIX": 1, "MIXPRE": 1, "MREMOVE": 5, "LDIPOL": false, "LMONO": false, "IDIPOL": 0, "EPSILON": 1.0, "DIPOL": [-100.0, -100.0, -100.0], "EFIELD": 0.0, "NGX": 54, "NGY": 40, "NGZ": 240, "NGXF": 108, "NGYF": 80, "NGZF": 480, "ADDGRID": false, "NSW": 150, "IBRION": 2, "MDALGO": 0, "ISIF": 3, "PSTRESS": 0.0, "EDIFFG": -0.01, "NFREE": 1, "POTIM": 0.5, "SMASS": -3.0, "SCALEE": 1.0, "TEBEG": 0.0001, "TEEND": 0.0001, "NBLOCK": 1, "KBLOCK": 150, "NPACO": 256, "APACO": 10.0, "ISYM": 0, "SYMPREC": 1e-05, "LORBIT": 11, "RWIGS": [-1.0, -1.0, -1.0, -1.0], "NEDOS": 301, "EMIN": 10.0, "EMAX": -10.0, "EFERMI": 0.0, "NWRITE": 2, "LWAVE": false, "LDOWNSAMPLE": false, "LCHARG": false, "LPARD": false, "LVTOT": false, "LVHAR": false, "LELF": false, "LOPTICS": false, "STM": [0.0, 0.0, 0.0, 0.0, 0.0, 0.0, 0.0], "NPAR": 1, "NSIM": 4, "NBLK": -1, "LPLANE": true, "LSCALAPACK": true, "LSCAAWARE": false, "LSCALU": false, "LASYNC": false, "LORBITALREAL": false, "IDIOT": 3, "PHON_NSTRUCT": -1, "LMUSIC": false, "POMASS": [7.01, 30.974, 32.066, 35.453], "DARWINR": [0.0, 0.0, 0.0, 0.0], "DARWINV": [1.0, 1.0, 1.0, 1.0], "LCORR": true, "GGA_COMPAT": true, "LBERRY": false, "ICORELEVEL": 0, "LDAU": false, "I_CONSTRAINED_M": 0, "GGA": "--", "VOSKOWN": 0, "LHFCALC": false, "PRECFOCK": "", "LSYMGRAD": false, "LHFONE": false, "LRHFCALC": false, "LTHOMAS": false, "LMODELHF": false, "LFOCKACE": false, "ENCUT4O": -1.0, "EXXOEP": 0, "FOURORBIT": 0, "AEXX": 0.0, "HFALPHA": 0.0, "MCALPHA": 0.0, "ALDAX": 1.0, "AGGAX": 1.0, "ALDAC": 1.0, "AGGAC": 1.0, "NKREDX": 1, "NKREDY": 1, "NKREDZ": 1, "SHIFTRED": false, "ODDONLY": false, "EVENONLY": false, "LMAXFOCK": 0, "NMAXFOCKAE": 0, "LFOCKAEDFT": false, "HFSCREEN": 0.0, "HFSCREENC": 0.0, "NBANDSGWLOW": 0, "LUSE_VDW": false, "Zab_VDW": -0.8491, "PARAM1": 0.1234, "PARAM2": 1.0, "PARAM3": 0.0, "MODEL_GW": 0, "MODEL_EPS0": 11.92023214, "MODEL_ALPHA": 1.0, "LEPSILON": false, "LRPA": false, "LNABLA": false, "LVEL": false, "CSHIFT": 0.1, "OMEGAMAX": -1.0, "DEG_THRESHOLD": 0.002, "RTIME": -0.1, "WPLASMAI": 0.0, "DFIELD": [0.0, 0.0, 0.0], "WPLASMA": [0.0, 0.0, 0.0, 0.0, 0.0, 0.0, 0.0, 0.0, 0.0], "NUCIND": false, "MAGPOS": [0.0, 0.0, 0.0], "LNICSALL": true, "ORBITALMAG": false, "LMAGBLOCH": false, "LCHIMAG": false, "LGAUGE": true, "MAGATOM": 0, "MAGDIPOL": [0.0, 0.0, 0.0], "AVECCONST": [0.0, 0.0, 0.0], "LFINITE_TEMPERATURE": false, "LADDER": false, "LRPAFORCE": false, "LFXC": false, "LHARTREE": true, "IBSE": 0, "KPOINT": [-1, 0, 0, 0], "LTCTC": false, "LTCTE": false, "LTETE": false, "LTRIPLET": false, "LFXCEPS": false, "LFXHEG": false, "NATURALO": 2, "LHOLEGF": false, "L2ORDER": false, "LDMP1": false, "LMP2LT": false, "LSMP2LT": false, "LGWLF": false, "ENCUTGW": -2.0, "ENCUTGWSOFT": -2.0, "ENCUTLF": -1.0, "LESF_SPLINES": false, "LMAXMP2": -1, "SCISSOR": 0.0, "NOMEGA": 0, "NOMEGAR": 0, "NBANDSGW": -1, "NBANDSO": -1, "NBANDSV": -1, "NELMGW": 1, "NELMHF": 1, "DIM": 3, "IESPILON": 4, "ANTIRES": 0, "OMEGAMIN": -30.0, "OMEGATL": -200.0, "OMEGAGRID": 0, "LSELFENERGY": false, "LSPECTRAL": false, "LSPECTRALGW": false, "LSINGLES": false, "LFERMIGW": false, "ODDONLYGW": false, "EVENONLYGW": false, "NKREDLFX": 1, "NKREDLFY": 1, "NKREDLFZ": 1, "MAXMEM": 2800, "TELESCOPE": 0, "NTAUPAR": -1, "NOMEGAPAR": -1, "DAMP_NEWTON": 0.80000001, "LAMBDA": 1.0, "OFIELD_KAPPA": 0.0, "OFIELD_K": [0.0, 0.0, 0.0], "OFIELD_Q6_NEAR": 0.0, "OFIELD_Q6_FAR": 0.0, "OFIELD_A": 0.0, "KPOINTS_OPT_MODE": 1, "LKPOINTS_OPT": false, "@module": "pymatgen.io.vasp.inputs", "@class": "Incar"}, "relaxed_structures": {"@module": "pymatgen.core.structure", "@class": "Structure", "charge": 0, "lattice": {"matrix": [[9.76418801, 0.00694886, 0.04482611], [4.88525199, 5.01665292, 0.04485758], [0.18815623, 0.18524633, 42.21191989]], "a": 9.764293377475955, "b": 7.002464261103155, "c": 42.21274570280218, "alpha": 89.27465070317317, "beta": 89.48140097009059, "gamma": 45.7188918192705, "volume": 2066.173573620022}, "sites": [{"species": [{"element": "Li", "occu": 1}], "abc": [0.50756697, 0.7324523, 0.02746807], "xyz": [8.539361667397682, 3.6830743405305535, 1.2150882608459328], "label": "Li", "properties": {}}, {"species": [{"element": "Li", "occu": 1}], "abc": [0.99433475, 0.8918615, 0.02654891], "xyz": [14.070834954371943, 4.485987179324465, 1.2052593695523124], "label": "Li", "properties": {}}, {"species": [{"element": "Li", "occu": 1}], "abc": [0.71219767, 0.91712177, 0.06910265], "xyz": [11.44740499623577, 4.618631579672999, 2.9900204402513886], "label": "Li", "properties": {}}, {"species": [{"element": "Li", "occu": 1}], "abc": [0.2549125, 0.68323927, 0.07375833], "xyz": [5.840687668816669, 3.4430090901183474, 3.1555559131587247], "label": "Li", "properties": {}}, {"species": [{"element": "Li", "occu": 1}], "abc": [0.18979745, 0.33964637, 0.0259529], "xyz": [3.5173592903789173, 1.7100145092141645, 1.1192653312985852], "label": "Li", "properties": {}}, {"species": [{"element": "Li", "occu": 1}], "abc": [0.15488356, 0.21436011, 0.08651576], "xyz": [2.5757938326894196, 1.0924732629649234, 3.668554833623351], "label": "Li", "properties": {}}, {"species": [{"element": "Li", "occu": 1}], "abc": [0.01072785, 0.76625279, 0.12367725], "xyz": [3.8713573566303987, 3.8670095994063907, 5.255507302827314], "label": "Li", "properties": {}}, {"species": [{"element": "Li", "occu": 1}], "abc": [0.65910471, 0.51062198, 0.1331809], "xyz": [8.955198166701276, 2.5908645462894095, 5.674271848227686], "label": "Li", "properties": {}}, {"species": [{"element": "Li", "occu": 1}], "abc": [0.27393359, 0.78201101, 0.16960163], "xyz": [6.526971521121321, 3.956399422474375, 7.206568917453411], "label": "Li", "properties": {}}, {"species": [{"element": "Li", "occu": 1}], "abc": [0.67954807, 0.77127289, 0.20744751], "xyz": [10.442130079422679, 3.9123593700321777, 8.821816605401086], "label": "Li", "properties": {}}, {"species": [{"element": "Li", "occu": 1}], "abc": [0.90343155, 0.26132995, 0.18396622], "xyz": [10.132552557052367, 1.3513585432104596, 7.817787292282407], "label": "Li", "properties": {}}, {"species": [{"element": "Li", "occu": 1}], "abc": [0.56349895, 0.25981339, 0.19317951], "xyz": [6.807711500078583, 1.343095072170994, 8.191392066354034], "label": "Li", "properties": {}}, {"species": [{"element": "Li", "occu": 1}], "abc": [0.55021016, 0.52653879, 0.24249964], "xyz": [7.9902579369506315, 2.690207860055506, 10.284658414084644], "label": "Li", "properties": {}}, {"species": [{"element": "Li", "occu": 1}], "abc": [0.96122949, 0.73364938, 0.25253246], "xyz": [13.017203110349909, 3.733924465007943, 10.735877885753913], "label": "Li", "properties": {}}, {"species": [{"element": "Li", "occu": 1}], "abc": [0.73637095, 0.76482593, 0.29710271], "xyz": [10.982333523274793, 3.897020360326387, 12.608592679168455], "label": "Li", "properties": {}}, {"species": [{"element": "Li", "occu": 1}], "abc": [0.8634092, 0.09505681, 0.31894355], "xyz": [8.954877444530059, 0.5419498552205687, 13.506186876265541], "label": "Li", "properties": {}}, {"species": [{"element": "Li", "occu": 1}], "abc": [0.30489424, 0.55113687, 0.29910975], "xyz": [5.725766536372177, 2.8223900390484444, 12.664386694295509], "label": "Li", "properties": {}}, {"species": [{"element": "Li", "occu": 1}], "abc": [0.17940456, 0.20961875, 0.31960009], "xyz": [2.8359150173121987, 1.1120359151852213, 13.508378394305476], "label": "Li", "properties": {}}, {"species": [{"element": "Li", "occu": 1}], "abc": [0.05727021, 0.68410816, 0.36327986], "xyz": [3.9695912167199485, 3.4996274219592016, 15.36799498521945], "label": "Li", "properties": {}}, {"species": [{"element": "Li", "occu": 1}], "abc": [0.37417382, 0.81226466, 0.37988428], "xyz": [7.693098667532635, 4.147822128587346, 16.08885377861189], "label": "Li", "properties": {}}, {"species": [{"element": "Li", "occu": 1}], "abc": [0.30254432, 0.59007797, 0.43739245], "xyz": [5.919077313457726, 3.043344055483856, 18.503206414604538], "label": "Li", "properties": {}}, {"species": [{"element": "Li", "occu": 1}], "abc": [0.57040886, 0.90946339, 0.43355175], "xyz": [10.094112650229318, 4.646739732940077, 18.367417276246638], "label": "Li", "properties": {}}, {"species": [{"element": "Li", "occu": 1}], "abc": [0.75327094, 0.27539147, 0.39251809], "xyz": [8.774290531497156, 1.4594903320538308, 16.615061771368897], "label": "Li", "properties": {}}, {"species": [{"element": "Li", "occu": 1}], "abc": [0.74609478, 0.2625004, 0.46788023], "xyz": [8.655424886843717, 1.408731001821175, 19.79534244624651], "label": "Li", "properties": {}}, {"species": [{"element": "Li", "occu": 1}], "abc": [0.35939125, 0.81097758, 0.47806], "xyz": [7.560943538003096, 4.1594492647628085, 20.232319025991995], "label": "Li", "properties": {}}, {"species": [{"element": "Li", "occu": 1}], "abc": [0.93344634, 0.73594587, 0.48865641], "xyz": [12.8015703348271, 3.788993192215089, 20.701980751710124], "label": "Li", "properties": {}}, {"species": [{"element": "Li", "occu": 1}], "abc": [0.68931568, 0.76319936, 0.52653922], "xyz": [10.558100724550064, 3.9310357141483188, 22.291365990426637], "label": "Li", "properties": {}}, {"species": [{"element": "Li", "occu": 1}], "abc": [0.19823918, 0.61250302, 0.52625416], "xyz": [5.026894220571659, 3.171579251887386, 22.250560138208122], "label": "Li", "properties": {}}, {"species": [{"element": "Li", "occu": 1}], "abc": [0.48486909, 0.57376843, 0.56825511], "xyz": [7.644277058630122, 2.9870335308192995, 24.034611838817273], "label": "Li", "properties": {}}, {"species": [{"element": "Li", "occu": 1}], "abc": [0.94208715, 0.81112466, 0.57330389], "xyz": [13.269135112394881, 4.18187976738338, 24.27887306884678], "label": "Li", "properties": {}}, {"species": [{"element": "Li", "occu": 1}], "abc": [0.00607082, 0.16109281, 0.52491671], "xyz": [0.9450219476996635, 0.9054277950389448, 22.16524047629947], "label": "Li", "properties": {}}, {"species": [{"element": "Li", "occu": 1}], "abc": [0.0423779, 0.28212655, 0.58622986], "xyz": [1.9023478732593413, 1.5242223890626339, 24.76044303813963], "label": "Li", "properties": {}}, {"species": [{"element": "Li", "occu": 1}], "abc": [0.17369061, 0.73564197, 0.62268544], "xyz": [5.406906314347897, 3.807017581111692, 26.325532902859862], "label": "Li", "properties": {}}, {"species": [{"element": "Li", "occu": 1}], "abc": [0.53357364, 0.98385083, 0.6333374], "xyz": [10.13543894076271, 5.056669296689717, 26.80243879013542], "label": "Li", "properties": {}}, {"species": [{"element": "Li", "occu": 1}], "abc": [0.93419578, 0.45915848, 0.67188749], "xyz": [11.491187929316535, 2.434395016817984, 28.424134004018267], "label": "Li", "properties": {}}, {"species": [{"element": "Li", "occu": 1}], "abc": [0.45468949, 0.79974165, 0.69937362], "xyz": [8.47820465738005, 4.1447422537314145, 29.578159656758093], "label": "Li", "properties": {}}, {"species": [{"element": "Li", "occu": 1}], "abc": [0.36086993, 0.34571908, 0.68157278], "xyz": [5.340768831981928, 1.863119122926391, 28.80218010503109], "label": "Li", "properties": {}}, {"species": [{"element": "Li", "occu": 1}], "abc": [0.79776883, 0.02075296, 0.6996966], "xyz": [8.022600558175936, 0.239270208558155, 29.57222862739696], "label": "Li", "properties": {}}, {"species": [{"element": "Li", "occu": 1}], "abc": [0.67086406, 0.76643765, 0.74197358], "xyz": [10.434290817437748, 3.987061297954371, 31.384582083805], "label": "Li", "properties": {}}, {"species": [{"element": "Li", "occu": 1}], "abc": [0.24168862, 0.79339387, 0.7546151], "xyz": [6.377807640145821, 4.1216508128671565, 31.90017583864524], "label": "Li", "properties": {}}, {"species": [{"element": "Li", "occu": 1}], "abc": [0.44982913, 0.77673477, 0.79903291], "xyz": [8.337104298530953, 4.04775246576104, 33.78371971854022], "label": "Li", "properties": {}}, {"species": [{"element": "Li", "occu": 1}], "abc": [0.32923875, 0.4252565, 0.81944498], "xyz": [5.446417896192049, 2.2874512716362285, 34.62418031991568], "label": "Li", "properties": {}}, {"species": [{"element": "Li", "occu": 1}], "abc": [0.88470944, 0.98572629, 0.79987863], "xyz": [13.604492773677995, 5.099368973741433, 33.84828802987021], "label": "Li", "properties": {}}, {"species": [{"element": "Li", "occu": 1}], "abc": [0.00575158, 0.31447823, 0.82078558], "xyz": [1.7469008277648972, 1.729715614142052, 34.661299703145424], "label": "Li", "properties": {}}, {"species": [{"element": "Li", "occu": 1}], "abc": [0.14003271, 0.8269997, 0.86455316], "xyz": [5.570078701364397, 4.309898827521238, 36.53782305743114], "label": "Li", "properties": {}}, {"species": [{"element": "Li", "occu": 1}], "abc": [0.8221418, 0.69594816, 0.88109111], "xyz": [11.593212021200772, 3.6602622118241017, 37.26061932013663], "label": "Li", "properties": {}}, {"species": [{"element": "Li", "occu": 1}], "abc": [0.90138305, 0.90312448, 0.93730312], "xyz": [13.389623653791384, 4.710557607413855, 39.646281688450046], "label": "Li", "properties": {}}, {"species": [{"element": "Li", "occu": 1}], "abc": [0.62841494, 0.59116239, 0.93517445], "xyz": [9.199897763517848, 3.143260932199916, 39.530196478003305], "label": "Li", "properties": {}}, {"species": [{"element": "Li", "occu": 1}], "abc": [0.44257173, 0.23414676, 0.89414323], "xyz": [5.633458124109833, 1.343345148106113, 37.77384442101615], "label": "Li", "properties": {}}, {"species": [{"element": "Li", "occu": 1}], "abc": [0.45415544, 0.23626178, 0.9691995], "xyz": [5.771018356868103, 1.367939861505031, 40.94272780483588], "label": "Li", "properties": {}}, {"species": [{"element": "Li", "occu": 1}], "abc": [0.83934776, 0.68835394, 0.97925663], "xyz": [11.742585025325004, 3.640469010005727, 41.40480500426124], "label": "Li", "properties": {}}, {"species": [{"element": "Li", "occu": 1}], "abc": [0.26664662, 0.76133745, 0.98931342], "xyz": [6.509058505980659, 4.004485311954456, 41.80692331743154], "label": "Li", "properties": {}}, {"species": [{"element": "P", "occu": 1}], "abc": [0.52132665, 0.1417764, 0.12989442], "xyz": [5.807385309823738, 0.7389280815446856, 5.512821643161957], "label": "P", "properties": {}}, {"species": [{"element": "P", "occu": 1}], "abc": [0.05651367, 0.13056691, 0.24821307], "xyz": [1.236365191408674, 0.7013821361633266, 10.485940430089563], "label": "P", "properties": {}}, {"species": [{"element": "P", "occu": 1}], "abc": [0.53514014, 0.12720801, 0.37002171], "xyz": [5.916274012625914, 0.710422212524954, 15.649021274347083], "label": "P", "properties": {}}, {"species": [{"element": "P", "occu": 1}], "abc": [0.67059036, 0.36341301, 0.62952754], "xyz": [8.441584011635547, 1.944394442730407, 26.619927872440186], "label": "P", "properties": {}}, {"species": [{"element": "P", "occu": 1}], "abc": [0.14478193, 0.39895312, 0.74934754], "xyz": [3.5036589164535425, 2.141229285432739, 31.65578441046541], "label": "P", "properties": {}}, {"species": [{"element": "P", "occu": 1}], "abc": [0.65930002, 0.38699736, 0.87127033], "xyz": [8.492043913945164, 2.1074124506836576, 36.82490699274937], "label": "P", "properties": {}}, {"species": [{"element": "S", "occu": 1}], "abc": [0.18164157, 0.00152567, 0.03600757], "xyz": [1.7878107709378201, 0.015586228895284701, 1.5281593831350386], "label": "S", "properties": {}}, {"species": [{"element": "S", "occu": 1}], "abc": [0.04327879, 0.63250115, 0.07047603], "xyz": [3.5257702482302635, 3.1863949052140077, 3.00524102326266], "label": "S", "properties": {}}, {"species": [{"element": "S", "occu": 1}], "abc": [0.29193353, 0.40407243, 0.15892247], "xyz": [4.854391768922099, 2.0585595454023067, 6.739634528243916], "label": "S", "properties": {}}, {"species": [{"element": "S", "occu": 1}], "abc": [0.56267369, 0.33080881, 0.09892244], "xyz": [7.12874896817529, 1.6817879423103639, 4.215767867984657], "label": "S", "properties": {}}, {"species": [{"element": "S", "occu": 1}], "abc": [0.50026241, 0.91972931, 0.10274598], "xyz": [9.397097963758986, 4.636472297788691, 4.400786725700737], "label": "S", "properties": {}}, {"species": [{"element": "S", "occu": 1}], "abc": [0.76093398, 0.88498826, 0.15828064], "xyz": [11.783074590713603, 4.474287470061033, 6.755137837780158], "label": "S", "properties": {}}, {"species": [{"element": "S", "occu": 1}], "abc": [0.57274367, 0.58181393, 0.1883102], "xyz": [8.470116272062164, 2.957622239861458, 8.000707712533192], "label": "S", "properties": {}}, {"species": [{"element": "S", "occu": 1}], "abc": [0.81330491, 0.36626526, 0.27657993], "xyz": [9.78260037790146, 1.8943126450146186, 11.727856916902677], "label": "S", "properties": {}}, {"species": [{"element": "S", "occu": 1}], "abc": [0.04723861, 0.37305869, 0.2189273], "xyz": [2.3249249124924383, 1.9123896998691685, 9.260193682493474], "label": "S", "properties": {}}, {"species": [{"element": "S", "occu": 1}], "abc": [0.07310123, 0.88090493, 0.2194039], "xyz": [5.058498926436861, 4.460346026802681, 9.304251957500556], "label": "S", "properties": {}}, {"species": [{"element": "S", "occu": 1}], "abc": [0.29321342, 0.8933712, 0.27759134], "xyz": [7.279564932558831, 4.535193515104388, 11.770881493329846], "label": "S", "properties": {}}, {"species": [{"element": "S", "occu": 1}], "abc": [0.02448172, 0.65057342, 0.30843291], "xyz": [3.475292785137812, 3.321007231790946, 13.049825857866812], "label": "S", "properties": {}}, {"species": [{"element": "S", "occu": 1}], "abc": [0.30275689, 0.32727941, 0.40006021], "xyz": [4.630291405158023, 1.718060708756552, 16.915561911667403], "label": "S", "properties": {}}, {"species": [{"element": "S", "occu": 1}], "abc": [0.53287307, 0.38336645, 0.34438759], "xyz": [7.1407132243008125, 1.990715818328779, 14.578344878242213], "label": "S", "properties": {}}, {"species": [{"element": "S", "occu": 1}], "abc": [0.51670819, 0.91355933, 0.34074504], "xyz": [9.572316750449968, 4.649722381436611, 14.447644410287907], "label": "S", "properties": {}}, {"species": [{"element": "S", "occu": 1}], "abc": [0.77813304, 0.88870508, 0.39722905], "xyz": [12.014126680440443, 4.537317295839055, 16.842546673048986], "label": "S", "properties": {}}, {"species": [{"element": "S", "occu": 1}], "abc": [0.53329888, 0.61221674, 0.43003137], "xyz": [8.278976658599676, 3.15464644872653, 18.203818016276596], "label": "S", "properties": {}}, {"species": [{"element": "S", "occu": 1}], "abc": [0.08136856, 0.88675786, 0.47838294], "xyz": [5.2165442486428235, 4.537740510403403, 20.236887587689353], "label": "S", "properties": {}}, {"species": [{"element": "S", "occu": 1}], "abc": [0.01395749, 0.49799303, 0.53576161], "xyz": [2.669911882037655, 2.5976030487405004, 22.63849058362215], "label": "S", "properties": {}}, {"species": [{"element": "S", "occu": 1}], "abc": [0.15203216, 0.86504604, 0.56954751], "xyz": [5.817602394445508, 4.446198778683912, 24.087312747939656], "label": "S", "properties": {}}, {"species": [{"element": "S", "occu": 1}], "abc": [0.91017711, 0.12597072, 0.6573366], "xyz": [9.626221111497202, 0.7600452663597751, 27.793890340867375], "label": "S", "properties": {}}, {"species": [{"element": "S", "occu": 1}], "abc": [0.64331899, 0.15793123, 0.60012138], "xyz": [7.165938000807156, 0.9079267829350784, 25.3681975174313], "label": "S", "properties": {}}, {"species": [{"element": "S", "occu": 1}], "abc": [0.68082882, 0.59588193, 0.60119369], "xyz": [9.671892323654177, 3.1054327329555385, 25.434788609575513], "label": "S", "properties": {}}, {"species": [{"element": "S", "occu": 1}], "abc": [0.4276691, 0.60046426, 0.65740688], "xyz": [7.232955919673231, 3.1370748078236157, 27.79651266939513], "label": "S", "properties": {}}, {"species": [{"element": "S", "occu": 1}], "abc": [0.63920166, 0.89097094, 0.68762652], "xyz": [10.723283955862486, 4.601513979873924, 29.09465530062155], "label": "S", "properties": {}}, {"species": [{"element": "S", "occu": 1}], "abc": [0.39410072, 0.1571215, 0.77522378], "xyz": [4.761514829354302, 0.9345699426726866, 32.74839819066475], "label": "S", "properties": {}}, {"species": [{"element": "S", "occu": 1}], "abc": [0.12599689, 0.18086174, 0.72132697], "xyz": [2.2495346611576745, 1.0418192847588463, 30.46235724255822], "label": "S", "properties": {}}, {"species": [{"element": "S", "occu": 1}], "abc": [0.1269364, 0.65687581, 0.72085585], "xyz": [4.584068252007372, 3.4297359142578996, 30.463865316664396], "label": "S", "properties": {}}, {"species": [{"element": "S", "occu": 1}], "abc": [0.91326929, 0.63240673, 0.77973253], "xyz": [12.153510820794269, 3.3233538386847763, 32.98331363712369], "label": "S", "properties": {}}, {"species": [{"element": "S", "occu": 1}], "abc": [0.16856011, 0.87401907, 0.80998352], "xyz": [6.068059451527061, 4.535868094697641, 34.23772173284673], "label": "S", "properties": {}}, {"species": [{"element": "S", "occu": 1}], "abc": [0.89361616, 0.18247346, 0.90082594], "xyz": [9.786361041358035, 1.088490328874881, 38.07383506822971], "label": "S", "properties": {}}, {"species": [{"element": "S", "occu": 1}], "abc": [0.66140702, 0.13574074, 0.84553245], "xyz": [7.280322412757565, 0.8421919877273665, 35.72728534873253], "label": "S", "properties": {}}, {"species": [{"element": "S", "occu": 1}], "abc": [0.67413922, 0.61022638, 0.8421663], "xyz": [9.721990562281299, 3.221986666472998, 35.6070487071477], "label": "S", "properties": {}}, {"species": [{"element": "S", "occu": 1}], "abc": [0.41810516, 0.61879976, 0.89895468], "xyz": [7.274594072672311, 3.2737370324277415, 37.99310282453249], "label": "S", "properties": {}}, {"species": [{"element": "S", "occu": 1}], "abc": [0.66552643, 0.88983556, 0.93126132], "xyz": [11.020618747522892, 4.6411335521831605, 39.38007706727428], "label": "S", "properties": {}}, {"species": [{"element": "S", "occu": 1}], "abc": [0.11802738, 0.61310577, 0.97916326], "xyz": [4.331853379176806, 3.2579454074649714, 41.36515423979636], "label": "S", "properties": {}}, {"species": [{"element": "Cl", "occu": 1}], "abc": [0.59241683, 0.96378717, 0.01772705], "xyz": [10.496147953484199, 4.842386213206577, 0.8180817165547044], "label": "Cl", "properties": {}}, {"species": [{"element": "Cl", "occu": 1}], "abc": [0.02758449, 0.10957564, 0.13097486], "xyz": [0.8292884957678665, 0.5741572472633141, 5.534852101344351], "label": "Cl", "properties": {}}, {"species": [{"element": "Cl", "occu": 1}], "abc": [0.60106113, 0.09385742, 0.2475781], "xyz": [6.373974388580881, 0.5208897241638512, 10.481900372774756], "label": "Cl", "properties": {}}, {"species": [{"element": "Cl", "occu": 1}], "abc": [0.04424965, 0.06255487, 0.36403218], "xyz": [0.8061531277158692, 0.3815591812155188, 15.371286819305833], "label": "Cl", "properties": {}}, {"species": [{"element": "Cl", "occu": 1}], "abc": [0.59595577, 0.05012786, 0.48266498], "xyz": [6.154727834733585, 0.34502720461879677, 20.403178462859785], "label": "Cl", "properties": {}}, {"species": [{"element": "Cl", "occu": 1}], "abc": [0.60751573, 0.52843058, 0.51661771], "xyz": [8.610619189939085, 2.750875888720366, 21.85836207223176], "label": "Cl", "properties": {}}, {"species": [{"element": "Cl", "occu": 1}], "abc": [0.17118707, 0.38263167, 0.63247173], "xyz": [3.6597583599639316, 2.0378829063844677, 26.722683580627663], "label": "Cl", "properties": {}}, {"species": [{"element": "Cl", "occu": 1}], "abc": [0.58728107, 0.51001603, 0.74913568], "xyz": [8.366834152990657, 2.701428975474442, 31.67165892161242], "label": "Cl", "properties": {}}, {"species": [{"element": "Cl", "occu": 1}], "abc": [0.15267476, 0.44956084, 0.86543303], "xyz": [3.8497996654999764, 2.4166699089047063, 36.55859975945112], "label": "Cl", "properties": {}}, {"species": [{"element": "Cl", "occu": 1}], "abc": [0.60502396, 0.44373935, 0.98440375], "xyz": [8.260567937021388, 2.4126477146168255, 41.60059817839095], "label": "Cl", "properties": {}}]}, "formula": "(Li3PS4)6.0(Li2S)12.0(LiCl)10.0", "bandgap": 2.2055}