{"miller": "20-1_0.13", "final_energy": -446.77048756, "sigma": 0.018688055360150353, "incar_parameters": {"SYSTEM": "unknown system", "LCOMPAT": false, "PREC": "normal", "ENMAX": 520.0, "ENAUG": 628.945, "EDIFF": 1e-05, "IALGO": 38, "IWAVPR": 11, "NBANDS": 304, "NBANDSLOW": -1, "NBANDSHIGH": -1, "NELECT": 496.0, "TURBO": 0, "IRESTART": 0, "NREBOOT": 0, "NMIN": 0, "EREF": 0.0, "ISMEAR": 0, "SIGMA": 0.05, "KSPACING": 0.5, "KGAMMA": true, "KBLOWUP": true, "LREAL": true, "ROPT": [-0.0005, -0.0005, -0.0005, -0.0005], "LMAXPAW": -100, "LMAXMIX": 2, "NLSPLINE": false, "ISTART": 0, "ICHARG": 2, "INIWAV": 1, "ISPIN": 1, "LNONCOLLINEAR": false, "MAGMOM": [0.6, 0.6, 0.6, 0.6, 0.6, 0.6, 0.6, 0.6, 0.6, 0.6, 0.6, 0.6, 0.6, 0.6, 0.6, 0.6, 0.6, 0.6, 0.6, 0.6, 0.6, 0.6, 0.6, 0.6, 0.6, 0.6, 0.6, 0.6, 0.6, 0.6, 0.6, 0.6, 0.6, 0.6, 0.6, 0.6, 0.6, 0.6, 0.6, 0.6, 0.6, 0.6, 0.6, 0.6, 0.6, 0.6, 0.6, 0.6, 0.6, 0.6, 0.6, 0.6, 0.6, 0.6, 0.6, 0.6, 0.6, 0.6, 0.6, 0.6, 0.6, 0.6, 0.6, 0.6, 0.6, 0.6, 0.6, 0.6, 0.6, 0.6, 0.6, 0.6, 0.6, 0.6, 0.6, 0.6, 0.6, 0.6, 0.6, 0.6, 0.6, 0.6, 0.6, 0.6, 0.6, 0.6, 0.6, 0.6, 0.6, 0.6, 0.6, 0.6, 0.6, 0.6, 0.6, 0.6, 0.6, 0.6, 0.6, 0.6, 0.6, 0.6, 0.6, 0.6, 0.6, 0.6, 0.6, 0.6, 0.6, 0.6], "NUPDOWN": -1.0, "LSORBIT": false, "SAXIS": [0.0, 0.0, 1.0], "LSPIRAL": false, "QSPIRAL": [0.0, 0.0, 0.0], "LZEROZ": false, "LASPH": false, "LMETAGGA": false, "NELM": 100, "NELMDL": -5, "NELMIN": 6, "ENINI": 520.0, "LDIAG": true, "LSUBROT": false, "WEIMIN": 0.001, "EBREAK": 1e-08, "DEPER": 0.3, "NRMM": 4, "TIME": 0.4, "AMIX": 0.4, "BMIX": 1.0, "AMIN": 0.1, "AMIX_MAG": 1.6, "BMIX_MAG": 1.0, "IMIX": 4, "MIXFIRST": false, "MAXMIX": -45, "WC": 100.0, "INIMIX": 1, "MIXPRE": 1, "MREMOVE": 5, "LDIPOL": false, "LMONO": false, "IDIPOL": 0, "EPSILON": 1.0, "DIPOL": [-100.0, -100.0, -100.0], "EFIELD": 0.0, "NGX": 40, "NGY": 70, "NGZ": 162, "NGXF": 80, "NGYF": 140, "NGZF": 324, "ADDGRID": false, "NSW": 150, "IBRION": 2, "MDALGO": 0, "ISIF": 3, "PSTRESS": 0.0, "EDIFFG": -0.01, "NFREE": 1, "POTIM": 0.5, "SMASS": -3.0, "SCALEE": 1.0, "TEBEG": 0.0001, "TEEND": 0.0001, "NBLOCK": 1, "KBLOCK": 150, "NPACO": 256, "APACO": 10.0, "ISYM": 0, "SYMPREC": 1e-05, "LORBIT": 11, "RWIGS": [-1.0, -1.0, -1.0, -1.0], "NEDOS": 301, "EMIN": 10.0, "EMAX": -10.0, "EFERMI": 0.0, "NWRITE": 2, "LWAVE": false, "LDOWNSAMPLE": false, "LCHARG": false, "LPARD": false, "LVTOT": false, "LVHAR": false, "LELF": false, "LOPTICS": false, "STM": [0.0, 0.0, 0.0, 0.0, 0.0, 0.0, 0.0], "NPAR": 1, "NSIM": 4, "NBLK": -1, "LPLANE": true, "LSCALAPACK": true, "LSCAAWARE": false, "LSCALU": false, "LASYNC": false, "LORBITALREAL": false, "IDIOT": 3, "PHON_NSTRUCT": -1, "LMUSIC": false, "POMASS": [7.01, 30.974, 32.066, 35.453], "DARWINR": [0.0, 0.0, 0.0, 0.0], "DARWINV": [1.0, 1.0, 1.0, 1.0], "LCORR": true, "GGA_COMPAT": true, "LBERRY": false, "ICORELEVEL": 0, "LDAU": false, "I_CONSTRAINED_M": 0, "GGA": "--", "VOSKOWN": 0, "LHFCALC": false, "PRECFOCK": "", "LSYMGRAD": false, "LHFONE": false, "LRHFCALC": false, "LTHOMAS": false, "LMODELHF": false, "LFOCKACE": false, "ENCUT4O": -1.0, "EXXOEP": 0, "FOURORBIT": 0, "AEXX": 0.0, "HFALPHA": 0.0, "MCALPHA": 0.0, "ALDAX": 1.0, "AGGAX": 1.0, "ALDAC": 1.0, "AGGAC": 1.0, "NKREDX": 1, "NKREDY": 1, "NKREDZ": 1, "SHIFTRED": false, "ODDONLY": false, "EVENONLY": false, "LMAXFOCK": 0, "NMAXFOCKAE": 0, "LFOCKAEDFT": false, "HFSCREEN": 0.0, "HFSCREENC": 0.0, "NBANDSGWLOW": 0, "LUSE_VDW": false, "Zab_VDW": -0.8491, "PARAM1": 0.1234, "PARAM2": 1.0, "PARAM3": 0.0, "MODEL_GW": 0, "MODEL_EPS0": 11.3831352, "MODEL_ALPHA": 1.0, "LEPSILON": false, "LRPA": false, "LNABLA": false, "LVEL": false, "CSHIFT": 0.1, "OMEGAMAX": -1.0, "DEG_THRESHOLD": 0.002, "RTIME": -0.1, "WPLASMAI": 0.0, "DFIELD": [0.0, 0.0, 0.0], "WPLASMA": [0.0, 0.0, 0.0, 0.0, 0.0, 0.0, 0.0, 0.0, 0.0], "NUCIND": false, "MAGPOS": [0.0, 0.0, 0.0], "LNICSALL": true, "ORBITALMAG": false, "LMAGBLOCH": false, "LCHIMAG": false, "LGAUGE": true, "MAGATOM": 0, "MAGDIPOL": [0.0, 0.0, 0.0], "AVECCONST": [0.0, 0.0, 0.0], "LFINITE_TEMPERATURE": false, "LADDER": false, "LRPAFORCE": false, "LFXC": false, "LHARTREE": true, "IBSE": 0, "KPOINT": [-1, 0, 0, 0], "LTCTC": false, "LTCTE": false, "LTETE": false, "LTRIPLET": false, "LFXCEPS": false, "LFXHEG": false, "NATURALO": 2, "LHOLEGF": false, "L2ORDER": false, "LDMP1": false, "LMP2LT": false, "LSMP2LT": false, "LGWLF": false, "ENCUTGW": -2.0, "ENCUTGWSOFT": -2.0, "ENCUTLF": -1.0, "LESF_SPLINES": false, "LMAXMP2": -1, "SCISSOR": 0.0, "NOMEGA": 0, "NOMEGAR": 0, "NBANDSGW": -1, "NBANDSO": -1, "NBANDSV": -1, "NELMGW": 1, "NELMHF": 1, "DIM": 3, "IESPILON": 4, "ANTIRES": 0, "OMEGAMIN": -30.0, "OMEGATL": -200.0, "OMEGAGRID": 0, "LSELFENERGY": false, "LSPECTRAL": false, "LSPECTRALGW": false, "LSINGLES": false, "LFERMIGW": false, "ODDONLYGW": false, "EVENONLYGW": false, "NKREDLFX": 1, "NKREDLFY": 1, "NKREDLFZ": 1, "MAXMEM": 2800, "TELESCOPE": 0, "NTAUPAR": -1, "NOMEGAPAR": -1, "DAMP_NEWTON": 0.80000001, "LAMBDA": 1.0, "OFIELD_KAPPA": 0.0, "OFIELD_K": [0.0, 0.0, 0.0], "OFIELD_Q6_NEAR": 0.0, "OFIELD_Q6_FAR": 0.0, "OFIELD_A": 0.0, "KPOINTS_OPT_MODE": 1, "LKPOINTS_OPT": false, "@module": "pymatgen.io.vasp.inputs", "@class": "Incar"}, "relaxed_structures": {"@module": "pymatgen.core.structure", "@class": "Structure", "charge": 0, "lattice": {"matrix": [[7.11019877, -0.00767857, -0.05361376], [-7.12682183, 10.18899251, 0.09216031], [-0.20358729, 0.09362499, 28.83015381]], "a": 7.110405047858251, "b": 12.434454201457333, "c": 28.83102464588554, "alpha": 89.19097620295716, "beta": 90.83681479620705, "gamma": 125.03490120304326, "volume": 2086.908119813829}, "sites": [{"species": [{"element": "Li", "occu": 1}], "abc": [0.32081458, 0.64552686, 0.08866269], "xyz": [-2.337550082366497, 6.583105987798892, 2.598450869542655], "label": "Li", "properties": {}}, {"species": [{"element": "Li", "occu": 1}], "abc": [0.39478073, 0.02851904, 0.07568355], "xyz": [2.5883111351809798, 0.2946348050943488, 2.163431031643283], "label": "Li", "properties": {}}, {"species": [{"element": "Li", "occu": 1}], "abc": [0.7127663, 0.4323422, 0.99904091], "xyz": [1.783292209101191, 4.493193606837072, 28.804133807616157], "label": "Li", "properties": {}}, {"species": [{"element": "Li", "occu": 1}], "abc": [0.12017787, 0.44368341, 0.01662018], "xyz": [-2.3109477259471327, 4.521320211300312, 0.5136091588778516], "label": "Li", "properties": {}}, {"species": [{"element": "Li", "occu": 1}], "abc": [0.73644408, 0.70451812, 0.04920282], "xyz": [0.2052716057590636, 7.177281623950388, 1.4439699406670206], "label": "Li", "properties": {}}, {"species": [{"element": "Li", "occu": 1}], "abc": [0.16143635, 0.91109106, 0.99605932], "xyz": [-5.548124135960592, 9.375116429828347, 28.79185462428766], "label": "Li", "properties": {}}, {"species": [{"element": "Li", "occu": 1}], "abc": [0.86707735, 0.6188399, 0.16895306], "xyz": [1.7203339032472347, 6.31451542041473, 4.881487906550191], "label": "Li", "properties": {}}, {"species": [{"element": "Li", "occu": 1}], "abc": [0.96602181, 0.12586147, 0.04499997], "xyz": [5.962453391360902, 1.2791970307792282, 1.2571634271615357], "label": "Li", "properties": {}}, {"species": [{"element": "Li", "occu": 1}], "abc": [0.7844979, 0.83444945, 0.12864143], "xyz": [-0.39522631275933523, 8.508219426580952, 3.743595451098574], "label": "Li", "properties": {}}, {"species": [{"element": "Li", "occu": 1}], "abc": [0.3862047, 0.85579671, 0.23432573], "xyz": [-3.4008242323099322, 8.738679512577356, 6.8138114415344395], "label": "Li", "properties": {}}, {"species": [{"element": "Li", "occu": 1}], "abc": [0.28599604, 0.40612601, 0.35063827], "xyz": [-0.9322845171255159, 4.168647337915689, 10.131050631703461], "label": "Li", "properties": {}}, {"species": [{"element": "Li", "occu": 1}], "abc": [0.96073732, 0.1315578, 0.28534953], "xyz": [5.8353507724948495, 1.3597801969616001, 8.187286507044604], "label": "Li", "properties": {}}, {"species": [{"element": "Li", "occu": 1}], "abc": [0.40404296, 0.38362433, 0.10886077], "xyz": [0.11664083850442192, 3.915835041375044, 3.1521654178642464], "label": "Li", "properties": {}}, {"species": [{"element": "Li", "occu": 1}], "abc": [0.46325669, 0.07769451, 0.30961508], "xyz": [2.6770985224127855, 0.8170593403048358, 8.908573795426296], "label": "Li", "properties": {}}, {"species": [{"element": "Li", "occu": 1}], "abc": [0.36011472, 0.54261613, 0.1992377], "xyz": [-1.347203504800056, 5.544600145959758, 5.77475410233189], "label": "Li", "properties": {}}, {"species": [{"element": "Li", "occu": 1}], "abc": [0.76458544, 0.05126781, 0.17138496], "xyz": [5.0360861080104575, 0.5325423244382327, 4.904787314503664], "label": "Li", "properties": {}}, {"species": [{"element": "Li", "occu": 1}], "abc": [0.69695845, 0.53530592, 0.30236568], "xyz": [1.0789253881666665, 5.477185348959586, 8.729216457729004], "label": "Li", "properties": {}}, {"species": [{"element": "Li", "occu": 1}], "abc": [0.86903162, 0.30949995, 0.25345105], "xyz": [3.9216371431540447, 3.170549104290731, 7.288964313435893], "label": "Li", "properties": {}}, {"species": [{"element": "Li", "occu": 1}], "abc": [0.94757692, 0.83130517, 0.37984402], "xyz": [0.7355650034620226, 8.498449007517731, 10.9767717010101], "label": "Li", "properties": {}}, {"species": [{"element": "Li", "occu": 1}], "abc": [0.39424031, 0.11402495, 0.19934509], "xyz": [1.949907337773854, 1.177435841743767, 5.736521475345362], "label": "Li", "properties": {}}, {"species": [{"element": "Li", "occu": 1}], "abc": [0.45932864, 0.70368127, 0.34608072], "xyz": [-1.8195507411503997, 7.198678006291236, 10.01778553679385], "label": "Li", "properties": {}}, {"species": [{"element": "Li", "occu": 1}], "abc": [0.05087215, 0.42384873, 0.48364892], "xyz": [-2.757448056158747, 4.363482535276698, 13.980007336749505], "label": "Li", "properties": {}}, {"species": [{"element": "Li", "occu": 1}], "abc": [0.96539153, 0.62166541, 0.40842084], "xyz": [2.3504777622353945, 6.364969776836359, 11.780370243515824], "label": "Li", "properties": {}}, {"species": [{"element": "Li", "occu": 1}], "abc": [0.81025418, 0.75869747, 0.49634684], "xyz": [0.25291667440592625, 7.770611713678559, 14.33623676119336], "label": "Li", "properties": {}}, {"species": [{"element": "Li", "occu": 1}], "abc": [0.11311376, 0.16493796, 0.43108037], "xyz": [-0.4589846210020888, 1.7200429824610026, 12.437249651114739], "label": "Li", "properties": {}}, {"species": [{"element": "Li", "occu": 1}], "abc": [0.35957544, 0.0035922, 0.44570626], "xyz": [2.4403117522230477, 0.0755691178435386, 12.830832896803377], "label": "Li", "properties": {}}, {"species": [{"element": "Li", "occu": 1}], "abc": [0.48116659, 0.51871736, 0.4507854], "xyz": [-0.36739028642244026, 5.323717403071144, 13.018220419926077], "label": "Li", "properties": {}}, {"species": [{"element": "Li", "occu": 1}], "abc": [0.30625007, 0.4602074, 0.55546708], "xyz": [-1.2154033111225409, 4.7387037888569035, 16.040194991686903], "label": "Li", "properties": {}}, {"species": [{"element": "Li", "occu": 1}], "abc": [0.53007708, 0.80142676, 0.56393285], "xyz": [-2.0574818867664555, 8.214459228431314, 16.303711117306932], "label": "Li", "properties": {}}, {"species": [{"element": "Li", "occu": 1}], "abc": [0.61617514, 0.35247901, 0.62412272], "xyz": [1.7420091662555612, 3.6451081322962384, 17.99300312267173], "label": "Li", "properties": {}}, {"species": [{"element": "Li", "occu": 1}], "abc": [0.06343675, 0.06058666, 0.51665801], "xyz": [-0.0859274333846832, 0.6652020224401392, 14.897512498146302], "label": "Li", "properties": {}}, {"species": [{"element": "Li", "occu": 1}], "abc": [0.56346973, 0.83868308, 0.45695546], "xyz": [-2.0637934255695076, 8.58379142899199, 13.22117975789237], "label": "Li", "properties": {}}, {"species": [{"element": "Li", "occu": 1}], "abc": [0.08887661, 0.60970591, 0.54887975], "xyz": [-3.8250799670026225, 6.2629953661264395, 15.875713292130625], "label": "Li", "properties": {}}, {"species": [{"element": "Li", "occu": 1}], "abc": [0.60397717, 0.35911332, 0.50989181], "xyz": [1.6312535910312105, 3.7021038623553184, 14.700973816617765], "label": "Li", "properties": {}}, {"species": [{"element": "Li", "occu": 1}], "abc": [0.93493456, 0.71308723, 0.66201659], "xyz": [1.4307467575911201, 7.320442781600852, 19.10163309753], "label": "Li", "properties": {}}, {"species": [{"element": "Li", "occu": 1}], "abc": [0.86774769, 0.19489394, 0.54867446], "xyz": [4.669181025578018, 2.0304794743551415, 15.789807342953997], "label": "Li", "properties": {}}, {"species": [{"element": "Li", "occu": 1}], "abc": [0.13309573, 0.51863071, 0.63225847], "xyz": [-2.8785713584849937, 5.342497627697642, 18.268770342259145], "label": "Li", "properties": {}}, {"species": [{"element": "Li", "occu": 1}], "abc": [0.49026033, 0.47093305, 0.72884446], "xyz": [-0.018791014305601067, 4.862806876178383, 21.0298145215735], "label": "Li", "properties": {}}, {"species": [{"element": "Li", "occu": 1}], "abc": [0.50198631, 0.98104673, 0.85080444], "xyz": [-3.5957357779548444, 10.071679804096572, 24.592323064644575], "label": "Li", "properties": {}}, {"species": [{"element": "Li", "occu": 1}], "abc": [0.13965612, 0.30841374, 0.81377586], "xyz": [-1.370701424261791, 3.2175426843024804, 23.482219226851473], "label": "Li", "properties": {}}, {"species": [{"element": "Li", "occu": 1}], "abc": [0.33525056, 0.9405462, 0.59154254], "xyz": [-4.439837613568051, 9.636027106608537, 17.12296939965569], "label": "Li", "properties": {}}, {"species": [{"element": "Li", "occu": 1}], "abc": [0.51075011, 0.24687388, 0.79808152], "xyz": [1.709629392802684, 2.5861946580916806, 23.00418171401278], "label": "Li", "properties": {}}, {"species": [{"element": "Li", "occu": 1}], "abc": [0.46376012, 0.7929649, 0.68999033], "xyz": [-2.49436618635562, 8.140552749994617, 19.940743308544526], "label": "Li", "properties": {}}, {"species": [{"element": "Li", "occu": 1}], "abc": [0.10430801, 0.27961629, 0.68041512], "xyz": [-1.3896486655482878, 2.911911206933491, 19.63664974360284], "label": "Li", "properties": {}}, {"species": [{"element": "Li", "occu": 1}], "abc": [0.12408998, 0.79148377, 0.80263485], "xyz": [-4.921865640932432, 8.138616050523737, 23.206376637963324], "label": "Li", "properties": {}}, {"species": [{"element": "Li", "occu": 1}], "abc": [0.87514742, 0.03540914, 0.75895795], "xyz": [5.815603285054691, 0.4251210119999225, 21.83721780740102], "label": "Li", "properties": {}}, {"species": [{"element": "Li", "occu": 1}], "abc": [0.90129632, 0.5100061, 0.874079], "xyz": [2.5957220041004536, 5.271363303704659, 25.198512447779517], "label": "Li", "properties": {}}, {"species": [{"element": "Li", "occu": 1}], "abc": [0.29518795, 0.07198988, 0.7200089], "xyz": [1.4392012899588602, 0.7986485528409784, 20.748775805320378], "label": "Li", "properties": {}}, {"species": [{"element": "Li", "occu": 1}], "abc": [0.47371849, 0.69138263, 0.83557789], "xyz": [-1.7292412336515735, 7.119085929623814, 24.128159297014253], "label": "Li", "properties": {}}, {"species": [{"element": "Li", "occu": 1}], "abc": [0.93517906, 0.20410076, 0.95029961], "xyz": [5.001250327966208, 2.1613720685338174, 27.365955445515983], "label": "Li", "properties": {}}, {"species": [{"element": "Li", "occu": 1}], "abc": [0.9119461, 0.7371736, 0.90368109], "xyz": [1.0464351494092636, 7.588660980019098, 26.07231010804993], "label": "Li", "properties": {}}, {"species": [{"element": "Li", "occu": 1}], "abc": [0.13636134, 0.62343048, 0.95129155], "xyz": [-3.667192591072226, 6.440146092987056, 27.476026406797512], "label": "Li", "properties": {}}, {"species": [{"element": "Li", "occu": 1}], "abc": [0.53975957, 0.18172006, 0.94948331], "xyz": [2.349408606169689, 1.9362951140192524, 27.361558704347043], "label": "Li", "properties": {}}, {"species": [{"element": "Li", "occu": 1}], "abc": [0.38956889, 0.52083946, 0.94565497], "xyz": [-1.1345411235624778, 5.392374961970458, 27.29049270941284], "label": "Li", "properties": {}}, {"species": [{"element": "Li", "occu": 1}], "abc": [0.53506868, 0.86176472, 0.94732411], "xyz": [-2.530062096724877, 8.86509892547357, 27.362233259170587], "label": "Li", "properties": {}}, {"species": [{"element": "Li", "occu": 1}], "abc": [0.61418461, 0.88137833, 0.04015828], "xyz": [-1.9226273795542757, 8.979400961888917, 1.2060687429888954], "label": "Li", "properties": {}}, {"species": [{"element": "P", "occu": 1}], "abc": [0.83430328, 0.34444292, 0.12692408], "xyz": [3.4514387043350787, 3.5150033415865787, 3.6462545790561167], "label": "P", "properties": {}}, {"species": [{"element": "P", "occu": 1}], "abc": [0.79513865, 0.30465356, 0.37799234], "xyz": [3.4054277730728866, 3.133396842253682, 10.883023894986193], "label": "P", "properties": {}}, {"species": [{"element": "P", "occu": 1}], "abc": [0.87819307, 0.84180341, 0.25309444], "xyz": [0.19321755602641594, 8.594081336835007, 7.327249264391829], "label": "P", "properties": {}}, {"species": [{"element": "P", "occu": 1}], "abc": [0.00658572, 0.00564922, 0.63304461], "xyz": [-0.12231504277391508, 0.11677808663612571, 18.250941023546414], "label": "P", "properties": {}}, {"species": [{"element": "P", "occu": 1}], "abc": [0.03228643, 0.01780197, 0.87231336], "xyz": [-0.07490044653250841, 0.262806554987306, 25.148837977482437], "label": "P", "properties": {}}, {"species": [{"element": "P", "occu": 1}], "abc": [0.01863636, 0.50464189, 0.74803851], "xyz": [-3.616275747101719, 5.211684434865805, 21.611574086792295], "label": "P", "properties": {}}, {"species": [{"element": "S", "occu": 1}], "abc": [0.48251167, 0.21458607, 0.12463419], "xyz": [1.8760632574712928, 2.1943797351388317, 3.5871299215450665], "label": "S", "properties": {}}, {"species": [{"element": "S", "occu": 1}], "abc": [0.98338801, 0.24365087, 0.11994917], "xyz": [5.231207753462207, 2.4862361156547963, 3.4278848314377894], "label": "S", "properties": {}}, {"species": [{"element": "S", "occu": 1}], "abc": [0.91053127, 0.39064108, 0.94275637], "xyz": [3.4980957248632247, 4.061513015838113, 27.16699575050653], "label": "S", "properties": {}}, {"species": [{"element": "S", "occu": 1}], "abc": [0.92203686, 0.4792715, 0.07502748], "xyz": [3.1249081178410885, 4.883238246249101, 2.15778973546767], "label": "S", "properties": {}}, {"species": [{"element": "S", "occu": 1}], "abc": [0.99505078, 0.94494058, 0.06123102], "xyz": [0.3281198210209434, 9.626084678582462, 1.7990373276208331], "label": "S", "properties": {}}, {"species": [{"element": "S", "occu": 1}], "abc": [0.56963759, 0.60209887, 0.12773797], "xyz": [-0.26682070591296814, 6.142366340763887, 3.707654527949777], "label": "S", "properties": {}}, {"species": [{"element": "S", "occu": 1}], "abc": [0.56857722, 0.24255336, 0.43149631], "xyz": [2.226215304908271, 2.5074073460399453, 12.431975215982035], "label": "S", "properties": {}}, {"species": [{"element": "S", "occu": 1}], "abc": [0.52496754, 0.7286732, 0.25872651], "xyz": [-1.5131739405200877, 7.4446380439455995, 7.4981343423278455], "label": "S", "properties": {}}, {"species": [{"element": "S", "occu": 1}], "abc": [0.88300235, 0.17487601, 0.36645165], "xyz": [4.957407158926283, 1.809339192780779, 10.533632984649113], "label": "S", "properties": {}}, {"species": [{"element": "S", "occu": 1}], "abc": [0.97538246, 0.71383112, 0.24833398], "xyz": [1.7972583164191098, 7.288980658983189, 7.172999815837661], "label": "S", "properties": {}}, {"species": [{"element": "S", "occu": 1}], "abc": [0.02924862, 0.96367985, 0.30958867], "xyz": [-6.723039408502933, 9.847687422244713, 9.012733879157075], "label": "S", "properties": {}}, {"species": [{"element": "S", "occu": 1}], "abc": [0.94016209, 0.45209021, 0.18764449], "xyz": [3.424570924958813, 4.616692876614721, 5.401078657546213], "label": "S", "properties": {}}, {"species": [{"element": "S", "occu": 1}], "abc": [0.98937566, 0.95969137, 0.19485366], "xyz": [0.15543846643534953, 9.788934362548998, 5.653062293219888], "label": "S", "properties": {}}, {"species": [{"element": "S", "occu": 1}], "abc": [0.64641633, 0.31742321, 0.3182421], "xyz": [2.2691398853943308, 3.2590545695811883, 9.169565703275495], "label": "S", "properties": {}}, {"species": [{"element": "S", "occu": 1}], "abc": [0.63335478, 0.07973428, 0.24063965], "xyz": [3.88603519621624, 0.8300786075220318, 6.911069927077221], "label": "S", "properties": {}}, {"species": [{"element": "S", "occu": 1}], "abc": [0.64802254, 0.60552594, 0.37315054], "xyz": [0.2161248718163688, 6.1996595964117365, 10.779049995893846], "label": "S", "properties": {}}, {"species": [{"element": "S", "occu": 1}], "abc": [0.09200196, 0.48174068, 0.39519875], "xyz": [-2.859585214317342, 4.944746215809072, 11.433105547425178], "label": "S", "properties": {}}, {"species": [{"element": "S", "occu": 1}], "abc": [0.40971177, 0.64344388, 0.5042915], "xyz": [-1.7752451071104125, 6.600113160064154, 14.576135309018063], "label": "S", "properties": {}}, {"species": [{"element": "S", "occu": 1}], "abc": [0.21418456, 0.28921562, 0.50122545], "xyz": [-0.6403365301725241, 2.9920983825621223, 14.46557777858696], "label": "S", "properties": {}}, {"species": [{"element": "S", "occu": 1}], "abc": [0.35902041, 0.11526088, 0.63756177], "xyz": [1.6014632488959823, 1.2313271940070274, 18.372377936810672], "label": "S", "properties": {}}, {"species": [{"element": "S", "occu": 1}], "abc": [0.86246765, 0.10623057, 0.62729283], "xyz": [5.247521231609317, 1.1344902487755921, 18.048498881477997], "label": "S", "properties": {}}, {"species": [{"element": "S", "occu": 1}], "abc": [0.97449636, 0.94293932, 0.44745928], "xyz": [0.11760526789957022, 9.642012300964895, 12.934975032188333], "label": "S", "properties": {}}, {"species": [{"element": "S", "occu": 1}], "abc": [0.9284633, 0.88722725, 0.57656571], "xyz": [0.16106662977344802, 9.086803493309509, 16.654466830737295], "label": "S", "properties": {}}, {"species": [{"element": "S", "occu": 1}], "abc": [0.88078625, 0.38252126, 0.56646224], "xyz": [3.4210799328468773, 3.9437780957354773, 16.319224522041527], "label": "S", "properties": {}}, {"species": [{"element": "S", "occu": 1}], "abc": [0.24389426, 0.73611668, 0.6211668], "xyz": [-3.6384974224390363, 7.556571315296391, 17.96309903876946], "label": "S", "properties": {}}, {"species": [{"element": "S", "occu": 1}], "abc": [0.92562009, 0.92100795, 0.93423659], "xyz": [-0.17271543383520047, 9.464503556942368, 26.969438989457934], "label": "S", "properties": {}}, {"species": [{"element": "S", "occu": 1}], "abc": [0.372706, 0.6213798, 0.74957447], "xyz": [-1.9310532155899003, 6.398551181212883, 21.64763164711041], "label": "S", "properties": {}}, {"species": [{"element": "S", "occu": 1}], "abc": [0.91432864, 0.13566597, 0.86930406], "xyz": [5.357211917158251, 1.4566673996510993, 25.025652179043032], "label": "S", "properties": {}}, {"species": [{"element": "S", "occu": 1}], "abc": [0.90052633, 0.62225642, 0.74418172], "xyz": [1.8167046263626268, 6.4029252543108495, 21.463940192226744], "label": "S", "properties": {}}, {"species": [{"element": "S", "occu": 1}], "abc": [0.91318563, 0.39683608, 0.80908565], "xyz": [3.50003175047066, 4.112098522925205, 23.31367695591354], "label": "S", "properties": {}}, {"species": [{"element": "S", "occu": 1}], "abc": [0.88484674, 0.88912154, 0.69268117], "xyz": [-0.18619568064303793, 9.117310621521742, 20.004606428389692], "label": "S", "properties": {}}, {"species": [{"element": "S", "occu": 1}], "abc": [0.88694897, 0.37693932, 0.69357418], "xyz": [3.4788012134652386, 3.898757284118679, 19.983036463417186], "label": "S", "properties": {}}, {"species": [{"element": "S", "occu": 1}], "abc": [0.38595212, 0.13142664, 0.87068443], "xyz": [1.6302817583584464, 1.4176593112563038, 25.093386012423665], "label": "S", "properties": {}}, {"species": [{"element": "S", "occu": 1}], "abc": [0.24644084, 0.24180719, 0.74929959], "xyz": [-0.12362127582340213, 2.5320325011541023, 21.611494835010607], "label": "S", "properties": {}}, {"species": [{"element": "S", "occu": 1}], "abc": [0.25000594, 0.75111316, 0.87790674], "xyz": [-3.7541883924769235, 7.733360683045158, 25.366005408240625], "label": "S", "properties": {}}, {"species": [{"element": "S", "occu": 1}], "abc": [0.89389147, 0.88765155, 0.817652], "xyz": [-0.1368519683089236, 9.113963846538573, 23.606914282335474], "label": "S", "properties": {}}, {"species": [{"element": "S", "occu": 1}], "abc": [0.41960493, 0.67346478, 0.0044765], "xyz": [-1.8171003971718964, 6.859124745609182, 0.16862830841750998], "label": "S", "properties": {}}, {"species": [{"element": "S", "occu": 1}], "abc": [0.58812614, 0.04163094, 0.99901605], "xyz": [3.6816104949514235, 0.513194235800529, 28.774091446774953], "label": "S", "properties": {}}, {"species": [{"element": "Cl", "occu": 1}], "abc": [0.45268644, 0.86692252, 0.12166606], "xyz": [-2.98448143501131, 8.840982062163574, 3.5632768492964555], "label": "Cl", "properties": {}}, {"species": [{"element": "Cl", "occu": 1}], "abc": [0.29627095, 0.31934297, 0.00066354], "xyz": [-0.16949019388671066, 3.251570316148478, 0.0326765077623361], "label": "Cl", "properties": {}}, {"species": [{"element": "Cl", "occu": 1}], "abc": [0.33135849, 0.83086555, 0.39123814], "xyz": [-3.645057124175139, 8.49976817335159, 11.33826320463781], "label": "Cl", "properties": {}}, {"species": [{"element": "Cl", "occu": 1}], "abc": [0.26370928, 0.37332577, 0.2662225], "xyz": [-0.8398003663559984, 3.826713643054128, 7.695502995329219], "label": "Cl", "properties": {}}, {"species": [{"element": "Cl", "occu": 1}], "abc": [0.85358872, 0.59090631, 0.48652727], "xyz": [1.758850709026729, 6.059736736752487, 14.035350034797169], "label": "Cl", "properties": {}}, {"species": [{"element": "Cl", "occu": 1}], "abc": [0.45672802, 0.47702234, 0.63766383], "xyz": [-0.2820464711618671, 4.916571300997253, 18.403421918255464], "label": "Cl", "properties": {}}, {"species": [{"element": "Cl", "occu": 1}], "abc": [0.53383234, 0.98385742, 0.51655669], "xyz": [-3.3212868678577263, 10.068779429232654, 14.95446067015049], "label": "Cl", "properties": {}}, {"species": [{"element": "Cl", "occu": 1}], "abc": [0.56246026, 0.54248913, 0.87384755], "xyz": [-0.04492337997346654, 5.604912759978062, 25.21299962999492], "label": "Cl", "properties": {}}, {"species": [{"element": "Cl", "occu": 1}], "abc": [0.47668971, 0.98016452, 0.76381072], "xyz": [-3.7516014629715633, 10.054740428563123, 22.085555677634634], "label": "Cl", "properties": {}}, {"species": [{"element": "Cl", "occu": 1}], "abc": [0.88667122, 0.65916653, 0.98522096], "xyz": [1.4060677369314507, 6.801675772510726, 28.417283027394294], "label": "Cl", "properties": {}}]}, "formula": "(Li3PS4)6.0(Li2S)14.0(LiCl)10.0", "bandgap": 2.0709999999999997}