{"miller": "100_0.12", "final_energy": -279.34795944, "sigma": -0.0003638757721885154, "incar_parameters": {"SYSTEM": "unknown system", "LCOMPAT": false, "PREC": "normal", "ENMAX": 520.0, "ENAUG": 368.056, "EDIFF": 1e-05, "IALGO": 38, "IWAVPR": 11, "NBANDS": 336, "NBANDSLOW": -1, "NBANDSHIGH": -1, "NELECT": 560.0, "TURBO": 0, "IRESTART": 0, "NREBOOT": 0, "NMIN": 0, "EREF": 0.0, "ISMEAR": 0, "SIGMA": 0.05, "KSPACING": 0.5, "KGAMMA": true, "KBLOWUP": true, "LREAL": true, "ROPT": [-0.0005, -0.0005], "LMAXPAW": -100, "LMAXMIX": 2, "NLSPLINE": false, "ISTART": 0, "ICHARG": 2, "INIWAV": 1, "ISPIN": 1, "LNONCOLLINEAR": false, "MAGMOM": [0.6, 0.6, 0.6, 0.6, 0.6, 0.6, 0.6, 0.6, 0.6, 0.6, 0.6, 0.6, 0.6, 0.6, 0.6, 0.6, 0.6, 0.6, 0.6, 0.6, 0.6, 0.6, 0.6, 0.6, 0.6, 0.6, 0.6, 0.6, 0.6, 0.6, 0.6, 0.6, 0.6, 0.6, 0.6, 0.6, 0.6, 0.6, 0.6, 0.6, 0.6, 0.6, 0.6, 0.6, 0.6, 0.6, 0.6, 0.6, 0.6, 0.6, 0.6, 0.6, 0.6, 0.6, 0.6, 0.6, 0.6, 0.6, 0.6, 0.6, 0.6, 0.6, 0.6, 0.6, 0.6, 0.6, 0.6, 0.6, 0.6, 0.6, 0.6, 0.6, 0.6, 0.6, 0.6, 0.6, 0.6, 0.6, 0.6, 0.6, 0.6, 0.6, 0.6, 0.6], "NUPDOWN": -1.0, "LSORBIT": false, "SAXIS": [0.0, 0.0, 1.0], "LSPIRAL": false, "QSPIRAL": [0.0, 0.0, 0.0], "LZEROZ": false, "LASPH": false, "LMETAGGA": false, "NELM": 100, "NELMDL": 0, "NELMIN": 6, "ENINI": 520.0, "LDIAG": true, "LSUBROT": false, "WEIMIN": 0.001, "EBREAK": 1e-08, "DEPER": 0.3, "NRMM": 4, "TIME": 0.4, "AMIX": 0.4, "BMIX": 1.0, "AMIN": 0.1, "AMIX_MAG": 1.6, "BMIX_MAG": 1.0, "IMIX": 4, "MIXFIRST": false, "MAXMIX": -45, "WC": 100.0, "INIMIX": 1, "MIXPRE": 1, "MREMOVE": 5, "LDIPOL": false, "LMONO": false, "IDIPOL": 0, "EPSILON": 1.0, "DIPOL": [-100.0, -100.0, -100.0], "EFIELD": 0.0, "NGX": 40, "NGY": 40, "NGZ": 250, "NGXF": 80, "NGYF": 80, "NGZF": 500, "ADDGRID": false, "NSW": 150, "IBRION": 2, "MDALGO": 0, "ISIF": 3, "PSTRESS": 0.0, "EDIFFG": -0.01, "NFREE": 1, "POTIM": 0.5, "SMASS": -3.0, "SCALEE": 1.0, "TEBEG": 0.0001, "TEEND": 0.0001, "NBLOCK": 1, "KBLOCK": 150, "NPACO": 256, "APACO": 10.0, "ISYM": 0, "SYMPREC": 1e-05, "LORBIT": 11, "RWIGS": [-1.0, -1.0], "NEDOS": 301, "EMIN": 10.0, "EMAX": -10.0, "EFERMI": 0.0, "NWRITE": 2, "LWAVE": false, "LDOWNSAMPLE": false, "LCHARG": false, "LPARD": false, "LVTOT": false, "LVHAR": false, "LELF": false, "LOPTICS": false, "STM": [0.0, 0.0, 0.0, 0.0, 0.0, 0.0, 0.0], "NPAR": 1, "NSIM": 4, "NBLK": -1, "LPLANE": true, "LSCALAPACK": true, "LSCAAWARE": false, "LSCALU": false, "LASYNC": false, "LORBITALREAL": false, "IDIOT": 3, "PHON_NSTRUCT": -1, "LMUSIC": false, "POMASS": [22.99, 32.066], "DARWINR": [0.0, 0.0], "DARWINV": [1.0, 1.0], "LCORR": true, "GGA_COMPAT": true, "LBERRY": false, "ICORELEVEL": 0, "LDAU": false, "I_CONSTRAINED_M": 0, "GGA": "--", "VOSKOWN": 0, "LHFCALC": false, "PRECFOCK": "", "LSYMGRAD": false, "LHFONE": false, "LRHFCALC": false, "LTHOMAS": false, "LMODELHF": false, "LFOCKACE": false, "ENCUT4O": -1.0, "EXXOEP": 0, "FOURORBIT": 0, "AEXX": 0.0, "HFALPHA": 0.0, "MCALPHA": 0.0, "ALDAX": 1.0, "AGGAX": 1.0, "ALDAC": 1.0, "AGGAC": 1.0, "NKREDX": 1, "NKREDY": 1, "NKREDZ": 1, "SHIFTRED": false, "ODDONLY": false, "EVENONLY": false, "LMAXFOCK": 0, "NMAXFOCKAE": 0, "LFOCKAEDFT": false, "HFSCREEN": 0.0, "HFSCREENC": 0.0, "NBANDSGWLOW": 0, "LUSE_VDW": false, "Zab_VDW": -0.8491, "PARAM1": 0.1234, "PARAM2": 1.0, "PARAM3": 0.0, "MODEL_GW": 0, "MODEL_EPS0": 13.74770285, "MODEL_ALPHA": 1.0, "LEPSILON": false, "LRPA": false, "LNABLA": false, "LVEL": false, "CSHIFT": 0.1, "OMEGAMAX": -1.0, "DEG_THRESHOLD": 0.002, "RTIME": -0.1, "WPLASMAI": 0.0, "DFIELD": [0.0, 0.0, 0.0], "WPLASMA": [0.0, 0.0, 0.0, 0.0, 0.0, 0.0, 0.0, 0.0, 0.0], "NUCIND": false, "MAGPOS": [0.0, 0.0, 0.0], "LNICSALL": true, "ORBITALMAG": false, "LMAGBLOCH": false, "LCHIMAG": false, "LGAUGE": true, "MAGATOM": 0, "MAGDIPOL": [0.0, 0.0, 0.0], "AVECCONST": [0.0, 0.0, 0.0], "LFINITE_TEMPERATURE": false, "LADDER": false, "LRPAFORCE": false, "LFXC": false, "LHARTREE": true, "IBSE": 0, "KPOINT": [-1, 0, 0, 0], "LTCTC": false, "LTCTE": false, "LTETE": false, "LTRIPLET": false, "LFXCEPS": false, "LFXHEG": false, "NATURALO": 2, "LHOLEGF": false, "L2ORDER": false, "LDMP1": false, "LMP2LT": false, "LSMP2LT": false, "LGWLF": false, "ENCUTGW": -2.0, "ENCUTGWSOFT": -2.0, "ENCUTLF": -1.0, "LESF_SPLINES": false, "LMAXMP2": -1, "SCISSOR": 0.0, "NOMEGA": 0, "NOMEGAR": 0, "NBANDSGW": -1, "NBANDSO": -1, "NBANDSV": -1, "NELMGW": 1, "NELMHF": 1, "DIM": 3, "IESPILON": 4, "ANTIRES": 0, "OMEGAMIN": -30.0, "OMEGATL": -200.0, "OMEGAGRID": 0, "LSELFENERGY": false, "LSPECTRAL": false, "LSPECTRALGW": false, "LSINGLES": false, "LFERMIGW": false, "ODDONLYGW": false, "EVENONLYGW": false, "NKREDLFX": 1, "NKREDLFY": 1, "NKREDLFZ": 1, "MAXMEM": 2800, "TELESCOPE": 0, "NTAUPAR": -1, "NOMEGAPAR": -1, "DAMP_NEWTON": 0.80000001, "LAMBDA": 1.0, "OFIELD_KAPPA": 0.0, "OFIELD_K": [0.0, 0.0, 0.0], "OFIELD_Q6_NEAR": 0.0, "OFIELD_Q6_FAR": 0.0, "OFIELD_A": 0.0, "KPOINTS_OPT_MODE": 1, "LKPOINTS_OPT": false, "@module": "pymatgen.io.vasp.inputs", "@class": "Incar"}, "relaxed_structures": {"@module": "pymatgen.core.structure", "@class": "Structure", "charge": 0, "lattice": {"matrix": [[6.552952, 0.0, 0.0], [0.0, 6.552952, 0.0], [0.0, 0.0, 46.02969856]], "a": 6.552952, "b": 6.552952, "c": 46.02969856, "alpha": 90.0, "beta": 90.0, "gamma": 90.0, "volume": 1976.5695672661398}, "sites": [{"species": [{"element": "Na", "occu": 1}], "abc": [0.75002597, 0.74996831, 0.07140804], "xyz": [4.91488418016344, 4.91450633695112, 3.2868905559604227], "label": "Na", "properties": {}}, {"species": [{"element": "Na", "occu": 1}], "abc": [0.25002536, 0.24996757, 0.07140856], "xyz": [1.6384041828627198, 1.63802548776664, 3.286914491403673], "label": "Na", "properties": {}}, {"species": [{"element": "Na", "occu": 1}], "abc": [0.75001731, 0.24997389, 0.07134288], "xyz": [4.914827431599121, 1.6380669024232801, 3.283891260802253], "label": "Na", "properties": {}}, {"species": [{"element": "Na", "occu": 1}], "abc": [0.25000704, 0.7499924, 0.99992217], "xyz": [1.63828413278208, 4.9146641975648, 46.02611606856108], "label": "Na", "properties": {}}, {"species": [{"element": "Na", "occu": 1}], "abc": [0.75000648, 0.24999278, 0.99992223], "xyz": [4.914756463128961, 1.6381906876865602, 46.02611883034299], "label": "Na", "properties": {}}, {"species": [{"element": "Na", "occu": 1}], "abc": [0.25001679, 0.74997452, 0.07134302], "xyz": [1.63834802406408, 4.91454703078304, 3.283897704960051], "label": "Na", "properties": {}}, {"species": [{"element": "Na", "occu": 1}], "abc": [0.25001914, 0.24997209, 0.14281524], "xyz": [1.6383634235012798, 1.63805510710968, 6.573742446974054], "label": "Na", "properties": {}}, {"species": [{"element": "Na", "occu": 1}], "abc": [0.75000697, 0.74999448, 0.2142671], "xyz": [4.914759674075441, 4.914677827704961, 9.862650024325376], "label": "Na", "properties": {}}, {"species": [{"element": "Na", "occu": 1}], "abc": [0.25000698, 0.24999367, 0.21426734], "xyz": [1.63828373960496, 1.6381965198138402, 9.862661071453031], "label": "Na", "properties": {}}, {"species": [{"element": "Na", "occu": 1}], "abc": [0.75001942, 0.74997306, 0.1428155], "xyz": [4.91484125832784, 4.9145374634731205, 6.573754414695681], "label": "Na", "properties": {}}, {"species": [{"element": "Na", "occu": 1}], "abc": [0.75000283, 0.24999607, 0.2142491], "xyz": [4.91473254485416, 1.63821224689864, 9.861821489751296], "label": "Na", "properties": {}}, {"species": [{"element": "Na", "occu": 1}], "abc": [0.25001724, 0.74997353, 0.14276113], "xyz": [1.6383509728924799, 4.914540543360561, 6.571251779984974], "label": "Na", "properties": {}}, {"species": [{"element": "Na", "occu": 1}], "abc": [0.75001745, 0.24997264, 0.14276125], "xyz": [4.9148283490124, 1.63805871123328, 6.5712573035488], "label": "Na", "properties": {}}, {"species": [{"element": "Na", "occu": 1}], "abc": [0.25000283, 0.74999679, 0.21424916], "xyz": [1.6382565448541602, 4.91469296502408, 9.861824251533209], "label": "Na", "properties": {}}, {"species": [{"element": "Na", "occu": 1}], "abc": [0.25000253, 0.24999843, 0.28573262], "xyz": [1.63825457896856, 1.63822771186536, 13.152186367359027], "label": "Na", "properties": {}}, {"species": [{"element": "Na", "occu": 1}], "abc": [0.75000271, 0.7499988, 0.35718596], "xyz": [4.91473175849992, 4.9147061364576, 16.44116206866422], "label": "Na", "properties": {}}, {"species": [{"element": "Na", "occu": 1}], "abc": [0.25000313, 0.24999871, 0.35718596], "xyz": [1.6382585107397603, 1.6382295466919201, 16.44116206866422], "label": "Na", "properties": {}}, {"species": [{"element": "Na", "occu": 1}], "abc": [0.75000298, 0.7499991, 0.28573258], "xyz": [4.91473352779696, 4.914708102343201, 13.152184526171085], "label": "Na", "properties": {}}, {"species": [{"element": "Na", "occu": 1}], "abc": [0.75000268, 0.24999868, 0.35724054], "xyz": [4.914731561911361, 1.63822935010336, 16.44367436961162], "label": "Na", "properties": {}}, {"species": [{"element": "Na", "occu": 1}], "abc": [0.25000278, 0.7499989, 0.28575154], "xyz": [1.63825621720656, 4.9147067917528, 13.153057249255784], "label": "Na", "properties": {}}, {"species": [{"element": "Na", "occu": 1}], "abc": [0.75000328, 0.24999819, 0.2857515], "xyz": [4.914735493682561, 1.6382261391568802, 13.15305540806784], "label": "Na", "properties": {}}, {"species": [{"element": "Na", "occu": 1}], "abc": [0.25000325, 0.7499988, 0.35724053], "xyz": [1.6382592970940002, 4.9147061364576, 16.443673909314636], "label": "Na", "properties": {}}, {"species": [{"element": "Na", "occu": 1}], "abc": [0.25000255, 0.24999896, 0.42859348], "xyz": [1.6382547100276, 1.63823118492992, 19.72802868918139], "label": "Na", "properties": {}}, {"species": [{"element": "Na", "occu": 1}], "abc": [0.75000204, 0.74999919, 0.4285935], "xyz": [4.91472736802208, 4.9147086921088805, 19.728029609775362], "label": "Na", "properties": {}}, {"species": [{"element": "Na", "occu": 1}], "abc": [0.74999849, 0.25000419, 0.50006955], "xyz": [4.91470410504248, 1.6382654568688801, 23.018050645534846], "label": "Na", "properties": {}}, {"species": [{"element": "Na", "occu": 1}], "abc": [0.25000291, 0.74999894, 0.42865914], "xyz": [1.6382570690903202, 4.91470705387088, 19.731050999188838], "label": "Na", "properties": {}}, {"species": [{"element": "Na", "occu": 1}], "abc": [0.75000247, 0.24999885, 0.42865917], "xyz": [4.9147301857914405, 1.6382304641052001, 19.731052380079795], "label": "Na", "properties": {}}, {"species": [{"element": "Na", "occu": 1}], "abc": [0.24999791, 0.75000345, 0.5000696], "xyz": [1.63822430433032, 4.9147366076844, 23.018052947019775], "label": "Na", "properties": {}}, {"species": [{"element": "Na", "occu": 1}], "abc": [0.24997356, 0.75002024, 0.57143704], "xyz": [1.6380647399491202, 4.91484663174848, 26.30307469721866], "label": "Na", "properties": {}}, {"species": [{"element": "Na", "occu": 1}], "abc": [0.74997845, 0.25002527, 0.5714372], "xyz": [4.9145727838844, 1.6384035930970402, 26.303082061970432], "label": "Na", "properties": {}}, {"species": [{"element": "Na", "occu": 1}], "abc": [0.24997913, 0.25001757, 0.57137438], "xyz": [1.63810123989176, 1.6383531353666403, 26.30019047630689], "label": "Na", "properties": {}}, {"species": [{"element": "Na", "occu": 1}], "abc": [0.75000356, 0.74999758, 0.49997297], "xyz": [4.91473732850912, 4.91469814185616, 23.013605097247925], "label": "Na", "properties": {}}, {"species": [{"element": "Na", "occu": 1}], "abc": [0.25000027, 0.25000089, 0.49997283], "xyz": [1.6382397692970403, 1.6382438321272799, 23.013598653090124], "label": "Na", "properties": {}}, {"species": [{"element": "Na", "occu": 1}], "abc": [0.74995858, 0.75003791, 0.57137385], "xyz": [4.9144425767281605, 4.91496242241032, 26.300166080566655], "label": "Na", "properties": {}}, {"species": [{"element": "Na", "occu": 1}], "abc": [0.74997318, 0.25003085, 0.64282761], "xyz": [4.91453824982736, 1.6384401585692003, 29.58916111434524], "label": "Na", "properties": {}}, {"species": [{"element": "Na", "occu": 1}], "abc": [0.24999167, 0.75001945, 0.71427293], "xyz": [1.6381834139098401, 4.914841454916401, 32.877767657467984], "label": "Na", "properties": {}}, {"species": [{"element": "Na", "occu": 1}], "abc": [0.74998655, 0.25001421, 0.71427311], "xyz": [4.9146258627956, 1.6383311174479203, 32.87777594281372], "label": "Na", "properties": {}}, {"species": [{"element": "Na", "occu": 1}], "abc": [0.24996927, 0.75002643, 0.6428279], "xyz": [1.63803662778504, 4.91488719452136, 29.589174462957825], "label": "Na", "properties": {}}, {"species": [{"element": "Na", "occu": 1}], "abc": [0.24999244, 0.25001335, 0.7142549], "xyz": [1.6381884596828802, 1.6383254819092001, 32.876937742002944], "label": "Na", "properties": {}}, {"species": [{"element": "Na", "occu": 1}], "abc": [0.74997738, 0.75002196, 0.64277452], "xyz": [4.91456577222576, 4.91485790282592, 29.58671739764869], "label": "Na", "properties": {}}, {"species": [{"element": "Na", "occu": 1}], "abc": [0.24996722, 0.25003199, 0.64277516], "xyz": [1.63802319423344, 1.63844762893448, 29.586746856655772], "label": "Na", "properties": {}}, {"species": [{"element": "Na", "occu": 1}], "abc": [0.74999278, 0.75001204, 0.71425434], "xyz": [4.914666687686561, 4.91479289754208, 32.87691196537175], "label": "Na", "properties": {}}, {"species": [{"element": "Na", "occu": 1}], "abc": [0.75000112, 0.25000255, 0.78573765], "xyz": [4.91472133930624, 1.6382547100276, 36.16726717674278], "label": "Na", "properties": {}}, {"species": [{"element": "Na", "occu": 1}], "abc": [0.25000215, 0.74999932, 0.85717952], "xyz": [1.6382520888468, 4.9147095439926405, 39.45571491740549], "label": "Na", "properties": {}}, {"species": [{"element": "Na", "occu": 1}], "abc": [0.75000287, 0.24999982, 0.85717951], "xyz": [4.91473280697224, 1.6382368204686402, 39.455714457108506], "label": "Na", "properties": {}}, {"species": [{"element": "Na", "occu": 1}], "abc": [0.25000102, 0.75000262, 0.78573759], "xyz": [1.6382446840110403, 4.91473116873424, 36.16726441496087], "label": "Na", "properties": {}}, {"species": [{"element": "Na", "occu": 1}], "abc": [0.25000323, 0.24999908, 0.85723148], "xyz": [1.6382591660349601, 1.6382319712841602, 39.45810662054267], "label": "Na", "properties": {}}, {"species": [{"element": "Na", "occu": 1}], "abc": [0.74999844, 0.75000449, 0.7857547], "xyz": [4.91470377739488, 4.914743422754481, 36.16805198310323], "label": "Na", "properties": {}}, {"species": [{"element": "Na", "occu": 1}], "abc": [0.24999852, 0.25000423, 0.78575512], "xyz": [1.6382283016310402, 1.63826571898696, 36.168071315576626], "label": "Na", "properties": {}}, {"species": [{"element": "Na", "occu": 1}], "abc": [0.75000395, 0.7499985, 0.85723122], "xyz": [4.9147398841604, 4.9147041705720005, 39.45809465282104], "label": "Na", "properties": {}}, {"species": [{"element": "Na", "occu": 1}], "abc": [0.75000284, 0.24999911, 0.92855571], "xyz": [4.9147326103836795, 1.63823216787272, 42.74113942746678], "label": "Na", "properties": {}}, {"species": [{"element": "Na", "occu": 1}], "abc": [0.25000268, 0.74999857, 0.92855571], "xyz": [1.63825556191136, 4.91470462927864, 42.74113942746678], "label": "Na", "properties": {}}, {"species": [{"element": "Na", "occu": 1}], "abc": [0.25001613, 0.24998543, 1.809e-05], "xyz": [1.63834369911576, 1.63814252348936, 0.0008326772469504001], "label": "Na", "properties": {}}, {"species": [{"element": "Na", "occu": 1}], "abc": [0.75000226, 0.74999884, 0.92861898], "xyz": [4.91472880967152, 4.914706398575681, 42.74405172649467], "label": "Na", "properties": {}}, {"species": [{"element": "Na", "occu": 1}], "abc": [0.25000212, 0.24999942, 0.92861902], "xyz": [1.63825189225824, 1.63823419928784, 42.744053567682606], "label": "Na", "properties": {}}, {"species": [{"element": "Na", "occu": 1}], "abc": [0.75001549, 0.7499851, 1.826e-05], "xyz": [4.91481550522648, 4.9146163610152, 0.0008405022957056001], "label": "Na", "properties": {}}, {"species": [{"element": "S", "occu": 1}], "abc": [1.398e-05, 0.99997604, 0.10704852], "xyz": [9.161026896000001e-05, 6.55279499127008, 4.927411106894131], "label": "S", "properties": {}}, {"species": [{"element": "S", "occu": 1}], "abc": [0.50000998, 0.999985, 0.03567682], "xyz": [3.27654139846096, 6.5528537057200005, 1.642193270179379], "label": "S", "properties": {}}, {"species": [{"element": "S", "occu": 1}], "abc": [1.262e-05, 0.49998523, 0.03567681], "xyz": [8.269825424e-05, 3.27637921289896, 1.6421928098823937], "label": "S", "properties": {}}, {"species": [{"element": "S", "occu": 1}], "abc": [0.50001273, 0.49997921, 0.10704831], "xyz": [3.27655941907896, 3.27633976412792, 4.927401440657433], "label": "S", "properties": {}}, {"species": [{"element": "S", "occu": 1}], "abc": [4.55e-06, 0.99999916, 0.2499983], "xyz": [2.9815931599999998e-05, 6.55294649552032, 11.507346389512449], "label": "S", "properties": {}}, {"species": [{"element": "S", "occu": 1}], "abc": [0.50000964, 0.99998954, 0.17853807], "xyz": [3.2765391704572804, 6.55288345612208, 8.21805354358418], "label": "S", "properties": {}}, {"species": [{"element": "S", "occu": 1}], "abc": [1.109e-05, 0.49998645, 0.17853784], "xyz": [7.267223768e-05, 3.2763872075004, 8.21804295675351], "label": "S", "properties": {}}, {"species": [{"element": "S", "occu": 1}], "abc": [0.50000262, 0.49999557, 0.24999763], "xyz": [3.27649316873424, 3.27644697042264, 11.507315549614413], "label": "S", "properties": {}}, {"species": [{"element": "S", "occu": 1}], "abc": [3.14e-06, 0.99999849, 0.3929498], "xyz": [2.0576269280000002e-05, 6.55294210504248, 18.087360843212288], "label": "S", "properties": {}}, {"species": [{"element": "S", "occu": 1}], "abc": [0.49999952, 0.99999789, 0.32145777], "xyz": [3.27647285458304, 6.55293817327128, 14.79660425286981], "label": "S", "properties": {}}, {"species": [{"element": "S", "occu": 1}], "abc": [4.24e-06, 0.50000135, 0.32145766], "xyz": [2.778451648e-05, 3.2764848464852, 14.796599189602968], "label": "S", "properties": {}}, {"species": [{"element": "S", "occu": 1}], "abc": [0.50000124, 0.50000144, 0.39294991], "xyz": [3.27648412566048, 3.2764854362508804, 18.087365906479132], "label": "S", "properties": {}}, {"species": [{"element": "S", "occu": 1}], "abc": [0.50000092, 1.1e-06, 0.46432088], "xyz": [3.27648202871584, 7.208247200000001e-06, 21.372550141513933], "label": "S", "properties": {}}, {"species": [{"element": "S", "occu": 1}], "abc": [1.31e-06, 0.49999754, 0.46432067], "xyz": [8.58436712e-06, 3.27645987973808, 21.372540475277233], "label": "S", "properties": {}}, {"species": [{"element": "S", "occu": 1}], "abc": [0.99997741, 0.50001944, 0.60706176], "xyz": [6.55280396881432, 3.2766033893868802, 27.942869820103066], "label": "S", "properties": {}}, {"species": [{"element": "S", "occu": 1}], "abc": [0.49999007, 0.50000887, 0.53571461], "xyz": [3.2764109291866403, 3.2765341246842405, 24.65878201248796], "label": "S", "properties": {}}, {"species": [{"element": "S", "occu": 1}], "abc": [0.99999083, 7.94e-06, 0.53571448], "xyz": [6.55289190943016, 5.2030438880000005e-05, 24.65877602862715], "label": "S", "properties": {}}, {"species": [{"element": "S", "occu": 1}], "abc": [0.49997517, 2.404e-05, 0.60706225], "xyz": [3.2763132902018404, 0.00015753296608, 27.94289237465536], "label": "S", "properties": {}}, {"species": [{"element": "S", "occu": 1}], "abc": [0.99999475, 0.50000724, 0.75000402], "xyz": [6.552917597002001, 3.27652344337248, 34.52245895938821], "label": "S", "properties": {}}, {"species": [{"element": "S", "occu": 1}], "abc": [0.49998932, 0.50001181, 0.67854712], "xyz": [3.27640601447264, 3.27655339036312, 31.233319392356144], "label": "S", "properties": {}}, {"species": [{"element": "S", "occu": 1}], "abc": [0.99996066, 4.155e-05, 0.67854642], "xyz": [6.55269420686832, 0.0002722751556, 31.233287171567156], "label": "S", "properties": {}}, {"species": [{"element": "S", "occu": 1}], "abc": [0.49999657, 6.45e-06, 0.7500045], "xyz": [3.27645352337464, 4.22665404e-05, 34.52248105364352], "label": "S", "properties": {}}, {"species": [{"element": "S", "occu": 1}], "abc": [-2e-07, 0.49999862, 0.89293586], "xyz": [-1.3105904000000001e-06, 3.27646695692624, 41.101568469214364], "label": "S", "properties": {}}, {"species": [{"element": "S", "occu": 1}], "abc": [0.50000322, 0.50000274, 0.82145858], "xyz": [3.27649710050544, 3.27649395508848, 37.81149081692565], "label": "S", "properties": {}}, {"species": [{"element": "S", "occu": 1}], "abc": [2.47e-06, -7.9e-07, 0.82145866], "xyz": [1.618579144e-05, -5.17683208e-06, 37.81149449930153], "label": "S", "properties": {}}, {"species": [{"element": "S", "occu": 1}], "abc": [0.50000328, 1.1e-06, 0.89293581], "xyz": [3.2764974936825606, 7.208247200000001e-06, 41.10156616772943], "label": "S", "properties": {}}, {"species": [{"element": "S", "occu": 1}], "abc": [0.50000627, 0.49999845, 0.96427916], "xyz": [3.27651708700904, 3.2764658429244, 44.38547906249001], "label": "S", "properties": {}}, {"species": [{"element": "S", "occu": 1}], "abc": [4.2e-06, 0.99999678, 0.96427812], "xyz": [2.75223984e-05, 6.5529308994945605, 44.38543119160351], "label": "S", "properties": {}}]}, "formula": "(Na2S)28.0", "bandgap": 2.4539}