{"miller": "110_0.25", "final_energy": -478.91371383, "sigma": -0.0007004179028475749, "incar_parameters": {"SYSTEM": "unknown system", "LCOMPAT": false, "PREC": "normal", "ENMAX": 520.0, "ENAUG": 368.056, "EDIFF": 1e-05, "IALGO": 38, "IWAVPR": 11, "NBANDS": 576, "NBANDSLOW": -1, "NBANDSHIGH": -1, "NELECT": 960.0, "TURBO": 0, "IRESTART": 0, "NREBOOT": 0, "NMIN": 0, "EREF": 0.0, "ISMEAR": 0, "SIGMA": 0.05, "KSPACING": 0.5, "KGAMMA": true, "KBLOWUP": true, "LREAL": true, "ROPT": [-0.0005, -0.0005], "LMAXPAW": -100, "LMAXMIX": 2, "NLSPLINE": false, "ISTART": 0, "ICHARG": 2, "INIWAV": 1, "ISPIN": 1, "LNONCOLLINEAR": false, "MAGMOM": [0.6, 0.6, 0.6, 0.6, 0.6, 0.6, 0.6, 0.6, 0.6, 0.6, 0.6, 0.6, 0.6, 0.6, 0.6, 0.6, 0.6, 0.6, 0.6, 0.6, 0.6, 0.6, 0.6, 0.6, 0.6, 0.6, 0.6, 0.6, 0.6, 0.6, 0.6, 0.6, 0.6, 0.6, 0.6, 0.6, 0.6, 0.6, 0.6, 0.6, 0.6, 0.6, 0.6, 0.6, 0.6, 0.6, 0.6, 0.6, 0.6, 0.6, 0.6, 0.6, 0.6, 0.6, 0.6, 0.6, 0.6, 0.6, 0.6, 0.6, 0.6, 0.6, 0.6, 0.6, 0.6, 0.6, 0.6, 0.6, 0.6, 0.6, 0.6, 0.6, 0.6, 0.6, 0.6, 0.6, 0.6, 0.6, 0.6, 0.6, 0.6, 0.6, 0.6, 0.6, 0.6, 0.6, 0.6, 0.6, 0.6, 0.6, 0.6, 0.6, 0.6, 0.6, 0.6, 0.6, 0.6, 0.6, 0.6, 0.6, 0.6, 0.6, 0.6, 0.6, 0.6, 0.6, 0.6, 0.6, 0.6, 0.6, 0.6, 0.6, 0.6, 0.6, 0.6, 0.6, 0.6, 0.6, 0.6, 0.6, 0.6, 0.6, 0.6, 0.6, 0.6, 0.6, 0.6, 0.6, 0.6, 0.6, 0.6, 0.6, 0.6, 0.6, 0.6, 0.6, 0.6, 0.6, 0.6, 0.6, 0.6, 0.6, 0.6, 0.6], "NUPDOWN": -1.0, "LSORBIT": false, "SAXIS": [0.0, 0.0, 1.0], "LSPIRAL": false, "QSPIRAL": [0.0, 0.0, 0.0], "LZEROZ": false, "LASPH": false, "LMETAGGA": false, "NELM": 100, "NELMDL": -5, "NELMIN": 6, "ENINI": 520.0, "LDIAG": true, "LSUBROT": false, "WEIMIN": 0.001, "EBREAK": 0.0, "DEPER": 0.3, "NRMM": 4, "TIME": 0.4, "AMIX": 0.4, "BMIX": 1.0, "AMIN": 0.1, "AMIX_MAG": 1.6, "BMIX_MAG": 1.0, "IMIX": 4, "MIXFIRST": false, "MAXMIX": -45, "WC": 100.0, "INIMIX": 1, "MIXPRE": 1, "MREMOVE": 5, "LDIPOL": false, "LMONO": false, "IDIPOL": 0, "EPSILON": 1.0, "DIPOL": [-100.0, -100.0, -100.0], "EFIELD": 0.0, "NGX": 40, "NGY": 54, "NGZ": 320, "NGXF": 80, "NGYF": 108, "NGZF": 640, "ADDGRID": false, "NSW": 150, "IBRION": 2, "MDALGO": 0, "ISIF": 3, "PSTRESS": 0.0, "EDIFFG": -0.01, "NFREE": 1, "POTIM": 0.5, "SMASS": -3.0, "SCALEE": 1.0, "TEBEG": 0.0001, "TEEND": 0.0001, "NBLOCK": 1, "KBLOCK": 150, "NPACO": 256, "APACO": 10.0, "ISYM": 0, "SYMPREC": 1e-05, "LORBIT": 11, "RWIGS": [-1.0, -1.0], "NEDOS": 301, "EMIN": 10.0, "EMAX": -10.0, "EFERMI": 0.0, "NWRITE": 2, "LWAVE": false, "LDOWNSAMPLE": false, "LCHARG": false, "LPARD": false, "LVTOT": false, "LVHAR": false, "LELF": false, "LOPTICS": false, "STM": [0.0, 0.0, 0.0, 0.0, 0.0, 0.0, 0.0], "NPAR": 1, "NSIM": 4, "NBLK": -1, "LPLANE": true, "LSCALAPACK": true, "LSCAAWARE": false, "LSCALU": false, "LASYNC": false, "LORBITALREAL": false, "IDIOT": 3, "PHON_NSTRUCT": -1, "LMUSIC": false, "POMASS": [22.99, 32.066], "DARWINR": [0.0, 0.0], "DARWINV": [1.0, 1.0], "LCORR": true, "GGA_COMPAT": true, "LBERRY": false, "ICORELEVEL": 0, "LDAU": false, "I_CONSTRAINED_M": 0, "GGA": "--", "VOSKOWN": 0, "LHFCALC": false, "PRECFOCK": "", "LSYMGRAD": false, "LHFONE": false, "LRHFCALC": false, "LTHOMAS": false, "LMODELHF": false, "LFOCKACE": false, "ENCUT4O": -1.0, "EXXOEP": 0, "FOURORBIT": 0, "AEXX": 0.0, "HFALPHA": 0.0, "MCALPHA": 0.0, "ALDAX": 1.0, "AGGAX": 1.0, "ALDAC": 1.0, "AGGAC": 1.0, "NKREDX": 1, "NKREDY": 1, "NKREDZ": 1, "SHIFTRED": false, "ODDONLY": false, "EVENONLY": false, "LMAXFOCK": 0, "NMAXFOCKAE": 0, "LFOCKAEDFT": false, "HFSCREEN": 0.0, "HFSCREENC": 0.0, "NBANDSGWLOW": 0, "LUSE_VDW": false, "Zab_VDW": -0.8491, "PARAM1": 0.1234, "PARAM2": 1.0, "PARAM3": 0.0, "MODEL_GW": 0, "MODEL_EPS0": 14.12135606, "MODEL_ALPHA": 1.0, "LEPSILON": false, "LRPA": false, "LNABLA": false, "LVEL": false, "CSHIFT": 0.1, "OMEGAMAX": -1.0, "DEG_THRESHOLD": 0.002, "RTIME": -0.1, "WPLASMAI": 0.0, "DFIELD": [0.0, 0.0, 0.0], "WPLASMA": [0.0, 0.0, 0.0, 0.0, 0.0, 0.0, 0.0, 0.0, 0.0], "NUCIND": false, "MAGPOS": [0.0, 0.0, 0.0], "LNICSALL": true, "ORBITALMAG": false, "LMAGBLOCH": false, "LCHIMAG": false, "LGAUGE": true, "MAGATOM": 0, "MAGDIPOL": [0.0, 0.0, 0.0], "AVECCONST": [0.0, 0.0, 0.0], "LFINITE_TEMPERATURE": false, "LADDER": false, "LRPAFORCE": false, "LFXC": false, "LHARTREE": true, "IBSE": 0, "KPOINT": [-1, 0, 0, 0], "LTCTC": false, "LTCTE": false, "LTETE": false, "LTRIPLET": false, "LFXCEPS": false, "LFXHEG": false, "NATURALO": 2, "LHOLEGF": false, "L2ORDER": false, "LDMP1": false, "LMP2LT": false, "LSMP2LT": false, "LGWLF": false, "ENCUTGW": -2.0, "ENCUTGWSOFT": -2.0, "ENCUTLF": -1.0, "LESF_SPLINES": false, "LMAXMP2": -1, "SCISSOR": 0.0, "NOMEGA": 0, "NOMEGAR": 0, "NBANDSGW": -1, "NBANDSO": -1, "NBANDSV": -1, "NELMGW": 1, "NELMHF": 1, "DIM": 3, "IESPILON": 4, "ANTIRES": 0, "OMEGAMIN": -30.0, "OMEGATL": -200.0, "OMEGAGRID": 0, "LSELFENERGY": false, "LSPECTRAL": false, "LSPECTRALGW": false, "LSINGLES": false, "LFERMIGW": false, "ODDONLYGW": false, "EVENONLYGW": false, "NKREDLFX": 1, "NKREDLFY": 1, "NKREDLFZ": 1, "MAXMEM": 2800, "TELESCOPE": 0, "NTAUPAR": -1, "NOMEGAPAR": -1, "DAMP_NEWTON": 0.80000001, "LAMBDA": 1.0, "OFIELD_KAPPA": 0.0, "OFIELD_K": [0.0, 0.0, 0.0], "OFIELD_Q6_NEAR": 0.0, "OFIELD_Q6_FAR": 0.0, "OFIELD_A": 0.0, "KPOINTS_OPT_MODE": 1, "LKPOINTS_OPT": false, "@module": "pymatgen.io.vasp.inputs", "@class": "Incar"}, "relaxed_structures": {"@module": "pymatgen.core.structure", "@class": "Structure", "charge": 0, "lattice": {"matrix": [[6.552952, 0.0, 0.0], [0.0, 9.267273, 0.0], [0.0, 0.0, 55.80828819]], "a": 6.552952, "b": 9.267273, "c": 55.80828819, "alpha": 90.0, "beta": 90.0, "gamma": 90.0, "volume": 3389.1254539682354}, "sites": [{"species": [{"element": "Na", "occu": 1}], "abc": [0.75026559, 0.62499647, 0.02084247], "xyz": [4.91645439852168, 5.79201291152631, 1.163182572351429], "label": "Na", "properties": {}}, {"species": [{"element": "Na", "occu": 1}], "abc": [0.2497346, 0.12499643, 0.02084236], "xyz": [1.6364988465392, 1.15837604083539, 1.1631764334397283], "label": "Na", "properties": {}}, {"species": [{"element": "Na", "occu": 1}], "abc": [0.74979044, 0.37508216, 0.06252268], "xyz": [4.91334076337888, 3.4759887741496795, 3.489283743851149], "label": "Na", "properties": {}}, {"species": [{"element": "Na", "occu": 1}], "abc": [0.25020933, 0.87508213, 0.06252271], "xyz": [1.63960972944216, 8.10962499613149, 3.4892854180997945], "label": "Na", "properties": {}}, {"species": [{"element": "Na", "occu": 1}], "abc": [0.75026561, 0.12499644, 0.02084246], "xyz": [4.9164545295807205, 1.15837613350812, 1.1631820142685474], "label": "Na", "properties": {}}, {"species": [{"element": "Na", "occu": 1}], "abc": [0.24973456, 0.62499643, 0.02084237], "xyz": [1.63649858442112, 5.79201254083539, 1.1631769915226102], "label": "Na", "properties": {}}, {"species": [{"element": "Na", "occu": 1}], "abc": [0.74979047, 0.87508213, 0.06252268], "xyz": [4.9133409599674405, 8.10962499613149, 3.489283743851149], "label": "Na", "properties": {}}, {"species": [{"element": "Na", "occu": 1}], "abc": [0.25020931, 0.37508216, 0.06252272], "xyz": [1.6396095983831203, 3.4759887741496795, 3.489285976182677], "label": "Na", "properties": {}}, {"species": [{"element": "Na", "occu": 1}], "abc": [0.75028365, 0.12499722, 0.10420023], "xyz": [4.9165727448348004, 1.15838336198106, 5.815236465304284], "label": "Na", "properties": {}}, {"species": [{"element": "Na", "occu": 1}], "abc": [0.24971578, 0.62499724, 0.10420017], "xyz": [1.63637551998256, 5.7920200473265195, 5.815233116806992], "label": "Na", "properties": {}}, {"species": [{"element": "Na", "occu": 1}], "abc": [0.7497592, 0.8750027, 0.14588714], "xyz": [4.9131360491584, 8.108888896637099, 8.141711552334876], "label": "Na", "properties": {}}, {"species": [{"element": "Na", "occu": 1}], "abc": [0.25024, 0.37500268, 0.14588722], "xyz": [1.6398107084800002, 3.4752522112916395, 8.141716016997933], "label": "Na", "properties": {}}, {"species": [{"element": "Na", "occu": 1}], "abc": [0.7502836, 0.62499725, 0.10420022], "xyz": [4.916572417187201, 5.7920201399992495, 5.8152359072214015], "label": "Na", "properties": {}}, {"species": [{"element": "Na", "occu": 1}], "abc": [0.24971579, 0.12499723, 0.10420018], "xyz": [1.63637558551208, 1.15838345465379, 5.815233674889874], "label": "Na", "properties": {}}, {"species": [{"element": "Na", "occu": 1}], "abc": [0.74975919, 0.37500268, 0.14588715], "xyz": [4.91313598362888, 3.4752522112916395, 8.141712110417759], "label": "Na", "properties": {}}, {"species": [{"element": "Na", "occu": 1}], "abc": [0.25023998, 0.87500268, 0.14588722], "xyz": [1.63981057742096, 8.10888871129164, 8.141716016997933], "label": "Na", "properties": {}}, {"species": [{"element": "Na", "occu": 1}], "abc": [0.75017699, 0.62492879, 0.18754298], "xyz": [4.9158738069744805, 5.79138570248967, 10.466452675851405], "label": "Na", "properties": {}}, {"species": [{"element": "Na", "occu": 1}], "abc": [0.24982222, 0.12492874, 0.18754293], "xyz": [1.6370730161934401, 1.15774873912602, 10.466449885436996], "label": "Na", "properties": {}}, {"species": [{"element": "Na", "occu": 1}], "abc": [0.74980466, 0.37500512, 0.22918308], "xyz": [4.91343394635632, 3.47527482343776, 12.790315376911826], "label": "Na", "properties": {}}, {"species": [{"element": "Na", "occu": 1}], "abc": [0.25019494, 0.87500514, 0.2291832], "xyz": [1.63951543246288, 8.108911508783219, 12.790322073906408], "label": "Na", "properties": {}}, {"species": [{"element": "Na", "occu": 1}], "abc": [0.750177, 0.12492874, 0.18754298], "xyz": [4.915873872504, 1.15774873912602, 10.466452675851405], "label": "Na", "properties": {}}, {"species": [{"element": "Na", "occu": 1}], "abc": [0.24982221, 0.62492876, 0.18754292], "xyz": [1.6370729506639201, 5.791385424471479, 10.466449327354114], "label": "Na", "properties": {}}, {"species": [{"element": "Na", "occu": 1}], "abc": [0.74980466, 0.87500513, 0.22918308], "xyz": [4.91343394635632, 8.10891141611049, 12.790315376911826], "label": "Na", "properties": {}}, {"species": [{"element": "Na", "occu": 1}], "abc": [0.25019495, 0.37500515, 0.2291832], "xyz": [1.6395154979924003, 3.4752751014559498, 12.790322073906408], "label": "Na", "properties": {}}, {"species": [{"element": "Na", "occu": 1}], "abc": [0.7501953, 0.12499484, 0.27081691], "xyz": [4.9159937915256, 1.1583613058713198, 15.113828160005294], "label": "Na", "properties": {}}, {"species": [{"element": "Na", "occu": 1}], "abc": [0.24980506, 0.62499482, 0.27081679], "xyz": [1.6369605675371202, 5.791997620525859, 15.113821463010709], "label": "Na", "properties": {}}, {"species": [{"element": "Na", "occu": 1}], "abc": [0.74982289, 0.87507119, 0.31245701], "xyz": [4.91355340667128, 8.10952361216487, 17.43769086106571], "label": "Na", "properties": {}}, {"species": [{"element": "Na", "occu": 1}], "abc": [0.2501778, 0.37507125, 0.31245706], "xyz": [1.6394031148656, 3.47588766820125, 17.43769365148012], "label": "Na", "properties": {}}, {"species": [{"element": "Na", "occu": 1}], "abc": [0.75019529, 0.62499483, 0.2708169], "xyz": [4.91599372599608, 5.791997713198589, 15.113827601922413], "label": "Na", "properties": {}}, {"species": [{"element": "Na", "occu": 1}], "abc": [0.24980508, 0.12499483, 0.27081679], "xyz": [1.6369606985961602, 1.1583612131985899, 15.113821463010709], "label": "Na", "properties": {}}, {"species": [{"element": "Na", "occu": 1}], "abc": [0.74982291, 0.37507125, 0.31245701], "xyz": [4.91355353773032, 3.47588766820125, 17.43769086106571], "label": "Na", "properties": {}}, {"species": [{"element": "Na", "occu": 1}], "abc": [0.25017781, 0.87507122, 0.31245707], "xyz": [1.6394031803951201, 8.109523890183059, 17.437694209563002], "label": "Na", "properties": {}}, {"species": [{"element": "Na", "occu": 1}], "abc": [0.75024075, 0.62499728, 0.35411285], "xyz": [4.916291623194001, 5.792020418017439, 19.76243198458224], "label": "Na", "properties": {}}, {"species": [{"element": "Na", "occu": 1}], "abc": [0.24976008, 0.1249973, 0.35411277], "xyz": [1.63666581575616, 1.1583841033628999, 19.762427519919186], "label": "Na", "properties": {}}, {"species": [{"element": "Na", "occu": 1}], "abc": [0.74971633, 0.37500275, 0.39579977], "xyz": [4.91285512410616, 3.47525286000075, 22.088907629695715], "label": "Na", "properties": {}}, {"species": [{"element": "Na", "occu": 1}], "abc": [0.25028426, 0.8750027, 0.39579982], "xyz": [1.64010074213552, 8.108888896637099, 22.08891042011013], "label": "Na", "properties": {}}, {"species": [{"element": "Na", "occu": 1}], "abc": [0.75024077, 0.12499729, 0.35411285], "xyz": [4.916291754253041, 1.15838401069017, 19.76243198458224], "label": "Na", "properties": {}}, {"species": [{"element": "Na", "occu": 1}], "abc": [0.24976006, 0.6249973, 0.35411277], "xyz": [1.6366656846971201, 5.792020603362899, 19.762427519919186], "label": "Na", "properties": {}}, {"species": [{"element": "Na", "occu": 1}], "abc": [0.7497163, 0.8750027, 0.39579977], "xyz": [4.9128549275176, 8.108888896637099, 22.088907629695715], "label": "Na", "properties": {}}, {"species": [{"element": "Na", "occu": 1}], "abc": [0.25028423, 0.37500274, 0.39579983], "xyz": [1.6401005455469602, 3.4752527673280196, 22.08891097819301], "label": "Na", "properties": {}}, {"species": [{"element": "Na", "occu": 1}], "abc": [0.75020954, 0.12491783, 0.43747732], "xyz": [4.91608710556208, 1.1576476331775898, 24.41486035114885], "label": "Na", "properties": {}}, {"species": [{"element": "Na", "occu": 1}], "abc": [0.24979071, 0.62491786, 0.43747727], "xyz": [1.63686653267592, 5.79128441119578, 24.41485756073444], "label": "Na", "properties": {}}, {"species": [{"element": "Na", "occu": 1}], "abc": [0.7497344, 0.87500361, 0.47915754], "xyz": [4.9129735359488, 8.10889732985553, 26.740962080731453], "label": "Na", "properties": {}}, {"species": [{"element": "Na", "occu": 1}], "abc": [0.25026546, 0.3750035, 0.47915763], "xyz": [1.63997754663792, 3.4752598104554995, 26.740967103477388], "label": "Na", "properties": {}}, {"species": [{"element": "Na", "occu": 1}], "abc": [0.75020952, 0.62491786, 0.43747731], "xyz": [4.91608697450304, 5.79128441119578, 24.41485979306597], "label": "Na", "properties": {}}, {"species": [{"element": "Na", "occu": 1}], "abc": [0.24979072, 0.12491784, 0.43747728], "xyz": [1.63686659820544, 1.15764772585032, 24.414858118817325], "label": "Na", "properties": {}}, {"species": [{"element": "Na", "occu": 1}], "abc": [0.74973444, 0.37500347, 0.47915753], "xyz": [4.91297379806688, 3.4752595324373097, 26.74096152264857], "label": "Na", "properties": {}}, {"species": [{"element": "Na", "occu": 1}], "abc": [0.25026546, 0.87500364, 0.47915763], "xyz": [1.63997754663792, 8.10889760787372, 26.740967103477388], "label": "Na", "properties": {}}, {"species": [{"element": "Na", "occu": 1}], "abc": [0.24973453, 0.62499644, 0.52084238], "xyz": [1.63649838783256, 5.7920126335081195, 29.067321644605496], "label": "Na", "properties": {}}, {"species": [{"element": "Na", "occu": 1}], "abc": [0.75026566, 0.1249965, 0.52084247], "xyz": [4.91645485722832, 1.1583766895444998, 29.067326667351427], "label": "Na", "properties": {}}, {"species": [{"element": "Na", "occu": 1}], "abc": [0.25020925, 0.8750821, 0.56252274], "xyz": [1.639609205206, 8.109624718113299, 31.39343118734844], "label": "Na", "properties": {}}, {"species": [{"element": "Na", "occu": 1}], "abc": [0.74979055, 0.37508221, 0.5625227], "xyz": [4.9133414842036, 3.47598923751333, 31.393428955016915], "label": "Na", "properties": {}}, {"species": [{"element": "Na", "occu": 1}], "abc": [0.2497345, 0.12499646, 0.52084238], "xyz": [1.636498191244, 1.15837631885358, 29.067321644605496], "label": "Na", "properties": {}}, {"species": [{"element": "Na", "occu": 1}], "abc": [0.75026567, 0.62499645, 0.52084247], "xyz": [4.91645492275784, 5.79201272618085, 29.067326667351427], "label": "Na", "properties": {}}, {"species": [{"element": "Na", "occu": 1}], "abc": [0.25020926, 0.3750822, 0.56252274], "xyz": [1.63960927073552, 3.4759891448405997, 31.39343118734844], "label": "Na", "properties": {}}, {"species": [{"element": "Na", "occu": 1}], "abc": [0.74979052, 0.8750821, 0.5625227], "xyz": [4.91334128761504, 8.109624718113299, 31.393428955016915], "label": "Na", "properties": {}}, {"species": [{"element": "Na", "occu": 1}], "abc": [0.24971568, 0.12499726, 0.6042002], "xyz": [1.6363748646873602, 1.15838373267198, 33.71937888605564], "label": "Na", "properties": {}}, {"species": [{"element": "Na", "occu": 1}], "abc": [0.7502837, 0.62499733, 0.60420025], "xyz": [4.9165730724824, 5.79202088138109, 33.71938167647005], "label": "Na", "properties": {}}, {"species": [{"element": "Na", "occu": 1}], "abc": [0.25023994, 0.37500269, 0.64588725], "xyz": [1.63981031530288, 3.47525230396437, 36.045861786246576], "label": "Na", "properties": {}}, {"species": [{"element": "Na", "occu": 1}], "abc": [0.7497592, 0.87500274, 0.64588717], "xyz": [4.9131360491584, 8.108889267328019, 36.04585732158352], "label": "Na", "properties": {}}, {"species": [{"element": "Na", "occu": 1}], "abc": [0.24971575, 0.62499731, 0.6042002], "xyz": [1.636375323394, 5.79202069603563, 33.71937888605564], "label": "Na", "properties": {}}, {"species": [{"element": "Na", "occu": 1}], "abc": [0.75028367, 0.12499725, 0.60420025], "xyz": [4.91657287589384, 1.15838363999925, 33.71938167647005], "label": "Na", "properties": {}}, {"species": [{"element": "Na", "occu": 1}], "abc": [0.25023994, 0.87500273, 0.64588725], "xyz": [1.63981031530288, 8.108889174655289, 36.045861786246576], "label": "Na", "properties": {}}, {"species": [{"element": "Na", "occu": 1}], "abc": [0.74975925, 0.37500271, 0.64588717], "xyz": [4.913136376806, 3.4752524893098298, 36.04585732158352], "label": "Na", "properties": {}}, {"species": [{"element": "Na", "occu": 1}], "abc": [0.24982217, 0.62492877, 0.68754295], "xyz": [1.6370726885458402, 5.79138551714421, 38.370595096602756], "label": "Na", "properties": {}}, {"species": [{"element": "Na", "occu": 1}], "abc": [0.75017703, 0.12492879, 0.68754301], "xyz": [4.915874069092561, 1.1577492024896698, 38.37059844510005], "label": "Na", "properties": {}}, {"species": [{"element": "Na", "occu": 1}], "abc": [0.25019499, 0.87500515, 0.72918321], "xyz": [1.6395157601104802, 8.108911601455949, 40.69446672698929], "label": "Na", "properties": {}}, {"species": [{"element": "Na", "occu": 1}], "abc": [0.74980469, 0.37500513, 0.72918309], "xyz": [4.9134341429448805, 3.47527491611049, 40.69446002999471], "label": "Na", "properties": {}}, {"species": [{"element": "Na", "occu": 1}], "abc": [0.24982216, 0.12492877, 0.68754295], "xyz": [1.63707262301632, 1.15774901714421, 38.370595096602756], "label": "Na", "properties": {}}, {"species": [{"element": "Na", "occu": 1}], "abc": [0.75017706, 0.62492878, 0.68754301], "xyz": [4.91587426568112, 5.791385609816939, 38.37059844510005], "label": "Na", "properties": {}}, {"species": [{"element": "Na", "occu": 1}], "abc": [0.25019499, 0.37500515, 0.72918321], "xyz": [1.6395157601104802, 3.4752751014559498, 40.69446672698929], "label": "Na", "properties": {}}, {"species": [{"element": "Na", "occu": 1}], "abc": [0.74980468, 0.87500513, 0.7291831], "xyz": [4.91343407741536, 8.10891141611049, 40.69446058807759], "label": "Na", "properties": {}}, {"species": [{"element": "Na", "occu": 1}], "abc": [0.24980508, 0.12499479, 0.77081679], "xyz": [1.6369606985961602, 1.15836084250767, 43.01796555801071], "label": "Na", "properties": {}}, {"species": [{"element": "Na", "occu": 1}], "abc": [0.75019528, 0.62499488, 0.77081691], "xyz": [4.91599366046656, 5.79199817656224, 43.01797225500529], "label": "Na", "properties": {}}, {"species": [{"element": "Na", "occu": 1}], "abc": [0.25017776, 0.37507125, 0.81245706], "xyz": [1.6394028527475202, 3.47588766820125, 45.34183774648012], "label": "Na", "properties": {}}, {"species": [{"element": "Na", "occu": 1}], "abc": [0.74982296, 0.87507121, 0.812457], "xyz": [4.913553865377921, 8.10952379751033, 45.34183439798283], "label": "Na", "properties": {}}, {"species": [{"element": "Na", "occu": 1}], "abc": [0.24980506, 0.62499487, 0.77081679], "xyz": [1.6369605675371202, 5.791998083889509, 43.01796555801071], "label": "Na", "properties": {}}, {"species": [{"element": "Na", "occu": 1}], "abc": [0.75019527, 0.12499481, 0.77081691], "xyz": [4.91599359493704, 1.15836102785313, 43.01797225500529], "label": "Na", "properties": {}}, {"species": [{"element": "Na", "occu": 1}], "abc": [0.25017774, 0.87507122, 0.81245706], "xyz": [1.63940272168848, 8.109523890183059, 45.34183774648012], "label": "Na", "properties": {}}, {"species": [{"element": "Na", "occu": 1}], "abc": [0.74982297, 0.37507123, 0.812457], "xyz": [4.91355393090744, 3.4758874828557897, 45.34183439798283], "label": "Na", "properties": {}}, {"species": [{"element": "Na", "occu": 1}], "abc": [0.24976002, 0.62499731, 0.85411276], "xyz": [1.63666542257904, 5.79202069603563, 47.666571056836304], "label": "Na", "properties": {}}, {"species": [{"element": "Na", "occu": 1}], "abc": [0.75024085, 0.12499725, 0.85411283], "xyz": [4.9162922784892, 1.15838363999925, 47.66657496341648], "label": "Na", "properties": {}}, {"species": [{"element": "Na", "occu": 1}], "abc": [0.25028426, 0.87500272, 0.89579981], "xyz": [1.64010074213552, 8.108889081982559, 49.99305395702724], "label": "Na", "properties": {}}, {"species": [{"element": "Na", "occu": 1}], "abc": [0.74971641, 0.37500275, 0.89579976], "xyz": [4.912855648342321, 3.47525286000075, 49.99305116661283], "label": "Na", "properties": {}}, {"species": [{"element": "Na", "occu": 1}], "abc": [0.24976003, 0.12499727, 0.85411276], "xyz": [1.63666548810856, 1.1583838253447098, 47.666571056836304], "label": "Na", "properties": {}}, {"species": [{"element": "Na", "occu": 1}], "abc": [0.75024086, 0.62499731, 0.85411284], "xyz": [4.9162923440187205, 5.79202069603563, 47.66657552149936], "label": "Na", "properties": {}}, {"species": [{"element": "Na", "occu": 1}], "abc": [0.2502842, 0.37500274, 0.89579981], "xyz": [1.6401003489584, 3.4752527673280196, 49.99305395702724], "label": "Na", "properties": {}}, {"species": [{"element": "Na", "occu": 1}], "abc": [0.74971635, 0.87500271, 0.89579976], "xyz": [4.9128552551652005, 8.108888989309829, 49.99305116661283], "label": "Na", "properties": {}}, {"species": [{"element": "Na", "occu": 1}], "abc": [0.24979068, 0.12491788, 0.93747727], "xyz": [1.63686633608736, 1.15764809654124, 52.31900165573444], "label": "Na", "properties": {}}, {"species": [{"element": "Na", "occu": 1}], "abc": [0.75020958, 0.62491783, 0.93747731], "xyz": [4.91608736768016, 5.79128413317759, 52.31900388806597], "label": "Na", "properties": {}}, {"species": [{"element": "Na", "occu": 1}], "abc": [0.25026544, 0.37500353, 0.97915762], "xyz": [1.6399774155788802, 3.4752600884736897, 54.645110640394506], "label": "Na", "properties": {}}, {"species": [{"element": "Na", "occu": 1}], "abc": [0.74973437, 0.87500358, 0.97915753], "xyz": [4.91297333936024, 8.108897051837339, 54.645105617648575], "label": "Na", "properties": {}}, {"species": [{"element": "Na", "occu": 1}], "abc": [0.24979067, 0.62491784, 0.93747727], "xyz": [1.63686627055784, 5.791284225850319, 52.31900165573444], "label": "Na", "properties": {}}, {"species": [{"element": "Na", "occu": 1}], "abc": [0.75020958, 0.12491787, 0.93747732], "xyz": [4.91608736768016, 1.15764800386851, 52.319004446148845], "label": "Na", "properties": {}}, {"species": [{"element": "Na", "occu": 1}], "abc": [0.25026549, 0.87500361, 0.97915763], "xyz": [1.63997774322648, 8.10889732985553, 54.64511119847739], "label": "Na", "properties": {}}, {"species": [{"element": "Na", "occu": 1}], "abc": [0.74973438, 0.3750035, 0.97915753], "xyz": [4.912973404889761, 3.4752598104554995, 54.645105617648575], "label": "Na", "properties": {}}, {"species": [{"element": "S", "occu": 1}], "abc": [0.99999994, 0.62544212, 0.06252577], "xyz": [6.55295160682288, 5.79614287173876, 3.489456191461656], "label": "S", "properties": {}}, {"species": [{"element": "S", "occu": 1}], "abc": [0.99999995, 0.12544199, 0.06252577], "xyz": [6.5529516723524, 1.16250516699327, 3.489456191461656], "label": "S", "properties": {}}, {"species": [{"element": "S", "occu": 1}], "abc": [0.49999994, 0.87496171, 0.02088873], "xyz": [3.27647560682288, 8.10850903111683, 1.1657642637630987], "label": "S", "properties": {}}, {"species": [{"element": "S", "occu": 1}], "abc": [0.50000007, 0.37496172, 0.02088873], "xyz": [3.2764764587066404, 3.47487262378956, 1.1657642637630987], "label": "S", "properties": {}}, {"species": [{"element": "S", "occu": 1}], "abc": [0.99999973, 0.12504597, 0.14591753], "xyz": [6.55295023070296, 1.15883514153981, 8.14340756621297], "label": "S", "properties": {}}, {"species": [{"element": "S", "occu": 1}], "abc": [0.99999979, 0.62504591, 0.14591752], "xyz": [6.552950623880081, 5.792471085503429, 8.143407008130088], "label": "S", "properties": {}}, {"species": [{"element": "S", "occu": 1}], "abc": [0.49999994, 0.37497725, 0.10415005], "xyz": [3.27647560682288, 3.47501654453925, 5.812436005402909], "label": "S", "properties": {}}, {"species": [{"element": "S", "occu": 1}], "abc": [0.49999969, 0.87497715, 0.10415005], "xyz": [3.27647396858488, 8.10865211781195, 5.812436005402909], "label": "S", "properties": {}}, {"species": [{"element": "S", "occu": 1}], "abc": [0.99999993, 0.62503676, 0.22913051], "xyz": [6.5529515412933605, 5.79238628995548, 12.787381535201677], "label": "S", "properties": {}}, {"species": [{"element": "S", "occu": 1}], "abc": [0.99999986, 0.12503683, 0.22913051], "xyz": [6.55295108258672, 1.1587504386645897, 12.787381535201677], "label": "S", "properties": {}}, {"species": [{"element": "S", "occu": 1}], "abc": [0.49999974, 0.87464773, 0.18755703], "xyz": [3.27647429623248, 8.105599292740289, 10.467236782300477], "label": "S", "properties": {}}, {"species": [{"element": "S", "occu": 1}], "abc": [0.49999974, 0.3746478, 0.18755701], "xyz": [3.27647429623248, 3.4719634414493994, 10.467235666134712], "label": "S", "properties": {}}, {"species": [{"element": "S", "occu": 1}], "abc": [2.4e-07, 0.12535214, 0.31244295], "xyz": [1.5727084799999998e-06, 1.1616725025142198, 17.43690619653376], "label": "S", "properties": {}}, {"species": [{"element": "S", "occu": 1}], "abc": [2.4e-07, 0.62535224, 0.31244297], "xyz": [1.5727084799999998e-06, 5.79530992924152, 17.436907312699525], "label": "S", "properties": {}}, {"species": [{"element": "S", "occu": 1}], "abc": [0.50000023, 0.37496327, 0.27086947], "xyz": [3.2764775071789605, 3.47488698806271, 15.116761443632559], "label": "S", "properties": {}}, {"species": [{"element": "S", "occu": 1}], "abc": [0.50000017, 0.87496335, 0.27086947], "xyz": [3.27647711400184, 8.10852422944455, 15.116761443632559], "label": "S", "properties": {}}, {"species": [{"element": "S", "occu": 1}], "abc": [2.2e-07, 0.62502289, 0.39584996], "xyz": [1.44164944e-06, 5.79225775287897, 22.091708647679972], "label": "S", "properties": {}}, {"species": [{"element": "S", "occu": 1}], "abc": [1.1e-07, 0.12502283, 0.39584994], "xyz": [7.2082472e-07, 1.1586206968425898, 22.09170753151421], "label": "S", "properties": {}}, {"species": [{"element": "S", "occu": 1}], "abc": [0.50000027, 0.8749541, 0.35408247], "xyz": [3.27647776929704, 8.1084385071693, 19.760736528787028], "label": "S", "properties": {}}, {"species": [{"element": "S", "occu": 1}], "abc": [0.50000029, 0.37495397, 0.35408245], "xyz": [3.27647790035608, 3.47480080242381, 19.760735412621266], "label": "S", "properties": {}}, {"species": [{"element": "S", "occu": 1}], "abc": [0.9999999, 0.12503829, 0.47911126], "xyz": [6.552951344704801, 1.15876396888317, 26.738379273154017], "label": "S", "properties": {}}, {"species": [{"element": "S", "occu": 1}], "abc": [4e-08, 0.62503835, 0.47911126], "xyz": [2.6211808000000004e-07, 5.792401024919549, 26.738379273154017], "label": "S", "properties": {}}, {"species": [{"element": "S", "occu": 1}], "abc": [0.5000001, 0.37455796, 0.43747423], "xyz": [3.2764766552951996, 3.47113086964308, 24.414687903538344], "label": "S", "properties": {}}, {"species": [{"element": "S", "occu": 1}], "abc": [0.50000013, 0.87455789, 0.43747423], "xyz": [3.27647685188376, 8.104766720933968, 24.414687903538344], "label": "S", "properties": {}}, {"species": [{"element": "S", "occu": 1}], "abc": [0.99999982, 0.62544213, 0.56252578], "xyz": [6.552950820468641, 5.79614296441149, 31.393600844544537], "label": "S", "properties": {}}, {"species": [{"element": "S", "occu": 1}], "abc": [0.9999999, 0.12544214, 0.56252578], "xyz": [6.552951344704801, 1.16250655708422, 31.393600844544537], "label": "S", "properties": {}}, {"species": [{"element": "S", "occu": 1}], "abc": [0.49999999, 0.37496164, 0.52088874], "xyz": [3.27647593447048, 3.4748718824077196, 29.06990891684598], "label": "S", "properties": {}}, {"species": [{"element": "S", "occu": 1}], "abc": [0.50000003, 0.87496166, 0.52088874], "xyz": [3.2764761965885603, 8.10850856775318, 29.06990891684598], "label": "S", "properties": {}}, {"species": [{"element": "S", "occu": 1}], "abc": [0.99999984, 0.12504593, 0.64591754], "xyz": [6.55295095152768, 1.15883477084889, 36.04755221929585], "label": "S", "properties": {}}, {"species": [{"element": "S", "occu": 1}], "abc": [0.99999963, 0.62504593, 0.64591755], "xyz": [6.5529495754077605, 5.792471270848889, 36.04755277737873], "label": "S", "properties": {}}, {"species": [{"element": "S", "occu": 1}], "abc": [0.4999999, 0.87497715, 0.60415006], "xyz": [3.2764753447048003, 8.10865211781195, 33.716580658485796], "label": "S", "properties": {}}, {"species": [{"element": "S", "occu": 1}], "abc": [0.49999972, 0.37497707, 0.60415007], "xyz": [3.27647416517344, 3.47501487643011, 33.71658121656867], "label": "S", "properties": {}}, {"species": [{"element": "S", "occu": 1}], "abc": [0.99999983, 0.62503678, 0.72913053], "xyz": [6.55295088599816, 5.7923864753009395, 40.691526746367444], "label": "S", "properties": {}}, {"species": [{"element": "S", "occu": 1}], "abc": [0.99999983, 0.12503681, 0.72913052], "xyz": [6.55295088599816, 1.1587502533191298, 40.691526188284556], "label": "S", "properties": {}}, {"species": [{"element": "S", "occu": 1}], "abc": [0.49999984, 0.37464776, 0.68755705], "xyz": [3.27647495152768, 3.4719630707584797, 38.37138199346624], "label": "S", "properties": {}}, {"species": [{"element": "S", "occu": 1}], "abc": [0.49999982, 0.87464778, 0.68755704], "xyz": [3.27647482046864, 8.10559975610394, 38.371381435383356], "label": "S", "properties": {}}, {"species": [{"element": "S", "occu": 1}], "abc": [2.5e-07, 0.12535213, 0.81244296], "xyz": [1.638238e-06, 1.16167240984149, 45.34105084961664], "label": "S", "properties": {}}, {"species": [{"element": "S", "occu": 1}], "abc": [2.6e-07, 0.62535222, 0.81244296], "xyz": [1.70376752e-06, 5.79530974389606, 45.34105084961664], "label": "S", "properties": {}}, {"species": [{"element": "S", "occu": 1}], "abc": [0.50000009, 0.87496323, 0.77086949], "xyz": [3.27647658976568, 8.108523117371789, 43.020906654798324], "label": "S", "properties": {}}, {"species": [{"element": "S", "occu": 1}], "abc": [0.50000012, 0.37496319, 0.77086948], "xyz": [3.2764767863542406, 3.4748862466808697, 43.02090609671544], "label": "S", "properties": {}}, {"species": [{"element": "S", "occu": 1}], "abc": [1.2e-07, 0.62502287, 0.89584994], "xyz": [7.863542399999999e-07, 5.792257567533509, 49.9958516265142], "label": "S", "properties": {}}, {"species": [{"element": "S", "occu": 1}], "abc": [1.7e-07, 0.12502295, 0.89584994], "xyz": [1.11400184e-06, 1.15862180891535, 49.9958516265142], "label": "S", "properties": {}}, {"species": [{"element": "S", "occu": 1}], "abc": [0.50000009, 0.37495409, 0.85408245], "xyz": [3.27647658976568, 3.47480191449657, 47.664879507621265], "label": "S", "properties": {}}, {"species": [{"element": "S", "occu": 1}], "abc": [0.5000002, 0.87495414, 0.85408248], "xyz": [3.2764773105904004, 8.10843887786022, 47.66488118186991], "label": "S", "properties": {}}, {"species": [{"element": "S", "occu": 1}], "abc": [0.99999999, 0.12503829, 0.97911128], "xyz": [6.55295193447048, 1.15876396888317, 54.642524484319786], "label": "S", "properties": {}}, {"species": [{"element": "S", "occu": 1}], "abc": [4e-08, 0.62503838, 0.97911127], "xyz": [2.6211808000000004e-07, 5.79240130293774, 54.6425239262369], "label": "S", "properties": {}}, {"species": [{"element": "S", "occu": 1}], "abc": [0.50000008, 0.87455785, 0.93747421], "xyz": [3.27647652423616, 8.104766350243048, 52.31883088237258], "label": "S", "properties": {}}, {"species": [{"element": "S", "occu": 1}], "abc": [0.50000019, 0.37455802, 0.93747423], "xyz": [3.27647724506088, 3.47113142567946, 52.31883199853834], "label": "S", "properties": {}}]}, "formula": "(Na2S)48.0", "bandgap": 2.4508}