{"miller": "111_0.12", "final_energy": -476.8646176, "sigma": 0.01320330771340311, "incar_parameters": {"SYSTEM": "unknown system", "LCOMPAT": false, "PREC": "normal", "ENMAX": 520.0, "ENAUG": 368.056, "EDIFF": 1e-05, "IALGO": 38, "IWAVPR": 11, "NBANDS": 576, "NBANDSLOW": -1, "NBANDSHIGH": -1, "NELECT": 960.0, "TURBO": 0, "IRESTART": 0, "NREBOOT": 0, "NMIN": 0, "EREF": 0.0, "ISMEAR": 0, "SIGMA": 0.05, "KSPACING": 0.5, "KGAMMA": true, "KBLOWUP": true, "LREAL": true, "ROPT": [-0.0005, -0.0005], "LMAXPAW": -100, "LMAXMIX": 2, "NLSPLINE": false, "ISTART": 0, "ICHARG": 2, "INIWAV": 1, "ISPIN": 1, "LNONCOLLINEAR": false, "MAGMOM": [0.6, 0.6, 0.6, 0.6, 0.6, 0.6, 0.6, 0.6, 0.6, 0.6, 0.6, 0.6, 0.6, 0.6, 0.6, 0.6, 0.6, 0.6, 0.6, 0.6, 0.6, 0.6, 0.6, 0.6, 0.6, 0.6, 0.6, 0.6, 0.6, 0.6, 0.6, 0.6, 0.6, 0.6, 0.6, 0.6, 0.6, 0.6, 0.6, 0.6, 0.6, 0.6, 0.6, 0.6, 0.6, 0.6, 0.6, 0.6, 0.6, 0.6, 0.6, 0.6, 0.6, 0.6, 0.6, 0.6, 0.6, 0.6, 0.6, 0.6, 0.6, 0.6, 0.6, 0.6, 0.6, 0.6, 0.6, 0.6, 0.6, 0.6, 0.6, 0.6, 0.6, 0.6, 0.6, 0.6, 0.6, 0.6, 0.6, 0.6, 0.6, 0.6, 0.6, 0.6, 0.6, 0.6, 0.6, 0.6, 0.6, 0.6, 0.6, 0.6, 0.6, 0.6, 0.6, 0.6, 0.6, 0.6, 0.6, 0.6, 0.6, 0.6, 0.6, 0.6, 0.6, 0.6, 0.6, 0.6, 0.6, 0.6, 0.6, 0.6, 0.6, 0.6, 0.6, 0.6, 0.6, 0.6, 0.6, 0.6, 0.6, 0.6, 0.6, 0.6, 0.6, 0.6, 0.6, 0.6, 0.6, 0.6, 0.6, 0.6, 0.6, 0.6, 0.6, 0.6, 0.6, 0.6, 0.6, 0.6, 0.6, 0.6, 0.6, 0.6], "NUPDOWN": -1.0, "LSORBIT": false, "SAXIS": [0.0, 0.0, 1.0], "LSPIRAL": false, "QSPIRAL": [0.0, 0.0, 0.0], "LZEROZ": false, "LASPH": false, "LMETAGGA": false, "NELM": 100, "NELMDL": -5, "NELMIN": 6, "ENINI": 520.0, "LDIAG": true, "LSUBROT": false, "WEIMIN": 0.001, "EBREAK": 0.0, "DEPER": 0.3, "NRMM": 4, "TIME": 0.4, "AMIX": 0.4, "BMIX": 1.0, "AMIN": 0.1, "AMIX_MAG": 1.6, "BMIX_MAG": 1.0, "IMIX": 4, "MIXFIRST": false, "MAXMIX": -45, "WC": 100.0, "INIMIX": 1, "MIXPRE": 1, "MREMOVE": 5, "LDIPOL": false, "LMONO": false, "IDIPOL": 0, "EPSILON": 1.0, "DIPOL": [-100.0, -100.0, -100.0], "EFIELD": 0.0, "NGX": 54, "NGY": 54, "NGZ": 256, "NGXF": 108, "NGYF": 108, "NGZF": 512, "ADDGRID": false, "NSW": 150, "IBRION": 2, "MDALGO": 0, "ISIF": 3, "PSTRESS": 0.0, "EDIFFG": -0.01, "NFREE": 1, "POTIM": 0.5, "SMASS": -3.0, "SCALEE": 1.0, "TEBEG": 0.0001, "TEEND": 0.0001, "NBLOCK": 1, "KBLOCK": 150, "NPACO": 256, "APACO": 10.0, "ISYM": 0, "SYMPREC": 1e-05, "LORBIT": 11, "RWIGS": [-1.0, -1.0], "NEDOS": 301, "EMIN": 10.0, "EMAX": -10.0, "EFERMI": 0.0, "NWRITE": 2, "LWAVE": false, "LDOWNSAMPLE": false, "LCHARG": false, "LPARD": false, "LVTOT": false, "LVHAR": false, "LELF": false, "LOPTICS": false, "STM": [0.0, 0.0, 0.0, 0.0, 0.0, 0.0, 0.0], "NPAR": 1, "NSIM": 4, "NBLK": -1, "LPLANE": true, "LSCALAPACK": true, "LSCAAWARE": false, "LSCALU": false, "LASYNC": false, "LORBITALREAL": false, "IDIOT": 3, "PHON_NSTRUCT": -1, "LMUSIC": false, "POMASS": [22.99, 32.066], "DARWINR": [0.0, 0.0], "DARWINV": [1.0, 1.0], "LCORR": true, "GGA_COMPAT": true, "LBERRY": false, "ICORELEVEL": 0, "LDAU": false, "I_CONSTRAINED_M": 0, "GGA": "--", "VOSKOWN": 0, "LHFCALC": false, "PRECFOCK": "", "LSYMGRAD": false, "LHFONE": false, "LRHFCALC": false, "LTHOMAS": false, "LMODELHF": false, "LFOCKACE": false, "ENCUT4O": -1.0, "EXXOEP": 0, "FOURORBIT": 0, "AEXX": 0.0, "HFALPHA": 0.0, "MCALPHA": 0.0, "ALDAX": 1.0, "AGGAX": 1.0, "ALDAC": 1.0, "AGGAC": 1.0, "NKREDX": 1, "NKREDY": 1, "NKREDZ": 1, "SHIFTRED": false, "ODDONLY": false, "EVENONLY": false, "LMAXFOCK": 0, "NMAXFOCKAE": 0, "LFOCKAEDFT": false, "HFSCREEN": 0.0, "HFSCREENC": 0.0, "NBANDSGWLOW": 0, "LUSE_VDW": false, "Zab_VDW": -0.8491, "PARAM1": 0.1234, "PARAM2": 1.0, "PARAM3": 0.0, "MODEL_GW": 0, "MODEL_EPS0": 14.13453716, "MODEL_ALPHA": 1.0, "LEPSILON": false, "LRPA": false, "LNABLA": false, "LVEL": false, "CSHIFT": 0.1, "OMEGAMAX": -1.0, "DEG_THRESHOLD": 0.002, "RTIME": -0.1, "WPLASMAI": 0.0, "DFIELD": [0.0, 0.0, 0.0], "WPLASMA": [0.0, 0.0, 0.0, 0.0, 0.0, 0.0, 0.0, 0.0, 0.0], "NUCIND": false, "MAGPOS": [0.0, 0.0, 0.0], "LNICSALL": true, "ORBITALMAG": false, "LMAGBLOCH": false, "LCHIMAG": false, "LGAUGE": true, "MAGATOM": 0, "MAGDIPOL": [0.0, 0.0, 0.0], "AVECCONST": [0.0, 0.0, 0.0], "LFINITE_TEMPERATURE": false, "LADDER": false, "LRPAFORCE": false, "LFXC": false, "LHARTREE": true, "IBSE": 0, "KPOINT": [-1, 0, 0, 0], "LTCTC": false, "LTCTE": false, "LTETE": false, "LTRIPLET": false, "LFXCEPS": false, "LFXHEG": false, "NATURALO": 2, "LHOLEGF": false, "L2ORDER": false, "LDMP1": false, "LMP2LT": false, "LSMP2LT": false, "LGWLF": false, "ENCUTGW": -2.0, "ENCUTGWSOFT": -2.0, "ENCUTLF": -1.0, "LESF_SPLINES": false, "LMAXMP2": -1, "SCISSOR": 0.0, "NOMEGA": 0, "NOMEGAR": 0, "NBANDSGW": -1, "NBANDSO": -1, "NBANDSV": -1, "NELMGW": 1, "NELMHF": 1, "DIM": 3, "IESPILON": 4, "ANTIRES": 0, "OMEGAMIN": -30.0, "OMEGATL": -200.0, "OMEGAGRID": 0, "LSELFENERGY": false, "LSPECTRAL": false, "LSPECTRALGW": false, "LSINGLES": false, "LFERMIGW": false, "ODDONLYGW": false, "EVENONLYGW": false, "NKREDLFX": 1, "NKREDLFY": 1, "NKREDLFZ": 1, "MAXMEM": 2800, "TELESCOPE": 0, "NTAUPAR": -1, "NOMEGAPAR": -1, "DAMP_NEWTON": 0.80000001, "LAMBDA": 1.0, "OFIELD_KAPPA": 0.0, "OFIELD_K": [0.0, 0.0, 0.0], "OFIELD_Q6_NEAR": 0.0, "OFIELD_Q6_FAR": 0.0, "OFIELD_A": 0.0, "KPOINTS_OPT_MODE": 1, "LKPOINTS_OPT": false, "@module": "pymatgen.io.vasp.inputs", "@class": "Incar"}, "relaxed_structures": {"@module": "pymatgen.core.structure", "@class": "Structure", "charge": 0, "lattice": {"matrix": [[9.267273, 0.0, 0.0], [4.633637, 8.025694, 0.0], [0.0, 0.0, 45.62813727]], "a": 9.267273, "b": 9.267273387000353, "c": 45.62813727, "alpha": 90.0, "beta": 90.0, "gamma": 59.999997811884434, "volume": 3393.6519034073476}, "sites": [{"species": [{"element": "Na", "occu": 1}], "abc": [0.91194457, 0.04407472, 0.02162077], "xyz": [8.65546554441425, 0.35373021585568, 0.986515461443098], "label": "Na", "properties": {}}, {"species": [{"element": "Na", "occu": 1}], "abc": [0.41194475, 0.544074, 0.02162054], "xyz": [6.33864587630475, 4.366571437355999, 0.9865049669715259], "label": "Na", "properties": {}}, {"species": [{"element": "Na", "occu": 1}], "abc": [0.41194377, 0.04407469, 0.02162073], "xyz": [4.021821491586739, 0.35372997508486, 0.9865136363176072], "label": "Na", "properties": {}}, {"species": [{"element": "Na", "occu": 1}], "abc": [0.9119471, 0.54406927, 0.02162139], "xyz": [10.97228223729329, 4.36653347582338, 0.9865437508882055], "label": "Na", "properties": {}}, {"species": [{"element": "Na", "occu": 1}], "abc": [0.58049382, 0.7097811, 0.10425131], "xyz": [8.668462671613561, 5.6964859155834, 4.756793083257324], "label": "Na", "properties": {}}, {"species": [{"element": "Na", "occu": 1}], "abc": [0.24592413, 0.37708078, 0.06245772], "xyz": [4.02630150419435, 3.02633495356132, 2.8498294217312248], "label": "Na", "properties": {}}, {"species": [{"element": "Na", "occu": 1}], "abc": [0.74592345, 0.87708151, 0.06245782], "xyz": [10.97675358500372, 7.03918781231794, 2.8498339845449516], "label": "Na", "properties": {}}, {"species": [{"element": "Na", "occu": 1}], "abc": [0.08049352, 0.20978133, 0.10425133], "xyz": [1.7180059571681698, 1.6836407614930198, 4.75679399582007], "label": "Na", "properties": {}}, {"species": [{"element": "Na", "occu": 1}], "abc": [0.08049338, 0.70978104, 0.10425134], "xyz": [4.03482181599522, 5.69648543404176, 4.756794452101442], "label": "Na", "properties": {}}, {"species": [{"element": "Na", "occu": 1}], "abc": [0.74592363, 0.37708085, 0.06245769], "xyz": [8.65993369491244, 3.0263355153599, 2.8498280528871067], "label": "Na", "properties": {}}, {"species": [{"element": "Na", "occu": 1}], "abc": [0.24592374, 0.87708118, 0.06245761], "xyz": [6.34311824341268, 7.03918516383892, 2.849824402636125], "label": "Na", "properties": {}}, {"species": [{"element": "Na", "occu": 1}], "abc": [0.58049347, 0.20978118, 0.10425134], "xyz": [6.351641298758969, 1.68363955763892, 4.756794452101442], "label": "Na", "properties": {}}, {"species": [{"element": "Na", "occu": 1}], "abc": [0.249031, 0.37550361, 0.18745099], "xyz": [4.04778568339257, 3.0136770697553397, 8.553039503117398], "label": "Na", "properties": {}}, {"species": [{"element": "Na", "occu": 1}], "abc": [0.91454269, 0.04275521, 0.14591966], "xyz": [8.67342890138314, 0.34314023236574, 6.658042276871729], "label": "Na", "properties": {}}, {"species": [{"element": "Na", "occu": 1}], "abc": [0.41454274, 0.54275506, 0.14591967], "xyz": [6.35661066970124, 4.35598602851164, 6.658042733153102], "label": "Na", "properties": {}}, {"species": [{"element": "Na", "occu": 1}], "abc": [0.74903093, 0.87550366, 0.18745101], "xyz": [10.99824026636531, 7.02652447104004, 8.553040415680144], "label": "Na", "properties": {}}, {"species": [{"element": "Na", "occu": 1}], "abc": [0.74903089, 0.37550365, 0.18745101], "xyz": [8.68142134933802, 3.0136773907831, 8.553040415680144], "label": "Na", "properties": {}}, {"species": [{"element": "Na", "occu": 1}], "abc": [0.41454279, 0.04275528, 0.14591967], "xyz": [4.03979365246503, 0.34314079416432, 6.658042733153102], "label": "Na", "properties": {}}, {"species": [{"element": "Na", "occu": 1}], "abc": [0.91454286, 0.54275512, 0.14591966], "xyz": [10.990248559792219, 4.35598651005328, 6.658042276871729], "label": "Na", "properties": {}}, {"species": [{"element": "Na", "occu": 1}], "abc": [0.24903095, 0.87550364, 0.18745102], "xyz": [6.364603859038031, 7.02652431052616, 8.553040871961516], "label": "Na", "properties": {}}, {"species": [{"element": "Na", "occu": 1}], "abc": [0.9161717, 0.04193946, 0.27073284], "xyz": [8.68474549239012, 0.33659327248523996, 12.353035187016946], "label": "Na", "properties": {}}, {"species": [{"element": "Na", "occu": 1}], "abc": [0.5827178, 0.70866634, 0.22916122], "xyz": [8.68390750823798, 5.687539192939959, 10.45619960312067], "label": "Na", "properties": {}}, {"species": [{"element": "Na", "occu": 1}], "abc": [0.0827179, 0.20866627, 0.22916122], "xyz": [1.7334531106106899, 1.6746916311413798, 10.45619960312067], "label": "Na", "properties": {}}, {"species": [{"element": "Na", "occu": 1}], "abc": [0.41617185, 0.54193931, 0.27073284], "xyz": [6.36792818743552, 4.349439068631139, 12.353035187016946], "label": "Na", "properties": {}}, {"species": [{"element": "Na", "occu": 1}], "abc": [0.4161718, 0.0419394, 0.27073284], "xyz": [4.0511096410992, 0.3365927909436, 12.353035187016946], "label": "Na", "properties": {}}, {"species": [{"element": "Na", "occu": 1}], "abc": [0.0827179, 0.70866642, 0.2291612], "xyz": [4.05027230565624, 5.68753983499548, 10.456198690557926], "label": "Na", "properties": {}}, {"species": [{"element": "Na", "occu": 1}], "abc": [0.58271784, 0.20866642, 0.22916121], "xyz": [6.3670897496198595, 1.67469283499548, 10.456199146839298], "label": "Na", "properties": {}}, {"species": [{"element": "Na", "occu": 1}], "abc": [0.91617172, 0.54193941, 0.27073283], "xyz": [11.001563946053729, 4.3494398712005395, 12.353034730735574], "label": "Na", "properties": {}}, {"species": [{"element": "Na", "occu": 1}], "abc": [0.58180621, 0.70913064, 0.35402305], "xyz": [8.67761095250301, 5.69126552266416, 16.153412322144074], "label": "Na", "properties": {}}, {"species": [{"element": "Na", "occu": 1}], "abc": [0.24932773, 0.37536994, 0.31243509], "xyz": [4.04991618305207, 3.01260427523836, 14.255831174484806], "label": "Na", "properties": {}}, {"species": [{"element": "Na", "occu": 1}], "abc": [0.7493277, 0.87537008, 0.31243506], "xyz": [11.00037155374306, 7.02545239883552, 14.255829805640687], "label": "Na", "properties": {}}, {"species": [{"element": "Na", "occu": 1}], "abc": [0.0818062, 0.20913057, 0.35402307], "xyz": [1.7271555354756898, 1.6784179608655798, 16.15341323470682], "label": "Na", "properties": {}}, {"species": [{"element": "Na", "occu": 1}], "abc": [0.08180626, 0.70913084, 0.35402298], "xyz": [4.04397584259406, 5.69126712780296, 16.153409128174467], "label": "Na", "properties": {}}, {"species": [{"element": "Na", "occu": 1}], "abc": [0.74932802, 0.37537002, 0.31243512], "xyz": [8.6835557412522, 3.01260491729388, 14.255832543328925], "label": "Na", "properties": {}}, {"species": [{"element": "Na", "occu": 1}], "abc": [0.24932809, 0.87536997, 0.31243511], "xyz": [6.36673815827946, 7.02545151600918, 14.255832087047551], "label": "Na", "properties": {}}, {"species": [{"element": "Na", "occu": 1}], "abc": [0.58180612, 0.20913103, 0.35402297], "xyz": [6.360793425566869, 1.67842165268482, 16.153408671893093], "label": "Na", "properties": {}}, {"species": [{"element": "Na", "occu": 1}], "abc": [0.24590227, 0.37711078, 0.4368133], "xyz": [4.02623793071657, 3.0265757243813196, 19.930977213761693], "label": "Na", "properties": {}}, {"species": [{"element": "Na", "occu": 1}], "abc": [0.91435728, 0.04286885, 0.39607838], "xyz": [8.672237222804888, 0.3440522722319, 18.072318692319225], "label": "Na", "properties": {}}, {"species": [{"element": "Na", "occu": 1}], "abc": [0.41435728, 0.54286875, 0.39607839], "xyz": [6.35541875944119, 4.3568984696625, 18.072319148600595], "label": "Na", "properties": {}}, {"species": [{"element": "Na", "occu": 1}], "abc": [0.74590219, 0.87711093, 0.43681329], "xyz": [10.97669288438028, 7.039423928235419, 19.93097675748032], "label": "Na", "properties": {}}, {"species": [{"element": "Na", "occu": 1}], "abc": [0.74590235, 0.37711084, 0.43681328], "xyz": [8.65987545011663, 3.02657620592296, 19.93097630119895], "label": "Na", "properties": {}}, {"species": [{"element": "Na", "occu": 1}], "abc": [0.41435739, 0.04286889, 0.39607838], "xyz": [4.0386019275504, 0.34405259325966, 18.072318692319225], "label": "Na", "properties": {}}, {"species": [{"element": "Na", "occu": 1}], "abc": [0.91435743, 0.54286899, 0.39607839], "xyz": [10.98905776160502, 4.35690039582906, 18.072319148600595], "label": "Na", "properties": {}}, {"species": [{"element": "Na", "occu": 1}], "abc": [0.24590236, 0.87711077, 0.43681325], "xyz": [6.34305721843477, 7.03942264412438, 19.93097493235483], "label": "Na", "properties": {}}, {"species": [{"element": "Na", "occu": 1}], "abc": [0.57706822, 0.71150772, 0.47914653], "xyz": [8.6447172315417, 5.710343239357679, 21.862563643284176], "label": "Na", "properties": {}}, {"species": [{"element": "Na", "occu": 1}], "abc": [0.07706825, 0.21150759, 0.47914652], "xyz": [1.6942619071870801, 1.6974951960174598, 21.862563187002802], "label": "Na", "properties": {}}, {"species": [{"element": "Na", "occu": 1}], "abc": [0.07706823, 0.71150769, 0.47914651], "xyz": [4.01108068520532, 5.71034299858686, 21.86256273072143], "label": "Na", "properties": {}}, {"species": [{"element": "Na", "occu": 1}], "abc": [0.57706821, 0.21150762, 0.47914651], "xyz": [6.327898175505269, 1.69749543678828, 21.86256273072143], "label": "Na", "properties": {}}, {"species": [{"element": "Na", "occu": 1}], "abc": [0.23808886, 0.8809251, 0.52178449], "xyz": [6.28832160146748, 7.070035289519399, 23.808054335076946], "label": "Na", "properties": {}}, {"species": [{"element": "Na", "occu": 1}], "abc": [0.73808884, 0.38092521, 0.52178449], "xyz": [8.60513992582209, 3.05718917234574, 23.808054335076946], "label": "Na", "properties": {}}, {"species": [{"element": "Na", "occu": 1}], "abc": [0.73808899, 0.88092508, 0.52178456], "xyz": [10.92195921354023, 7.07003512900552, 23.80805752904655], "label": "Na", "properties": {}}, {"species": [{"element": "Na", "occu": 1}], "abc": [0.23808888, 0.38092522, 0.52178454], "xyz": [3.97150384284938, 3.05718925260268, 23.808056616483807], "label": "Na", "properties": {}}, {"species": [{"element": "Na", "occu": 1}], "abc": [0.56877746, 0.21555724, 0.60439923], "xyz": [6.269830000948459, 1.72999644772456, 27.577611032322302], "label": "Na", "properties": {}}, {"species": [{"element": "Na", "occu": 1}], "abc": [0.90401854, 0.54795078, 0.56261459], "xyz": [10.91679161562828, 4.39768528734132, 25.671055742624773], "label": "Na", "properties": {}}, {"species": [{"element": "Na", "occu": 1}], "abc": [0.40401854, 0.04795078, 0.56261457], "xyz": [3.9663366156282795, 0.38483828734132, 25.671054830062026], "label": "Na", "properties": {}}, {"species": [{"element": "Na", "occu": 1}], "abc": [0.0687775, 0.71555721, 0.60439925], "xyz": [3.9530122326302704, 5.74284320695374, 27.577611944885053], "label": "Na", "properties": {}}, {"species": [{"element": "Na", "occu": 1}], "abc": [0.0687775, 0.21555732, 0.60439924], "xyz": [1.63619424233034, 1.7299970897800798, 27.577611488603676], "label": "Na", "properties": {}}, {"species": [{"element": "Na", "occu": 1}], "abc": [0.40401864, 0.5479508, 0.5626146], "xyz": [6.283156135028319, 4.397685447855199, 25.671056198906143], "label": "Na", "properties": {}}, {"species": [{"element": "Na", "occu": 1}], "abc": [0.90401862, 0.04795085, 0.56261458], "xyz": [8.59997418136471, 0.3848388491399, 25.671055286343396], "label": "Na", "properties": {}}, {"species": [{"element": "Na", "occu": 1}], "abc": [0.56877752, 0.71555722, 0.60439923], "xyz": [8.5866489643121, 5.74284328721068, 27.577611032322302], "label": "Na", "properties": {}}, {"species": [{"element": "Na", "occu": 1}], "abc": [0.90088072, 0.54952215, 0.68745118], "xyz": [10.89499373923611, 4.4102966221221, 31.367116807463482], "label": "Na", "properties": {}}, {"species": [{"element": "Na", "occu": 1}], "abc": [0.23476547, 0.88256242, 0.64596302], "xyz": [6.265109585584851, 7.083175918819479, 29.47408934790376], "label": "Na", "properties": {}}, {"species": [{"element": "Na", "occu": 1}], "abc": [0.73476543, 0.38256251, 0.64596302], "xyz": [8.58192763192126, 3.07032964113194, 29.47408934790376], "label": "Na", "properties": {}}, {"species": [{"element": "Na", "occu": 1}], "abc": [0.40088072, 0.04952225, 0.68745121], "xyz": [3.94453920259981, 0.39745042469149994, 31.3671181763076], "label": "Na", "properties": {}}, {"species": [{"element": "Na", "occu": 1}], "abc": [0.40088091, 0.54952212, 0.6874512], "xyz": [6.261358861008869, 4.41029638135128, 31.36711772002623], "label": "Na", "properties": {}}, {"species": [{"element": "Na", "occu": 1}], "abc": [0.73476544, 0.88256247, 0.64596301], "xyz": [10.89874603924851, 7.0831763201041795, 29.474088891622387], "label": "Na", "properties": {}}, {"species": [{"element": "Na", "occu": 1}], "abc": [0.23476551, 0.38256248, 0.64596301], "xyz": [3.9482917342939903, 3.07032940036112, 29.474088891622387], "label": "Na", "properties": {}}, {"species": [{"element": "Na", "occu": 1}], "abc": [0.90088071, 0.04952234, 0.6874512], "xyz": [8.57817602695441, 0.39745114700395995, 31.36711772002623], "label": "Na", "properties": {}}, {"species": [{"element": "Na", "occu": 1}], "abc": [0.23413618, 0.88291038, 0.77059986], "xyz": [6.2608901036892, 7.085968539303719, 35.16103619232278], "label": "Na", "properties": {}}, {"species": [{"element": "Na", "occu": 1}], "abc": [0.56739694, 0.21626813, 0.72906624], "xyz": [6.26033035143343, 1.73570183333222, 33.265934477642766], "label": "Na", "properties": {}}, {"species": [{"element": "Na", "occu": 1}], "abc": [0.0673967, 0.71626816, 0.72906623], "xyz": [3.9435102662970207, 5.74854907410304, 33.265934021361396], "label": "Na", "properties": {}}, {"species": [{"element": "Na", "occu": 1}], "abc": [0.73413623, 0.38291016, 0.7705999], "xyz": [8.57770754765271, 3.07311977365104, 35.16103801744828], "label": "Na", "properties": {}}, {"species": [{"element": "Na", "occu": 1}], "abc": [0.73413616, 0.88291015, 0.77059994], "xyz": [10.894525352607229, 7.0859666933940995, 35.161039842573764], "label": "Na", "properties": {}}, {"species": [{"element": "Na", "occu": 1}], "abc": [0.06739651, 0.21626833, 0.72906624], "xyz": [1.6266907932334402, 1.73570343847102, 33.265934477642766], "label": "Na", "properties": {}}, {"species": [{"element": "Na", "occu": 1}], "abc": [0.56739697, 0.71626791, 0.72906626], "xyz": [8.57714811005148, 5.74854706767954, 33.26593539020551], "label": "Na", "properties": {}}, {"species": [{"element": "Na", "occu": 1}], "abc": [0.23413625, 0.38291013, 0.77059985], "xyz": [3.94407109398906, 3.07311953288022, 35.16103573604141], "label": "Na", "properties": {}}, {"species": [{"element": "Na", "occu": 1}], "abc": [0.56826695, 0.21584596, 0.85385106], "xyz": [6.26643678908387, 1.73231362609624, 38.95963337381501], "label": "Na", "properties": {}}, {"species": [{"element": "Na", "occu": 1}], "abc": [0.90099512, 0.54947842, 0.81227648], "xyz": [10.895851286321301, 4.40994565852348, 37.06266273063241], "label": "Na", "properties": {}}, {"species": [{"element": "Na", "occu": 1}], "abc": [0.40099428, 0.04947915, 0.81227643], "xyz": [3.9453918843669897, 0.3971045172801, 37.062660449225554], "label": "Na", "properties": {}}, {"species": [{"element": "Na", "occu": 1}], "abc": [0.06826644, 0.71584627, 0.85385115], "xyz": [3.9496154992021104, 5.74516311406138, 38.95963748034736], "label": "Na", "properties": {}}, {"species": [{"element": "Na", "occu": 1}], "abc": [0.06826688, 0.21584598, 0.85385104], "xyz": [1.6327997330475, 1.73231378661012, 38.95963246125226], "label": "Na", "properties": {}}, {"species": [{"element": "Na", "occu": 1}], "abc": [0.40099442, 0.54947919, 0.81227646], "xyz": [6.26221186713069, 4.40995183830786, 37.062661818069664], "label": "Na", "properties": {}}, {"species": [{"element": "Na", "occu": 1}], "abc": [0.90099516, 0.04947889, 0.81227641], "xyz": [8.57903533482161, 0.39710243059965994, 37.0626595366628], "label": "Na", "properties": {}}, {"species": [{"element": "Na", "occu": 1}], "abc": [0.56826695, 0.71584618, 0.85385108], "xyz": [8.58325630848401, 5.74516239174892, 38.95963428637776], "label": "Na", "properties": {}}, {"species": [{"element": "Na", "occu": 1}], "abc": [0.90426618, 0.54784755, 0.93664281], "xyz": [10.91860823276649, 4.3968567949496995, 42.73726670763853], "label": "Na", "properties": {}}, {"species": [{"element": "Na", "occu": 1}], "abc": [0.23568765, 0.88213505, 0.89589536], "xyz": [6.2716754019553, 7.0797459779747, 40.87803646563607], "label": "Na", "properties": {}}, {"species": [{"element": "Na", "occu": 1}], "abc": [0.73568755, 0.38213513, 0.89589536], "xyz": [8.58849284591896, 3.06689962003022, 40.87803646563607], "label": "Na", "properties": {}}, {"species": [{"element": "Na", "occu": 1}], "abc": [0.40426423, 0.04784592, 0.93664237], "xyz": [3.9681276087558297, 0.38399671306848, 42.73724663125813], "label": "Na", "properties": {}}, {"species": [{"element": "Na", "occu": 1}], "abc": [0.40426925, 0.54784156, 0.93664305], "xyz": [6.28497242780897, 4.396808721042639, 42.73727765839148], "label": "Na", "properties": {}}, {"species": [{"element": "Na", "occu": 1}], "abc": [0.73568554, 0.88213828, 0.89589433], "xyz": [10.90530731465678, 7.07977190096632, 40.87798946865468], "label": "Na", "properties": {}}, {"species": [{"element": "Na", "occu": 1}], "abc": [0.23568745, 0.3821349, 0.89589535], "xyz": [3.9548543534551497, 3.0668977741206, 40.878036009354695], "label": "Na", "properties": {}}, {"species": [{"element": "Na", "occu": 1}], "abc": [0.9042696, 0.04784584, 0.93664237], "xyz": [8.60181350332088, 0.38399607101295996, 42.73724663125813], "label": "Na", "properties": {}}, {"species": [{"element": "Na", "occu": 1}], "abc": [0.57307367, 0.21346232, 0.97894485], "xyz": [6.299937053059749, 1.71318326085008, 44.66742999555956], "label": "Na", "properties": {}}, {"species": [{"element": "Na", "occu": 1}], "abc": [0.07307002, 0.7134611, 0.97894426], "xyz": [3.98307957447616, 5.7260204695034, 44.66740307495857], "label": "Na", "properties": {}}, {"species": [{"element": "Na", "occu": 1}], "abc": [0.07307718, 0.21345555, 0.97894495], "xyz": [1.6663017114654899, 1.7131289269016998, 44.667434558373294], "label": "Na", "properties": {}}, {"species": [{"element": "Na", "occu": 1}], "abc": [0.5730786, 0.71346107, 0.97894429], "xyz": [8.61679544866939, 5.72602022873258, 44.667404443802695], "label": "Na", "properties": {}}, {"species": [{"element": "S", "occu": 1}], "abc": [0.57877318, 0.7106398, 0.04180043], "xyz": [8.65649593509074, 5.7033775790212005, 1.9072757579850261], "label": "S", "properties": {}}, {"species": [{"element": "S", "occu": 1}], "abc": [0.07877151, 0.71063975, 0.0418003], "xyz": [4.02284372706298, 5.7033771777365, 1.907269826327181], "label": "S", "properties": {}}, {"species": [{"element": "S", "occu": 1}], "abc": [0.57877279, 0.21063925, 0.04180053], "xyz": [6.33967127235392, 1.6905261648895, 1.9072803207987534], "label": "S", "properties": {}}, {"species": [{"element": "S", "occu": 1}], "abc": [0.07877267, 0.21063878, 0.0418007], "xyz": [1.70603148247177, 1.69052239281332, 1.9072880775820893], "label": "S", "properties": {}}, {"species": [{"element": "S", "occu": 1}], "abc": [0.24754772, 0.37624403, 0.12496321], "xyz": [4.03747056020467, 3.0196194541068198, 5.7018384995798375], "label": "S", "properties": {}}, {"species": [{"element": "S", "occu": 1}], "abc": [0.74754819, 0.37624386, 0.12496315], "xyz": [8.671110628104689, 3.01961808973884, 5.7018357618916005], "label": "S", "properties": {}}, {"species": [{"element": "S", "occu": 1}], "abc": [0.24754817, 0.87624388, 0.12496315], "xyz": [6.35429253543197, 7.032465250252719, 5.7018357618916005], "label": "S", "properties": {}}, {"species": [{"element": "S", "occu": 1}], "abc": [0.74754765, 0.87624352, 0.12496321], "xyz": [10.987922548340691, 7.03246236100288, 5.7018384995798375], "label": "S", "properties": {}}, {"species": [{"element": "S", "occu": 1}], "abc": [0.91589945, 0.04206537, 0.2082455], "xyz": [8.682805898550539, 0.33760378761677995, 9.501854259859785], "label": "S", "properties": {}}, {"species": [{"element": "S", "occu": 1}], "abc": [0.41589863, 0.04206503, 0.20824545], "xyz": [4.0491602239501, 0.33760105888082004, 9.501851978452923], "label": "S", "properties": {}}, {"species": [{"element": "S", "occu": 1}], "abc": [0.91589884, 0.54206526, 0.20824539], "xyz": [10.99961823581394, 4.35044990479044, 9.501849240764686], "label": "S", "properties": {}}, {"species": [{"element": "S", "occu": 1}], "abc": [0.41589851, 0.54206603, 0.20824541], "xyz": [6.36598224551434, 4.3504560845748195, 9.501850153327432], "label": "S", "properties": {}}, {"species": [{"element": "S", "occu": 1}], "abc": [0.58271964, 0.70865951, 0.29151716], "xyz": [8.683892912279589, 5.68748437744994, 13.301384993040553], "label": "S", "properties": {}}, {"species": [{"element": "S", "occu": 1}], "abc": [0.08271988, 0.70865941, 0.29151722], "xyz": [4.05025817306141, 5.68748357488054, 13.301387730728791], "label": "S", "properties": {}}, {"species": [{"element": "S", "occu": 1}], "abc": [0.58271968, 0.20865948, 0.29151724], "xyz": [6.367074643961399, 1.67463713667912, 13.301388643291537], "label": "S", "properties": {}}, {"species": [{"element": "S", "occu": 1}], "abc": [0.08271977, 0.20865964, 0.29151719], "xyz": [1.7334397193978899, 1.67463842079016, 13.30138636188467], "label": "S", "properties": {}}, {"species": [{"element": "S", "occu": 1}], "abc": [0.24818831, 0.37593156, 0.37483713], "xyz": [4.04195921006235, 3.01711166550264, 17.10312002153284], "label": "S", "properties": {}}, {"species": [{"element": "S", "occu": 1}], "abc": [0.74818831, 0.37593223, 0.37483719], "xyz": [8.67559881459914, 3.0171170427176195, 17.103122759221073], "label": "S", "properties": {}}, {"species": [{"element": "S", "occu": 1}], "abc": [0.24818823, 0.87593217, 0.37483719], "xyz": [6.35877979519908, 7.02996356117598, 17.103122759221073], "label": "S", "properties": {}}, {"species": [{"element": "S", "occu": 1}], "abc": [0.74818825, 0.87593216, 0.37483714], "xyz": [10.99241643420817, 7.029963480919039, 17.10312047781421], "label": "S", "properties": {}}, {"species": [{"element": "S", "occu": 1}], "abc": [0.91210466, 0.04398285, 0.4589474], "xyz": [8.656523449917628, 0.35299289534789996, 20.9409149669096], "label": "S", "properties": {}}, {"species": [{"element": "S", "occu": 1}], "abc": [0.41210471, 0.04398269, 0.4589474], "xyz": [4.022886671899359, 0.35299161123685996, 20.9409149669096], "label": "S", "properties": {}}, {"species": [{"element": "S", "occu": 1}], "abc": [0.91210467, 0.54398303, 0.45894741], "xyz": [10.97334287664502, 4.36584133997282, 20.940915423190972], "label": "S", "properties": {}}, {"species": [{"element": "S", "occu": 1}], "abc": [0.41210476, 0.54398269, 0.45894743], "xyz": [6.339705635263011, 4.3658386112368595, 20.940916335753716], "label": "S", "properties": {}}, {"species": [{"element": "S", "occu": 1}], "abc": [0.57159103, 0.21414544, 0.54200249], "xyz": [6.289362353526469, 1.7186657729353598, 24.730564014401804], "label": "S", "properties": {}}, {"species": [{"element": "S", "occu": 1}], "abc": [0.07159094, 0.21414581, 0.54200245], "xyz": [1.6557267339175898, 1.7186687424421399, 24.730562189276313], "label": "S", "properties": {}}, {"species": [{"element": "S", "occu": 1}], "abc": [0.57159081, 0.71414554, 0.54200247], "xyz": [8.60617927809011, 5.73151357550476, 24.73056310183906], "label": "S", "properties": {}}, {"species": [{"element": "S", "occu": 1}], "abc": [0.07159093, 0.7141454, 0.54200244], "xyz": [3.97254324145369, 5.7315124519076, 24.73056173299494], "label": "S", "properties": {}}, {"species": [{"element": "S", "occu": 1}], "abc": [0.90168471, 0.54911225, 0.62503754], "xyz": [10.900545206249078, 4.407006890151499, 28.51929867402312], "label": "S", "properties": {}}, {"species": [{"element": "S", "occu": 1}], "abc": [0.40168496, 0.54911224, 0.62503752], "xyz": [6.26691097673096, 4.40700680989456, 28.519297761460372], "label": "S", "properties": {}}, {"species": [{"element": "S", "occu": 1}], "abc": [0.90168489, 0.04911235, 0.62503755], "xyz": [8.58372883772192, 0.3941606927209, 28.519299130304493], "label": "S", "properties": {}}, {"species": [{"element": "S", "occu": 1}], "abc": [0.40168462, 0.04911238, 0.62503759], "xyz": [3.9500899745673195, 0.39416093349171993, 28.519300955429983], "label": "S", "properties": {}}, {"species": [{"element": "S", "occu": 1}], "abc": [0.23412384, 0.88291814, 0.70824863], "xyz": [6.2608117025635, 7.08603081868916, 32.31606571092944], "label": "S", "properties": {}}, {"species": [{"element": "S", "occu": 1}], "abc": [0.73412304, 0.88291861, 0.70824861], "xyz": [10.89444296655449, 7.08603459076534, 32.316064798366696], "label": "S", "properties": {}}, {"species": [{"element": "S", "occu": 1}], "abc": [0.23412371, 0.38291791, 0.70824862], "xyz": [3.9439909320815, 3.0731819727795395, 32.316065254648066], "label": "S", "properties": {}}, {"species": [{"element": "S", "occu": 1}], "abc": [0.73412302, 0.38291851, 0.7082487], "xyz": [8.577623817845328, 3.07318678819594, 32.31606890489905], "label": "S", "properties": {}}, {"species": [{"element": "S", "occu": 1}], "abc": [0.56769134, 0.21614118, 0.79139665], "xyz": [6.26247039638748, 1.7346829714789198, 36.10995498121815], "label": "S", "properties": {}}, {"species": [{"element": "S", "occu": 1}], "abc": [0.06769069, 0.21614194, 0.79139666], "xyz": [1.6288313942241501, 1.73468907100636, 36.10995543749952], "label": "S", "properties": {}}, {"species": [{"element": "S", "occu": 1}], "abc": [0.56769124, 0.71614123, 0.79139673], "xyz": [8.57928820134203, 5.747530372763619, 36.10995863146913], "label": "S", "properties": {}}, {"species": [{"element": "S", "occu": 1}], "abc": [0.06769135, 0.71614143, 0.79139676], "xyz": [3.9456536474694603, 5.74753197790242, 36.10996000031325], "label": "S", "properties": {}}, {"species": [{"element": "S", "occu": 1}], "abc": [0.90179199, 0.54909167, 0.87466108], "xyz": [10.90144403904706, 4.40684172136898, 39.909155822966454], "label": "S", "properties": {}}, {"species": [{"element": "S", "occu": 1}], "abc": [0.40179168, 0.54909171, 0.87466117], "xyz": [6.26780485153791, 4.40684204239674, 39.909159929498806], "label": "S", "properties": {}}, {"species": [{"element": "S", "occu": 1}], "abc": [0.90179258, 0.04909255, 0.87466084], "xyz": [8.58463508433869, 0.3940017839797, 39.90914487221351], "label": "S", "properties": {}}, {"species": [{"element": "S", "occu": 1}], "abc": [0.40179065, 0.04909266, 0.87466074], "xyz": [3.95098120820187, 0.39400266680604, 39.90914030939979], "label": "S", "properties": {}}, {"species": [{"element": "S", "occu": 1}], "abc": [0.23824648, 0.8808054, 0.95876271], "xyz": [6.289227662688839, 7.069074613947599, 43.746556541237204], "label": "S", "properties": {}}, {"species": [{"element": "S", "occu": 1}], "abc": [0.73823644, 0.88084417, 0.95876113], "xyz": [10.92295076537441, 7.06938577010398, 43.746484448780315], "label": "S", "properties": {}}, {"species": [{"element": "S", "occu": 1}], "abc": [0.2382432, 0.38080962, 0.95876278], "xyz": [3.97239831998154, 3.05626148237628, 43.746559735206816], "label": "S", "properties": {}}, {"species": [{"element": "S", "occu": 1}], "abc": [0.73824733, 0.38080825, 0.95876276], "xyz": [8.606066745736339, 3.0562504871755, 43.74655882264407], "label": "S", "properties": {}}]}, "formula": "(Na2S)48.0", "bandgap": 2.3253999999999997}