{"miller": "110_0.17", "final_energy": -657.93599074, "sigma": -0.002639441784655553, "incar_parameters": {"SYSTEM": "unknown system", "LCOMPAT": false, "PREC": "accura", "ENMAX": 520.0, "ENAUG": 368.056, "EDIFF": 1e-05, "IALGO": 38, "IWAVPR": 11, "NBANDS": 600, "NBANDSLOW": -1, "NBANDSHIGH": -1, "NELECT": 1000.0, "TURBO": 0, "IRESTART": 0, "NREBOOT": 0, "NMIN": 0, "EREF": 0.0, "ISMEAR": 0, "SIGMA": 0.05, "KSPACING": 0.5, "KGAMMA": true, "KBLOWUP": true, "LREAL": true, "ROPT": [-0.00025, -0.00025, -0.00025], "LMAXPAW": -100, "LMAXMIX": 2, "NLSPLINE": false, "ISTART": 0, "ICHARG": 2, "INIWAV": 1, "ISPIN": 1, "LNONCOLLINEAR": false, "MAGMOM": [0.6, 0.6, 0.6, 0.6, 0.6, 0.6, 0.6, 0.6, 0.6, 0.6, 0.6, 0.6, 0.6, 0.6, 0.6, 0.6, 0.6, 0.6, 0.6, 0.6, 0.6, 0.6, 0.6, 0.6, 0.6, 0.6, 0.6, 0.6, 0.6, 0.6, 0.6, 0.6, 0.6, 0.6, 0.6, 0.6, 0.6, 0.6, 0.6, 0.6, 0.6, 0.6, 0.6, 0.6, 0.6, 0.6, 0.6, 0.6, 0.6, 0.6, 0.6, 0.6, 0.6, 0.6, 0.6, 0.6, 0.6, 0.6, 0.6, 0.6, 0.6, 0.6, 0.6, 0.6, 0.6, 0.6, 0.6, 0.6, 0.6, 0.6, 0.6, 0.6, 0.6, 0.6, 0.6, 0.6, 0.6, 0.6, 0.6, 0.6, 0.6, 0.6, 0.6, 0.6, 0.6, 0.6, 0.6, 0.6, 0.6, 0.6, 0.6, 0.6, 0.6, 0.6, 0.6, 0.6, 0.6, 0.6, 0.6, 0.6, 0.6, 0.6, 0.6, 0.6, 0.6, 0.6, 0.6, 0.6, 0.6, 0.6, 0.6, 0.6, 0.6, 0.6, 0.6, 0.6, 0.6, 0.6, 0.6, 0.6, 0.6, 0.6, 0.6, 0.6, 0.6, 0.6, 0.6, 0.6, 0.6, 0.6, 0.6, 0.6, 0.6, 0.6, 0.6, 0.6, 0.6, 0.6, 0.6, 0.6, 0.6, 0.6, 0.6, 0.6, 0.6, 0.6, 0.6, 0.6, 0.6, 0.6, 0.6, 0.6, 0.6, 0.6, 0.6, 0.6, 0.6, 0.6, 0.6, 0.6], "NUPDOWN": -1.0, "LSORBIT": false, "SAXIS": [0.0, 0.0, 1.0], "LSPIRAL": false, "QSPIRAL": [0.0, 0.0, 0.0], "LZEROZ": false, "LASPH": false, "LMETAGGA": false, "NELM": 100, "NELMDL": -5, "NELMIN": 6, "ENINI": 520.0, "LDIAG": true, "LSUBROT": false, "WEIMIN": 0.001, "EBREAK": 0.0, "DEPER": 0.3, "NRMM": 4, "TIME": 0.4, "AMIX": 0.4, "BMIX": 1.0, "AMIN": 0.1, "AMIX_MAG": 1.6, "BMIX_MAG": 1.0, "IMIX": 4, "MIXFIRST": false, "MAXMIX": -45, "WC": 100.0, "INIMIX": 1, "MIXPRE": 1, "MREMOVE": 5, "LDIPOL": false, "LMONO": false, "IDIPOL": 0, "EPSILON": 1.0, "DIPOL": [-100.0, -100.0, -100.0], "EFIELD": 0.0, "NGX": 54, "NGY": 80, "NGZ": 378, "NGXF": 108, "NGYF": 160, "NGZF": 756, "ADDGRID": false, "NSW": 150, "IBRION": 2, "MDALGO": 0, "ISIF": 3, "PSTRESS": 0.0, "EDIFFG": -0.01, "NFREE": 1, "POTIM": 0.5, "SMASS": -3.0, "SCALEE": 1.0, "TEBEG": 0.0001, "TEEND": 0.0001, "NBLOCK": 1, "KBLOCK": 150, "NPACO": 256, "APACO": 10.0, "ISYM": 0, "SYMPREC": 1e-05, "LORBIT": 11, "RWIGS": [-1.0, -1.0, -1.0], "NEDOS": 301, "EMIN": 10.0, "EMAX": -10.0, "EFERMI": 0.0, "NWRITE": 2, "LWAVE": false, "LDOWNSAMPLE": false, "LCHARG": false, "LPARD": false, "LVTOT": false, "LVHAR": false, "LELF": false, "LOPTICS": false, "STM": [0.0, 0.0, 0.0, 0.0, 0.0, 0.0, 0.0], "NPAR": 1, "NSIM": 4, "NBLK": -1, "LPLANE": true, "LSCALAPACK": true, "LSCAAWARE": false, "LSCALU": false, "LASYNC": false, "LORBITALREAL": false, "IDIOT": 3, "PHON_NSTRUCT": -1, "LMUSIC": false, "POMASS": [22.99, 30.974, 32.066], "DARWINR": [0.0, 0.0, 0.0], "DARWINV": [1.0, 1.0, 1.0], "LCORR": true, "GGA_COMPAT": true, "LBERRY": false, "ICORELEVEL": 0, "LDAU": false, "I_CONSTRAINED_M": 0, "GGA": "--", "VOSKOWN": 0, "LHFCALC": false, "PRECFOCK": "", "LSYMGRAD": false, "LHFONE": false, "LRHFCALC": false, "LTHOMAS": false, "LMODELHF": false, "LFOCKACE": false, "ENCUT4O": -1.0, "EXXOEP": 0, "FOURORBIT": 0, "AEXX": 0.0, "HFALPHA": 0.0, "MCALPHA": 0.0, "ALDAX": 1.0, "AGGAX": 1.0, "ALDAC": 1.0, "AGGAC": 1.0, "NKREDX": 1, "NKREDY": 1, "NKREDZ": 1, "SHIFTRED": false, "ODDONLY": false, "EVENONLY": false, "LMAXFOCK": 0, "NMAXFOCKAE": 0, "LFOCKAEDFT": false, "HFSCREEN": 0.0, "HFSCREENC": 0.0, "NBANDSGWLOW": 0, "LUSE_VDW": false, "Zab_VDW": -0.8491, "PARAM1": 0.1234, "PARAM2": 1.0, "PARAM3": 0.0, "MODEL_GW": 0, "MODEL_EPS0": 13.29386545, "MODEL_ALPHA": 1.0, "LEPSILON": false, "LRPA": false, "LNABLA": false, "LVEL": false, "CSHIFT": 0.1, "OMEGAMAX": -1.0, "DEG_THRESHOLD": 0.002, "RTIME": -0.1, "WPLASMAI": 0.0, "DFIELD": [0.0, 0.0, 0.0], "WPLASMA": [0.0, 0.0, 0.0, 0.0, 0.0, 0.0, 0.0, 0.0, 0.0], "NUCIND": false, "MAGPOS": [0.0, 0.0, 0.0], "LNICSALL": true, "ORBITALMAG": false, "LMAGBLOCH": false, "LCHIMAG": false, "LGAUGE": true, "MAGATOM": 0, "MAGDIPOL": [0.0, 0.0, 0.0], "AVECCONST": [0.0, 0.0, 0.0], "LFINITE_TEMPERATURE": false, "LADDER": false, "LRPAFORCE": false, "LFXC": false, "LHARTREE": true, "IBSE": 0, "KPOINT": [-1, 0, 0, 0], "LTCTC": false, "LTCTE": false, "LTETE": false, "LTRIPLET": false, "LFXCEPS": false, "LFXHEG": false, "NATURALO": 2, "LHOLEGF": false, "L2ORDER": false, "LDMP1": false, "LMP2LT": false, "LSMP2LT": false, "LGWLF": false, "ENCUTGW": -2.0, "ENCUTGWSOFT": -2.0, "ENCUTLF": -1.0, "LESF_SPLINES": false, "LMAXMP2": -1, "SCISSOR": 0.0, "NOMEGA": 0, "NOMEGAR": 0, "NBANDSGW": -1, "NBANDSO": -1, "NBANDSV": -1, "NELMGW": 1, "NELMHF": 1, "DIM": 3, "IESPILON": 4, "ANTIRES": 0, "OMEGAMIN": -30.0, "OMEGATL": -200.0, "OMEGAGRID": 0, "LSELFENERGY": false, "LSPECTRAL": false, "LSPECTRALGW": false, "LSINGLES": false, "LFERMIGW": false, "ODDONLYGW": false, "EVENONLYGW": false, "NKREDLFX": 1, "NKREDLFY": 1, "NKREDLFZ": 1, "MAXMEM": 2800, "TELESCOPE": 0, "NTAUPAR": -1, "NOMEGAPAR": -1, "DAMP_NEWTON": 0.80000001, "LAMBDA": 1.0, "OFIELD_KAPPA": 0.0, "OFIELD_K": [0.0, 0.0, 0.0], "OFIELD_Q6_NEAR": 0.0, "OFIELD_Q6_FAR": 0.0, "OFIELD_A": 0.0, "KPOINTS_OPT_MODE": 1, "LKPOINTS_OPT": false, "@module": "pymatgen.io.vasp.inputs", "@class": "Incar"}, "relaxed_structures": {"@module": "pymatgen.core.structure", "@class": "Structure", "charge": 0, "lattice": {"matrix": [[7.049423, 0.0, 0.0], [0.0, 9.96939, 0.0], [0.0, 0.0, 50.44264536]], "a": 7.049423, "b": 9.96939, "c": 50.44264536, "alpha": 90.0, "beta": 90.0, "gamma": 90.0, "volume": 3545.0307866427515}, "sites": [{"species": [{"element": "Na", "occu": 1}], "abc": [0.36274401, 0.35950656, 0.05307231], "xyz": [2.55713596720623, 3.5840611041984, 2.6771077117659816], "label": "Na", "properties": {}}, {"species": [{"element": "Na", "occu": 1}], "abc": [0.86234569, 0.79468489, 0.04670981], "xyz": [6.07903954103687, 7.9225235955171005, 2.3561663806629816], "label": "Na", "properties": {}}, {"species": [{"element": "Na", "occu": 1}], "abc": [0.48824151, 0.03736992, 0.99988136], "xyz": [3.44182093014873, 0.37255530674880005, 50.436660844554495], "label": "Na", "properties": {}}, {"species": [{"element": "Na", "occu": 1}], "abc": [0.50387301, 0.61098941, 0.00265524], "xyz": [3.55201398577323, 6.0911917141599, 0.13393732966568642], "label": "Na", "properties": {}}, {"species": [{"element": "Na", "occu": 1}], "abc": [0.36331863, 0.87140222, 0.15633865], "xyz": [2.56118670665049, 8.6873485780458, 7.886135078011164], "label": "Na", "properties": {}}, {"species": [{"element": "Na", "occu": 1}], "abc": [0.82169101, 0.05685075, 0.09578547], "xyz": [5.79244750478723, 0.5667672985425001, 4.8316724938509195], "label": "Na", "properties": {}}, {"species": [{"element": "Na", "occu": 1}], "abc": [0.85753249, 0.5776679, 0.10394478], "xyz": [6.0451092582532695, 5.758996585581, 5.243249674563221], "label": "Na", "properties": {}}, {"species": [{"element": "Na", "occu": 1}], "abc": [0.8624343, 0.30638075, 0.14851396], "xyz": [6.0796641904088995, 3.0544291852425, 7.491437015289225], "label": "Na", "properties": {}}, {"species": [{"element": "Na", "occu": 1}], "abc": [0.35434291, 0.61385256, 0.10909943], "xyz": [2.49791305964093, 6.1197355731384, 5.503263856468145], "label": "Na", "properties": {}}, {"species": [{"element": "Na", "occu": 1}], "abc": [0.3170052, 0.09441689, 0.09898971], "xyz": [2.2347037479995997, 0.9412787989971001, 4.993302835819246], "label": "Na", "properties": {}}, {"species": [{"element": "Na", "occu": 1}], "abc": [0.37067192, 0.34173881, 0.25311416], "xyz": [2.61302315830216, 3.4069274750259004, 12.767747808474297], "label": "Na", "properties": {}}, {"species": [{"element": "Na", "occu": 1}], "abc": [0.80381036, 0.57984368, 0.19809246], "xyz": [5.6663992394222795, 5.7806877849552, 9.992307708269985], "label": "Na", "properties": {}}, {"species": [{"element": "Na", "occu": 1}], "abc": [0.95463003, 0.09346181, 0.20078783], "xyz": [6.72959088997269, 0.9317572339959002, 10.128269301293969], "label": "Na", "properties": {}}, {"species": [{"element": "Na", "occu": 1}], "abc": [0.87068479, 0.84127071, 0.24691414], "xyz": [6.13782538437617, 8.3869558035669, 12.455002398389391], "label": "Na", "properties": {}}, {"species": [{"element": "Na", "occu": 1}], "abc": [0.45316659, 0.10169229, 0.20300615], "xyz": [3.19456298237757, 1.0138100990031, 10.240167230348964], "label": "Na", "properties": {}}, {"species": [{"element": "Na", "occu": 1}], "abc": [0.30227555, 0.58950177, 0.19981408], "xyz": [2.13086821450765, 5.8769730508203, 10.07915077537467], "label": "Na", "properties": {}}, {"species": [{"element": "Na", "occu": 1}], "abc": [0.36282555, 0.80649137, 0.35155459], "xyz": [2.55771077715765, 8.0402269991643, 17.733343508050204], "label": "Na", "properties": {}}, {"species": [{"element": "Na", "occu": 1}], "abc": [0.80273815, 0.08939379, 0.30016327], "xyz": [5.65884077758745, 0.8912015560881, 15.141029378707927], "label": "Na", "properties": {}}, {"species": [{"element": "Na", "occu": 1}], "abc": [0.95347428, 0.60154687, 0.29702452], "xyz": [6.72144351934044, 5.9970553503093, 14.982702525584228], "label": "Na", "properties": {}}, {"species": [{"element": "Na", "occu": 1}], "abc": [0.86360688, 0.37132186, 0.34366172], "xyz": [6.08793020283024, 3.7018524378654, 17.33520626576762], "label": "Na", "properties": {}}, {"species": [{"element": "Na", "occu": 1}], "abc": [0.45482655, 0.59364221, 0.29924507], "xyz": [3.20626474258065, 5.9182507119519, 15.094712941738376], "label": "Na", "properties": {}}, {"species": [{"element": "Na", "occu": 1}], "abc": [0.30417595, 0.07983709, 0.30191679], "xyz": [2.1442649379768497, 0.7959270866751, 15.229481566199594], "label": "Na", "properties": {}}, {"species": [{"element": "Na", "occu": 1}], "abc": [0.36301875, 0.29443168, 0.45333909], "xyz": [2.55907272568125, 2.9353042462751997, 22.86762294469512], "label": "Na", "properties": {}}, {"species": [{"element": "Na", "occu": 1}], "abc": [0.8179338, 0.59423445, 0.4010106], "xyz": [5.7659613421974, 5.9241549834855, 20.228035481400816], "label": "Na", "properties": {}}, {"species": [{"element": "Na", "occu": 1}], "abc": [0.85442145, 0.11381829, 0.39090356], "xyz": [6.0231782213233505, 1.1346989221431, 19.71820964704148], "label": "Na", "properties": {}}, {"species": [{"element": "Na", "occu": 1}], "abc": [0.86355352, 0.85938214, 0.44690609], "xyz": [6.08755404561896, 8.5675157126946, 22.54312540709424], "label": "Na", "properties": {}}, {"species": [{"element": "Na", "occu": 1}], "abc": [0.35750188, 0.07761636, 0.39607156], "xyz": [2.52018197541524, 0.7737877632204, 19.97889723826196], "label": "Na", "properties": {}}, {"species": [{"element": "Na", "occu": 1}], "abc": [0.32274965, 0.55655096, 0.4042591], "xyz": [2.27519880595195, 5.548473575114401, 20.391898414852776], "label": "Na", "properties": {}}, {"species": [{"element": "Na", "occu": 1}], "abc": [0.00503939, 0.11071177, 0.4973015], "xyz": [0.03552479177197, 1.1037288127203, 25.08520320149604], "label": "Na", "properties": {}}, {"species": [{"element": "Na", "occu": 1}], "abc": [0.98894519, 0.53716818, 0.50011712], "xyz": [6.971492968125371, 5.3552390820102005, 25.227230522624563], "label": "Na", "properties": {}}, {"species": [{"element": "Na", "occu": 1}], "abc": [0.63694202, 0.26658839, 0.55314766], "xyz": [4.49007372545446, 2.6577236293821, 27.90223124509386], "label": "Na", "properties": {}}, {"species": [{"element": "Na", "occu": 1}], "abc": [0.13703111, 0.83048379, 0.54652681], "xyz": [0.9659902585495301, 8.279416791188101, 27.568258056562104], "label": "Na", "properties": {}}, {"species": [{"element": "Na", "occu": 1}], "abc": [0.50378909, 0.58934653, 0.49981188], "xyz": [3.5514223981950703, 5.875425402716701, 25.211833409554878], "label": "Na", "properties": {}}, {"species": [{"element": "Na", "occu": 1}], "abc": [0.49533732, 0.01547815, 0.5026362], "xyz": [3.49184229636636, 0.1543077138285, 25.35429958169803], "label": "Na", "properties": {}}, {"species": [{"element": "Na", "occu": 1}], "abc": [0.63721032, 0.75345887, 0.65642513], "xyz": [4.49196508564536, 7.511525323989301, 33.1118200379819], "label": "Na", "properties": {}}, {"species": [{"element": "Na", "occu": 1}], "abc": [0.17922733, 0.56819325, 0.59574215], "xyz": [1.26344926233059, 5.6645401046175, 30.05080999845392], "label": "Na", "properties": {}}, {"species": [{"element": "Na", "occu": 1}], "abc": [0.14114048, 0.04662828, 0.6037326], "xyz": [0.9949589459430401, 0.46485550834920003, 30.453869434070732], "label": "Na", "properties": {}}, {"species": [{"element": "Na", "occu": 1}], "abc": [0.13821852, 0.31801804, 0.64826663], "xyz": [0.9743608139139601, 3.1704458677956002, 32.70028371581233], "label": "Na", "properties": {}}, {"species": [{"element": "Na", "occu": 1}], "abc": [0.64440875, 0.01123324, 0.60905316], "xyz": [4.5427098636512495, 0.1119885505236, 30.722252555267335], "label": "Na", "properties": {}}, {"species": [{"element": "Na", "occu": 1}], "abc": [0.68449124, 0.53133819, 0.59910111], "xyz": [4.8252682905545194, 5.297117638004101, 30.22024482651235], "label": "Na", "properties": {}}, {"species": [{"element": "Na", "occu": 1}], "abc": [0.63019841, 0.28293198, 0.75328383], "xyz": [4.4425351660174295, 2.8206592520922005, 37.997629092112525], "label": "Na", "properties": {}}, {"species": [{"element": "Na", "occu": 1}], "abc": [0.19671514, 0.04505508, 0.69802322], "xyz": [1.38672823236422, 0.4491716640012, 35.210137739505264], "label": "Na", "properties": {}}, {"species": [{"element": "Na", "occu": 1}], "abc": [0.04627058, 0.53069892, 0.70066117], "xyz": [0.32618089087533997, 5.2907445060588, 35.34320291583268], "label": "Na", "properties": {}}, {"species": [{"element": "Na", "occu": 1}], "abc": [0.13023854, 0.78294049, 0.74670133], "xyz": [0.9181065593624201, 7.805439091601101, 37.665590379030334], "label": "Na", "properties": {}}, {"species": [{"element": "Na", "occu": 1}], "abc": [0.54815329, 0.52239576, 0.70304005], "xyz": [3.86416441005167, 5.2079670657864, 35.46319991602667], "label": "Na", "properties": {}}, {"species": [{"element": "Na", "occu": 1}], "abc": [0.69817688, 0.03557464, 0.69987594], "xyz": [4.92174415594024, 0.3546574602696, 35.303593837416635], "label": "Na", "properties": {}}, {"species": [{"element": "Na", "occu": 1}], "abc": [0.63778702, 0.81814111, 0.85180287], "xyz": [4.49603048788946, 8.1563678006229, 42.967190088040184], "label": "Na", "properties": {}}, {"species": [{"element": "Na", "occu": 1}], "abc": [0.19790718, 0.5355608, 0.80010392], "xyz": [1.39513142655714, 5.3392144839119995, 40.35935828770581], "label": "Na", "properties": {}}, {"species": [{"element": "Na", "occu": 1}], "abc": [0.04814469, 0.02240573, 0.79692633], "xyz": [0.33939228501387, 0.2233714606047, 40.199072242236326], "label": "Na", "properties": {}}, {"species": [{"element": "Na", "occu": 1}], "abc": [0.1368462, 0.25350049, 0.84356292], "xyz": [0.9646867497426, 2.5272452500011005, 42.551545212406054], "label": "Na", "properties": {}}, {"species": [{"element": "Na", "occu": 1}], "abc": [0.54630397, 0.03064535, 0.79932517], "xyz": [3.8511277711093097, 0.3055154458365, 40.32007607763171], "label": "Na", "properties": {}}, {"species": [{"element": "Na", "occu": 1}], "abc": [0.69629508, 0.54523069, 0.80197354], "xyz": [4.90847855173884, 5.4356173885791, 40.45366686632377], "label": "Na", "properties": {}}, {"species": [{"element": "Na", "occu": 1}], "abc": [0.63609136, 0.33079066, 0.95349195], "xyz": [4.48407706328528, 3.2977810978974005, 48.09665628746485], "label": "Na", "properties": {}}, {"species": [{"element": "Na", "occu": 1}], "abc": [0.18317983, 0.03135036, 0.900913], "xyz": [1.29131210673809, 0.31254396548040003, 45.44443495921368], "label": "Na", "properties": {}}, {"species": [{"element": "Na", "occu": 1}], "abc": [0.14384899, 0.51134295, 0.89095092], "xyz": [1.01405237863277, 5.0977772923005, 44.94192129072573], "label": "Na", "properties": {}}, {"species": [{"element": "Na", "occu": 1}], "abc": [0.13609743, 0.76668588, 0.94685332], "xyz": [0.95940835328289, 7.643390545213201, 47.7617862286986], "label": "Na", "properties": {}}, {"species": [{"element": "Na", "occu": 1}], "abc": [0.64084252, 0.54666274, 0.89624854], "xyz": [4.51756999986596, 5.449894053528601, 45.209147257637774], "label": "Na", "properties": {}}, {"species": [{"element": "Na", "occu": 1}], "abc": [0.67796153, 0.06858579, 0.90427532], "xyz": [4.77923760269719, 0.6837584889681, 45.61403927456052], "label": "Na", "properties": {}}, {"species": [{"element": "Na", "occu": 1}], "abc": [0.99417349, 0.51582766, 0.99736618], "xyz": [7.00834946639627, 5.1424871153274, 50.309788511797926], "label": "Na", "properties": {}}, {"species": [{"element": "Na", "occu": 1}], "abc": [0.00304846, 0.08972717, 0.00024051], "xyz": [0.021489884038579998, 0.8945251513263001, 0.0121319606355336], "label": "Na", "properties": {}}, {"species": [{"element": "P", "occu": 1}], "abc": [0.86227325, 0.33202118, 0.05193681], "xyz": [6.0785288808347495, 3.3100486316802007, 2.6198300879597016], "label": "P", "properties": {}}, {"species": [{"element": "P", "occu": 1}], "abc": [0.35979584, 0.8246222, 0.05307172], "xyz": [2.53635306980032, 8.220980314458, 2.677077950605219], "label": "P", "properties": {}}, {"species": [{"element": "P", "occu": 1}], "abc": [0.86254203, 0.84418813, 0.15171409], "xyz": [6.08042362474869, 8.416040701340702, 7.652860037985122], "label": "P", "properties": {}}, {"species": [{"element": "P", "occu": 1}], "abc": [0.3616721, 0.33232241, 0.15107206], "xyz": [2.5495796201983, 3.3130517110299005, 7.620474346384642], "label": "P", "properties": {}}, {"species": [{"element": "P", "occu": 1}], "abc": [0.87296749, 0.34129846, 0.25041393], "xyz": [6.153917102258269, 3.4025374541394005, 12.631541064193865], "label": "P", "properties": {}}, {"species": [{"element": "P", "occu": 1}], "abc": [0.37291767, 0.84123546, 0.24959081], "xyz": [2.62885440000441, 8.3866043825694, 12.590020713945142], "label": "P", "properties": {}}, {"species": [{"element": "P", "occu": 1}], "abc": [0.86209415, 0.83229156, 0.34893437], "xyz": [6.07726632917545, 8.297439155348401, 17.601172679825023], "label": "P", "properties": {}}, {"species": [{"element": "P", "occu": 1}], "abc": [0.36282453, 0.3441266, 0.34829338], "xyz": [2.55770358674619, 3.4307322847740003, 17.568839448575716], "label": "P", "properties": {}}, {"species": [{"element": "P", "occu": 1}], "abc": [0.86041315, 0.32451685, 0.44694201], "xyz": [6.06541624911245, 3.2352350392215006, 22.544937306915575], "label": "P", "properties": {}}, {"species": [{"element": "P", "occu": 1}], "abc": [0.36304503, 0.83176265, 0.44807594], "xyz": [2.55925798451769, 8.292166245283502, 22.602135735768638], "label": "P", "properties": {}}, {"species": [{"element": "P", "occu": 1}], "abc": [0.13748185, 0.2933197, 0.55185635], "xyz": [0.9691677154725499, 2.9242184839830005, 27.837094152714037], "label": "P", "properties": {}}, {"species": [{"element": "P", "occu": 1}], "abc": [0.63978836, 0.80057366, 0.55301774], "xyz": [4.5101387801162796, 7.9812310402674, 27.89567773660869], "label": "P", "properties": {}}, {"species": [{"element": "P", "occu": 1}], "abc": [0.13773587, 0.78064256, 0.65168334], "xyz": [0.9709584099030101, 7.7825301312384, 32.872631606640304], "label": "P", "properties": {}}, {"species": [{"element": "P", "occu": 1}], "abc": [0.6389026, 0.29230174, 0.65101987], "xyz": [4.5038946831998, 2.9140700437386, 32.8391644247233], "label": "P", "properties": {}}, {"species": [{"element": "P", "occu": 1}], "abc": [0.12790192, 0.28338416, 0.75040521], "xyz": [0.90163473659216, 2.8251672108624, 37.85242388432633], "label": "P", "properties": {}}, {"species": [{"element": "P", "occu": 1}], "abc": [0.62794614, 0.78337223, 0.74956134], "xyz": [4.42665796207722, 7.8097432760397005, 37.80985684918638], "label": "P", "properties": {}}, {"species": [{"element": "P", "occu": 1}], "abc": [0.13852703, 0.79230524, 0.84896206], "xyz": [0.9765356314036899, 7.8987999366036, 42.82389211667504], "label": "P", "properties": {}}, {"species": [{"element": "P", "occu": 1}], "abc": [0.63743801, 0.28067957, 0.84830297], "xyz": [4.49357016876823, 2.7982040983623, 42.79064587354472], "label": "P", "properties": {}}, {"species": [{"element": "P", "occu": 1}], "abc": [0.13901847, 0.30081205, 0.94699665], "xyz": [0.97999999984281, 2.9989126431495, 47.76901617305804], "label": "P", "properties": {}}, {"species": [{"element": "P", "occu": 1}], "abc": [0.63667801, 0.79360789, 0.94809677], "xyz": [4.48821260728823, 7.911786562487101, 47.82450913607149], "label": "P", "properties": {}}, {"species": [{"element": "S", "occu": 1}], "abc": [0.6983897, 0.32501773, 0.01744094], "xyz": [4.9232444141431, 3.2402285072847, 0.8797671511650383], "label": "S", "properties": {}}, {"species": [{"element": "S", "occu": 1}], "abc": [0.01929973, 0.50683057, 0.05222377], "xyz": [0.13605196055579, 5.0527916162523, 2.634305109472207], "label": "S", "properties": {}}, {"species": [{"element": "S", "occu": 1}], "abc": [0.04368706, 0.16951635, 0.05274117], "xyz": [0.30796856556638, 1.6899746045265003, 2.660404134181471], "label": "S", "properties": {}}, {"species": [{"element": "S", "occu": 1}], "abc": [0.21808691, 0.82245541, 0.01693592], "xyz": [1.53738687935293, 8.1993787398999, 0.8542926064053312], "label": "S", "properties": {}}, {"species": [{"element": "S", "occu": 1}], "abc": [0.54073221, 0.98767954, 0.05369488], "xyz": [3.8118500780148303, 9.8465625292806, 2.7085117894877566], "label": "S", "properties": {}}, {"species": [{"element": "S", "occu": 1}], "abc": [0.51877053, 0.65134127, 0.05699484], "xyz": [3.6570329059041895, 6.4934751437253, 2.8749705014699423], "label": "S", "properties": {}}, {"species": [{"element": "S", "occu": 1}], "abc": [0.67644769, 0.82352798, 0.1204055], "xyz": [4.7685659041828705, 8.210071608532202, 6.07357193589348], "label": "S", "properties": {}}, {"species": [{"element": "S", "occu": 1}], "abc": [0.02255292, 0.01576681, 0.14650706], "xyz": [0.15898507296516, 0.15718547794590002, 7.390203670316241], "label": "S", "properties": {}}, {"species": [{"element": "S", "occu": 1}], "abc": [0.69011903, 0.32689417, 0.08491336], "xyz": [4.86494096281969, 3.2589354694563, 4.283254504806009], "label": "S", "properties": {}}, {"species": [{"element": "S", "occu": 1}], "abc": [0.03899245, 0.67771239, 0.153026], "xyz": [0.27487427385635, 6.756379123742101, 7.71903624885936], "label": "S", "properties": {}}, {"species": [{"element": "S", "occu": 1}], "abc": [0.19388168, 0.35268323, 0.11772336], "xyz": [1.36675397427064, 3.5160366663297005, 5.938277699067609], "label": "S", "properties": {}}, {"species": [{"element": "S", "occu": 1}], "abc": [0.54131001, 0.4966262, 0.15364542], "xyz": [3.81592323462423, 4.951060272018, 7.750281432248252], "label": "S", "properties": {}}, {"species": [{"element": "S", "occu": 1}], "abc": [0.16911761, 0.8362552, 0.08394561], "xyz": [1.19218156963903, 8.336954228328, 4.234438634758869], "label": "S", "properties": {}}, {"species": [{"element": "S", "occu": 1}], "abc": [0.52010827, 0.15889798, 0.14806095], "xyz": [3.6664632010282103, 1.5841159328322, 7.468585992514692], "label": "S", "properties": {}}, {"species": [{"element": "S", "occu": 1}], "abc": [0.69749039, 0.32399034, 0.21776805], "xyz": [4.91690479754497, 3.2299860556926, 10.984796516888748], "label": "S", "properties": {}}, {"species": [{"element": "S", "occu": 1}], "abc": [0.04029327, 0.50962536, 0.24558041], "xyz": [0.28404430428321, 5.080653967730401, 12.387725528993398], "label": "S", "properties": {}}, {"species": [{"element": "S", "occu": 1}], "abc": [0.71297133, 0.85704353, 0.18685996], "xyz": [5.02603649204259, 8.5442011975467, 9.425710694263785], "label": "S", "properties": {}}, {"species": [{"element": "S", "occu": 1}], "abc": [0.03813119, 0.17131057, 0.25386763], "xyz": [0.26880288780337, 1.7078618834523, 12.805754828473697], "label": "S", "properties": {}}, {"species": [{"element": "S", "occu": 1}], "abc": [0.21136641, 0.86183851, 0.21548073], "xyz": [1.49001123208143, 8.592004223208901, 10.869418045303913], "label": "S", "properties": {}}, {"species": [{"element": "S", "occu": 1}], "abc": [0.54050945, 0.00943827, 0.25440659], "xyz": [3.8102797485473494, 0.09409379455530001, 12.832941396616922], "label": "S", "properties": {}}, {"species": [{"element": "S", "occu": 1}], "abc": [0.1947322, 0.32496626, 0.18469396], "xyz": [1.3727496495206, 3.2397153827814003, 9.316451924414025], "label": "S", "properties": {}}, {"species": [{"element": "S", "occu": 1}], "abc": [0.53786376, 0.67113618, 0.24613737], "xyz": [3.7916291606104804, 6.6908183215302, 12.415820064753103], "label": "S", "properties": {}}, {"species": [{"element": "S", "occu": 1}], "abc": [0.6949824, 0.82491879, 0.31532673], "xyz": [4.8992249151552, 8.223937135838101, 15.905914413918472], "label": "S", "properties": {}}, {"species": [{"element": "S", "occu": 1}], "abc": [0.04167117, 0.99665144, 0.3463677], "xyz": [0.29375770423491, 9.936006899421601, 17.47170305525887], "label": "S", "properties": {}}, {"species": [{"element": "S", "occu": 1}], "abc": [0.71151168, 0.36184873, 0.28453116], "xyz": [5.01574680176064, 3.6074111103747004, 14.352504397749417], "label": "S", "properties": {}}, {"species": [{"element": "S", "occu": 1}], "abc": [0.0205475, 0.65888359, 0.35193689], "xyz": [0.1448480190925, 6.5686674733101, 17.75262773137133], "label": "S", "properties": {}}, {"species": [{"element": "S", "occu": 1}], "abc": [0.21337642, 0.35701185, 0.31313799], "xyz": [1.50418064280566, 3.5591903672715004, 15.795508578313225], "label": "S", "properties": {}}, {"species": [{"element": "S", "occu": 1}], "abc": [0.52297357, 0.51566877, 0.35348245], "xyz": [3.68666191275011, 5.1409030789503, 17.83058986633393], "label": "S", "properties": {}}, {"species": [{"element": "S", "occu": 1}], "abc": [0.19750577, 0.82405283, 0.28224586], "xyz": [1.39230171767071, 8.2153040428737, 14.23722782030821], "label": "S", "properties": {}}, {"species": [{"element": "S", "occu": 1}], "abc": [0.53915477, 0.17757768, 0.34699004], "xyz": [3.80073003619771, 1.7703411472152, 17.503095531172214], "label": "S", "properties": {}}, {"species": [{"element": "S", "occu": 1}], "abc": [0.66956654, 0.33619702, 0.41608873], "xyz": [4.72005776710642, 3.3516792092178003, 20.988616245682795], "label": "S", "properties": {}}, {"species": [{"element": "S", "occu": 1}], "abc": [0.04133313, 0.48757401, 0.44631485], "xyz": [0.29137471728399, 4.8608154595539, 22.513301697451595], "label": "S", "properties": {}}, {"species": [{"element": "S", "occu": 1}], "abc": [0.69441669, 0.85255458, 0.38229316], "xyz": [4.89523698606987, 8.4994491043062, 19.283878293433737], "label": "S", "properties": {}}, {"species": [{"element": "S", "occu": 1}], "abc": [0.01943931, 0.15127458, 0.44296606], "xyz": [0.13703591901813, 1.5081152851062, 22.344379871096482], "label": "S", "properties": {}}, {"species": [{"element": "S", "occu": 1}], "abc": [0.19086804, 0.82648665, 0.41509659], "xyz": [1.3455095511409199, 8.2395677436435, 20.938570079515323], "label": "S", "properties": {}}, {"species": [{"element": "S", "occu": 1}], "abc": [0.51999325, 0.00661424, 0.44774098], "xyz": [3.6656523763947497, 0.06593993811360001, 22.585239467278853], "label": "S", "properties": {}}, {"species": [{"element": "S", "occu": 1}], "abc": [0.17668769, 0.32356504, 0.37959876], "xyz": [1.24554626570287, 3.2257460741256003, 19.147965629775754], "label": "S", "properties": {}}, {"species": [{"element": "S", "occu": 1}], "abc": [0.54451069, 0.66928755, 0.44730495], "xyz": [3.8384861818318696, 6.6723886080945, 22.56324496062253], "label": "S", "properties": {}}, {"species": [{"element": "S", "occu": 1}], "abc": [0.71879218, 0.3221201, 0.48308138], "xyz": [5.0670701259121405, 3.2113409037390004, 24.367902731359397], "label": "S", "properties": {}}, {"species": [{"element": "S", "occu": 1}], "abc": [0.19918789, 0.82488616, 0.48257688], "xyz": [1.40415969308747, 8.223611834642401, 24.342454416775276], "label": "S", "properties": {}}, {"species": [{"element": "S", "occu": 1}], "abc": [0.30175933, 0.30026867, 0.51739906], "xyz": [2.12722916136659, 2.9934954760113004, 26.098977293177363], "label": "S", "properties": {}}, {"species": [{"element": "S", "occu": 1}], "abc": [0.97977017, 0.11877343, 0.55210463], "xyz": [6.90681437111191, 1.1840986453077, 27.849618052704017], "label": "S", "properties": {}}, {"species": [{"element": "S", "occu": 1}], "abc": [0.9565461, 0.45608148, 0.55269601], "xyz": [6.743098077900299, 4.5468541458972, 27.879448824317013], "label": "S", "properties": {}}, {"species": [{"element": "S", "occu": 1}], "abc": [0.78065368, 0.80274269, 0.51681512], "xyz": [5.50315800682664, 8.0028549462591, 26.069521814845842], "label": "S", "properties": {}}, {"species": [{"element": "S", "occu": 1}], "abc": [0.45967928, 0.63712362, 0.55376642], "xyz": [3.24047368905544, 6.3517338459918005, 27.93344313633681], "label": "S", "properties": {}}, {"species": [{"element": "S", "occu": 1}], "abc": [0.48030795, 0.97361569, 0.55693094], "xyz": [3.3858939098128498, 9.7063545237291, 28.093069896431437], "label": "S", "properties": {}}, {"species": [{"element": "S", "occu": 1}], "abc": [0.32406879, 0.80153963, 0.62041414], "xyz": [2.28449798180817, 7.9908611719257, 31.29533044034939], "label": "S", "properties": {}}, {"species": [{"element": "S", "occu": 1}], "abc": [0.97780449, 0.6089891, 0.64643357], "xyz": [6.89295746130927, 6.071249843649, 32.607819320308735], "label": "S", "properties": {}}, {"species": [{"element": "S", "occu": 1}], "abc": [0.30927788, 0.29795062, 0.58487587], "xyz": [2.18023060066324, 2.9703859315218, 29.50268609003146], "label": "S", "properties": {}}, {"species": [{"element": "S", "occu": 1}], "abc": [0.96141572, 0.94714284, 0.65302532], "xyz": [6.77742608912956, 9.442436357667601, 32.94032462786052], "label": "S", "properties": {}}, {"species": [{"element": "S", "occu": 1}], "abc": [0.80607015, 0.27195586, 0.61760951], "xyz": [5.68232945502345, 2.7112340311254, 31.153857483893372], "label": "S", "properties": {}}, {"species": [{"element": "S", "occu": 1}], "abc": [0.45911428, 0.12812685, 0.65362739], "xyz": [3.2364907650604398, 1.2773465371215, 32.97069463135241], "label": "S", "properties": {}}, {"species": [{"element": "S", "occu": 1}], "abc": [0.83110213, 0.78954684, 0.58383106], "xyz": [5.85879047057099, 7.8713003712276, 29.44998310973288], "label": "S", "properties": {}}, {"species": [{"element": "S", "occu": 1}], "abc": [0.48058009, 0.46581989, 0.64807727], "xyz": [3.38781233978807, 4.6439401531671, 32.690731896486966], "label": "S", "properties": {}}, {"species": [{"element": "S", "occu": 1}], "abc": [0.3037533, 0.3004306, 0.71779489], "xyz": [2.1412854993459, 2.995109819334, 36.20747307749021], "label": "S", "properties": {}}, {"species": [{"element": "S", "occu": 1}], "abc": [0.96050731, 0.11508486, 0.74556145], "xyz": [6.77102232278213, 1.1473258524354, 37.60809181643737], "label": "S", "properties": {}}, {"species": [{"element": "S", "occu": 1}], "abc": [0.28717405, 0.76745785, 0.68683073], "xyz": [2.02441135307315, 7.651086615211501, 34.64555893573991], "label": "S", "properties": {}}, {"species": [{"element": "S", "occu": 1}], "abc": [0.96285045, 0.45346287, 0.75382416], "xyz": [6.78754010779035, 4.5207482015493, 38.0248847666799], "label": "S", "properties": {}}, {"species": [{"element": "S", "occu": 1}], "abc": [0.78918976, 0.76276579, 0.7154239], "xyz": [5.56333244550848, 7.6043096391681, 36.087874069768105], "label": "S", "properties": {}}, {"species": [{"element": "S", "occu": 1}], "abc": [0.46042175, 0.61511898, 0.75440031], "xyz": [3.24570767415025, 6.1323610080222, 38.05394729680406], "label": "S", "properties": {}}, {"species": [{"element": "S", "occu": 1}], "abc": [0.80645535, 0.2995543, 0.68458453], "xyz": [5.68504489276305, 2.986373642877, 34.53225466573228], "label": "S", "properties": {}}, {"species": [{"element": "S", "occu": 1}], "abc": [0.46296906, 0.95348331, 0.74614398], "xyz": [3.2636647398523797, 9.5056469758809, 37.637476170638934], "label": "S", "properties": {}}, {"species": [{"element": "S", "occu": 1}], "abc": [0.30626653, 0.79952118, 0.81541205], "xyz": [2.15900232071219, 7.970738456680201, 41.13154086042059], "label": "S", "properties": {}}, {"species": [{"element": "S", "occu": 1}], "abc": [0.95876799, 0.6281094, 0.84635679], "xyz": [6.75876112036977, 6.261867571266001, 42.692475405997996], "label": "S", "properties": {}}, {"species": [{"element": "S", "occu": 1}], "abc": [0.28907428, 0.26278582, 0.7845466], "xyz": [2.03780687814044, 2.6198143260498004, 39.574605912193775], "label": "S", "properties": {}}, {"species": [{"element": "S", "occu": 1}], "abc": [0.98024838, 0.96583262, 0.85186785], "xyz": [6.91018547568474, 9.628762063501801, 42.97046785113567], "label": "S", "properties": {}}, {"species": [{"element": "S", "occu": 1}], "abc": [0.78694384, 0.26753609, 0.81315816], "xyz": [5.54750000540432, 2.6671716202851004, 41.01784868647014], "label": "S", "properties": {}}, {"species": [{"element": "S", "occu": 1}], "abc": [0.47742889, 0.10907131, 0.85356153], "xyz": [3.36559819803047, 1.0873744272009, 43.055901550729004], "label": "S", "properties": {}}, {"species": [{"element": "S", "occu": 1}], "abc": [0.80377788, 0.80044245, 0.78216914], "xyz": [5.66617027416324, 7.979922956605501, 39.45468054055619], "label": "S", "properties": {}}, {"species": [{"element": "S", "occu": 1}], "abc": [0.46107866, 0.44713227, 0.8469574], "xyz": [3.25033851061318, 4.4576359812153, 42.72277176322766], "label": "S", "properties": {}}, {"species": [{"element": "S", "occu": 1}], "abc": [0.33022194, 0.28967683, 0.91616634], "xyz": [2.32787413894062, 2.8879012922337, 46.21385377938918], "label": "S", "properties": {}}, {"species": [{"element": "S", "occu": 1}], "abc": [0.95883966, 0.13742592, 0.94626106], "xyz": [6.75926635251618, 1.3700525925888, 47.73191106755768], "label": "S", "properties": {}}, {"species": [{"element": "S", "occu": 1}], "abc": [0.30541549, 0.7720638, 0.88239867], "xyz": [2.1530029797622703, 7.697005127082, 44.510523176945675], "label": "S", "properties": {}}, {"species": [{"element": "S", "occu": 1}], "abc": [0.97961742, 0.47388976, 0.94307971], "xyz": [6.905737571748659, 4.724391834446401, 47.57143535774165], "label": "S", "properties": {}}, {"species": [{"element": "S", "occu": 1}], "abc": [0.80866337, 0.7984156, 0.91508734], "xyz": [5.70061015973551, 7.959716498484001, 46.159426165045744], "label": "S", "properties": {}}, {"species": [{"element": "S", "occu": 1}], "abc": [0.47905429, 0.61901411, 0.9478371], "xyz": [3.37705633017467, 6.1711930780929, 47.811410694350855], "label": "S", "properties": {}}, {"species": [{"element": "S", "occu": 1}], "abc": [0.82372582, 0.3015554, 0.87958076], "xyz": [5.80679174120186, 3.006323389206, 44.36838034215927], "label": "S", "properties": {}}, {"species": [{"element": "S", "occu": 1}], "abc": [0.45572342, 0.95636367, 0.94728711], "xyz": [3.21258715858666, 9.5343624080613, 47.78366774382931], "label": "S", "properties": {}}, {"species": [{"element": "S", "occu": 1}], "abc": [0.27991453, 0.30301171, 0.98319707], "xyz": [1.97323592581619, 3.0208419115569, 49.595061121001095], "label": "S", "properties": {}}, {"species": [{"element": "S", "occu": 1}], "abc": [0.80077481, 0.80040564, 0.98256543], "xyz": [5.6450003634346295, 7.9795559833596, 49.5631995284859], "label": "S", "properties": {}}]}, "formula": "", "bandgap": 2.3245999999999998}