{"miller": "001_0.07", "final_energy": -604.53909763, "sigma": 0.0023062851755811997, "incar_parameters": {"SYSTEM": "unknown system", "LCOMPAT": false, "PREC": "normal", "ENMAX": 520.0, "ENAUG": 628.945, "EDIFF": 1e-05, "IALGO": 38, "IWAVPR": 11, "NBANDS": 520, "NBANDSLOW": -1, "NBANDSHIGH": -1, "NELECT": 868.0, "TURBO": 0, "IRESTART": 0, "NREBOOT": 0, "NMIN": 0, "EREF": 0.0, "ISMEAR": 0, "SIGMA": 0.05, "KSPACING": 0.5, "KGAMMA": true, "KBLOWUP": true, "LREAL": true, "ROPT": [-0.0005, -0.0005, -0.0005], "LMAXPAW": -100, "LMAXMIX": 4, "NLSPLINE": false, "ISTART": 0, "ICHARG": 2, "INIWAV": 1, "ISPIN": 1, "LNONCOLLINEAR": false, "MAGMOM": [0.6, 0.6, 0.6, 0.6, 0.6, 0.6, 0.6, 0.6, 0.6, 0.6, 0.6, 0.6, 0.6, 0.6, 0.6, 0.6, 0.6, 0.6, 0.6, 0.6, 0.6, 0.6, 0.6, 0.6, 0.6, 0.6, 0.6, 0.6, 0.6, 0.6, 0.6, 0.6, 0.6, 0.6, 0.6, 0.6, 0.6, 0.6, 0.6, 0.6, 0.6, 0.6, 0.6, 0.6, 0.6, 0.6, 0.6, 0.6, 0.6, 0.6, 0.6, 0.6, 0.6, 0.6, 0.6, 0.6, 0.6, 0.6, 0.6, 0.6, 0.6, 0.6, 0.6, 0.6, 0.6, 0.6, 0.6, 0.6, 0.6, 0.6, 0.6, 0.6, 0.6, 0.6, 0.6, 0.6, 0.6, 0.6, 0.6, 0.6, 0.6, 0.6, 0.6, 0.6, 0.6, 0.6, 0.6, 0.6, 0.6, 0.6, 0.6, 0.6, 0.6, 0.6, 0.6, 0.6, 0.6, 0.6, 0.6, 0.6, 0.6, 0.6, 0.6, 0.6, 0.6, 0.6, 0.6, 0.6, 0.6, 0.6, 0.6, 0.6, 0.6, 0.6, 0.6, 0.6, 0.6, 0.6, 0.6, 0.6, 0.6, 0.6, 0.6, 0.6, 0.6, 0.6, 0.6, 0.6, 0.6, 0.6, 0.6, 0.6, 0.6, 0.6, 0.6, 0.6, 0.6, 0.6, 0.6, 0.6], "NUPDOWN": -1.0, "LSORBIT": false, "SAXIS": [0.0, 0.0, 1.0], "LSPIRAL": false, "QSPIRAL": [0.0, 0.0, 0.0], "LZEROZ": false, "LASPH": false, "LMETAGGA": false, "NELM": 100, "NELMDL": -5, "NELMIN": 6, "ENINI": 520.0, "LDIAG": true, "LSUBROT": false, "WEIMIN": 0.001, "EBREAK": 0.0, "DEPER": 0.3, "NRMM": 4, "TIME": 0.4, "AMIX": 0.4, "BMIX": 1.0, "AMIN": 0.1, "AMIX_MAG": 1.6, "BMIX_MAG": 1.0, "IMIX": 4, "MIXFIRST": false, "MAXMIX": -45, "WC": 100.0, "INIMIX": 1, "MIXPRE": 1, "MREMOVE": 5, "LDIPOL": false, "LMONO": false, "IDIPOL": 0, "EPSILON": 1.0, "DIPOL": [-100.0, -100.0, -100.0], "EFIELD": 0.0, "NGX": 36, "NGY": 64, "NGZ": 280, "NGXF": 72, "NGYF": 128, "NGZF": 560, "ADDGRID": false, "NSW": 150, "IBRION": 2, "MDALGO": 0, "ISIF": 3, "PSTRESS": 0.0, "EDIFFG": -0.01, "NFREE": 1, "POTIM": 0.5, "SMASS": -3.0, "SCALEE": 1.0, "TEBEG": 0.0001, "TEEND": 0.0001, "NBLOCK": 1, "KBLOCK": 150, "NPACO": 256, "APACO": 10.0, "ISYM": 0, "SYMPREC": 1e-05, "LORBIT": 11, "RWIGS": [-1.0, -1.0, -1.0], "NEDOS": 301, "EMIN": 10.0, "EMAX": -10.0, "EFERMI": 0.0, "NWRITE": 2, "LWAVE": false, "LDOWNSAMPLE": false, "LCHARG": false, "LPARD": false, "LVTOT": false, "LVHAR": false, "LELF": false, "LOPTICS": false, "STM": [0.0, 0.0, 0.0, 0.0, 0.0, 0.0, 0.0], "NPAR": 1, "NSIM": 4, "NBLK": -1, "LPLANE": true, "LSCALAPACK": true, "LSCAAWARE": false, "LSCALU": false, "LASYNC": false, "LORBITALREAL": false, "IDIOT": 3, "PHON_NSTRUCT": -1, "LMUSIC": false, "POMASS": [7.01, 88.906, 35.453], "DARWINR": [0.0, 0.0, 0.0], "DARWINV": [1.0, 1.0, 1.0], "LCORR": true, "GGA_COMPAT": true, "LBERRY": false, "ICORELEVEL": 0, "LDAU": false, "I_CONSTRAINED_M": 0, "GGA": "--", "VOSKOWN": 0, "LHFCALC": false, "PRECFOCK": "", "LSYMGRAD": false, "LHFONE": false, "LRHFCALC": false, "LTHOMAS": false, "LMODELHF": false, "LFOCKACE": false, "ENCUT4O": -1.0, "EXXOEP": 0, "FOURORBIT": 0, "AEXX": 0.0, "HFALPHA": 0.0, "MCALPHA": 0.0, "ALDAX": 1.0, "AGGAX": 1.0, "ALDAC": 1.0, "AGGAC": 1.0, "NKREDX": 1, "NKREDY": 1, "NKREDZ": 1, "SHIFTRED": false, "ODDONLY": false, "EVENONLY": false, "LMAXFOCK": 0, "NMAXFOCKAE": 0, "LFOCKAEDFT": false, "HFSCREEN": 0.0, "HFSCREENC": 0.0, "NBANDSGWLOW": 0, "LUSE_VDW": false, "Zab_VDW": -0.8491, "PARAM1": 0.1234, "PARAM2": 1.0, "PARAM3": 0.0, "MODEL_GW": 0, "MODEL_EPS0": 14.37497033, "MODEL_ALPHA": 1.0, "LEPSILON": false, "LRPA": false, "LNABLA": false, "LVEL": false, "CSHIFT": 0.1, "OMEGAMAX": -1.0, "DEG_THRESHOLD": 0.002, "RTIME": -0.1, "WPLASMAI": 0.0, "DFIELD": [0.0, 0.0, 0.0], "WPLASMA": [0.0, 0.0, 0.0, 0.0, 0.0, 0.0, 0.0, 0.0, 0.0], "NUCIND": false, "MAGPOS": [0.0, 0.0, 0.0], "LNICSALL": true, "ORBITALMAG": false, "LMAGBLOCH": false, "LCHIMAG": false, "LGAUGE": true, "MAGATOM": 0, "MAGDIPOL": [0.0, 0.0, 0.0], "AVECCONST": [0.0, 0.0, 0.0], "LFINITE_TEMPERATURE": false, "LADDER": false, "LRPAFORCE": false, "LFXC": false, "LHARTREE": true, "IBSE": 0, "KPOINT": [-1, 0, 0, 0], "LTCTC": false, "LTCTE": false, "LTETE": false, "LTRIPLET": false, "LFXCEPS": false, "LFXHEG": false, "NATURALO": 2, "LHOLEGF": false, "L2ORDER": false, "LDMP1": false, "LMP2LT": false, "LSMP2LT": false, "LGWLF": false, "ENCUTGW": -2.0, "ENCUTGWSOFT": -2.0, "ENCUTLF": -1.0, "LESF_SPLINES": false, "LMAXMP2": -1, "SCISSOR": 0.0, "NOMEGA": 0, "NOMEGAR": 0, "NBANDSGW": -1, "NBANDSO": -1, "NBANDSV": -1, "NELMGW": 1, "NELMHF": 1, "DIM": 3, "IESPILON": 4, "ANTIRES": 0, "OMEGAMIN": -30.0, "OMEGATL": -200.0, "OMEGAGRID": 0, "LSELFENERGY": false, "LSPECTRAL": false, "LSPECTRALGW": false, "LSINGLES": false, "LFERMIGW": false, "ODDONLYGW": false, "EVENONLYGW": false, "NKREDLFX": 1, "NKREDLFY": 1, "NKREDLFZ": 1, "MAXMEM": 2800, "TELESCOPE": 0, "NTAUPAR": -1, "NOMEGAPAR": -1, "DAMP_NEWTON": 0.80000001, "LAMBDA": 1.0, "OFIELD_KAPPA": 0.0, "OFIELD_K": [0.0, 0.0, 0.0], "OFIELD_Q6_NEAR": 0.0, "OFIELD_Q6_FAR": 0.0, "OFIELD_A": 0.0, "KPOINTS_OPT_MODE": 1, "LKPOINTS_OPT": false, "@module": "pymatgen.io.vasp.inputs", "@class": "Incar"}, "relaxed_structures": {"@module": "pymatgen.core.structure", "@class": "Structure", "charge": 0, "lattice": {"matrix": [[6.097585, 0.0, 0.0], [0.000256, 11.177296, 0.0], [0.0, 0.0, 49.21405236]], "a": 6.097585, "b": 11.177296002931657, "c": 49.21405236, "alpha": 90.0, "beta": 90.0, "gamma": 89.99868772200783, "volume": 3354.1597433081647}, "sites": [{"species": [{"element": "Li", "occu": 1}], "abc": [0.99633086, 0.20461733, 0.05878671], "xyz": [6.07526448900958, 2.2870684641396797, 2.8931322240121355], "label": "Li", "properties": {}}, {"species": [{"element": "Li", "occu": 1}], "abc": [0.00393987, 0.36081943, 0.11819264], "xyz": [0.024116061988029996, 4.03298557166128, 5.81673877352663], "label": "Li", "properties": {}}, {"species": [{"element": "Li", "occu": 1}], "abc": [0.97992667, 0.83426331, 0.06561708], "xyz": [5.97539973549931, 9.32480795780976, 3.2292824108303084], "label": "Li", "properties": {}}, {"species": [{"element": "Li", "occu": 1}], "abc": [0.49416919, 0.18934105, 0.18429106], "xyz": [3.01328711171495, 2.1163209608008002, 9.069709876319902], "label": "Li", "properties": {}}, {"species": [{"element": "Li", "occu": 1}], "abc": [0.49998121, 0.85282634, 0.18660992], "xyz": [3.0488962499208903, 9.53229243877664, 9.183830373775411], "label": "Li", "properties": {}}, {"species": [{"element": "Li", "occu": 1}], "abc": [0.41150029, 0.71924363, 0.02906655], "xyz": [2.50934212216893, 8.039198948624481, 1.430482713624558], "label": "Li", "properties": {}}, {"species": [{"element": "Li", "occu": 1}], "abc": [0.50278285, 0.35868529, 0.11658399], "xyz": [3.06585298785149, 4.00913165717584, 5.737570588197716], "label": "Li", "properties": {}}, {"species": [{"element": "Li", "occu": 1}], "abc": [0.52390246, 0.68808443, 0.11825034], "xyz": [3.1947159311731794, 7.69092334710128, 5.819578424347802], "label": "Li", "properties": {}}, {"species": [{"element": "Li", "occu": 1}], "abc": [0.9998272, 0.85668251, 0.18437893], "xyz": [6.0967506480345595, 9.575393992292959, 9.074034315100773], "label": "Li", "properties": {}}, {"species": [{"element": "Li", "occu": 1}], "abc": [0.00057865, 0.68963397, 0.2500045], "xyz": [0.0037049138565699996, 7.70824301434512, 12.30373455323562], "label": "Li", "properties": {}}, {"species": [{"element": "Li", "occu": 1}], "abc": [0.00022223, 0.85667142, 0.31562786], "xyz": [0.0015743741980699998, 9.575270036080319, 15.533326028314749], "label": "Li", "properties": {}}, {"species": [{"element": "Li", "occu": 1}], "abc": [0.0001628, 0.35935349, 0.24999701], "xyz": [0.00108468133144, 4.01660032636304, 12.303365939983442], "label": "Li", "properties": {}}, {"species": [{"element": "Li", "occu": 1}], "abc": [0.4763972, 0.68835471, 0.38172155], "xyz": [2.90504863956776, 7.693944346664161, 18.78606434864036], "label": "Li", "properties": {}}, {"species": [{"element": "Li", "occu": 1}], "abc": [0.49730299, 0.35868578, 0.38341855], "xyz": [3.0324390758388295, 4.009137134050881, 18.86958059549528], "label": "Li", "properties": {}}, {"species": [{"element": "Li", "occu": 1}], "abc": [0.50103867, 0.36843983, 0.2499929], "xyz": [3.0552201992084296, 4.1181610380996805, 12.303163670228242], "label": "Li", "properties": {}}, {"species": [{"element": "Li", "occu": 1}], "abc": [0.50007487, 0.85282859, 0.31339941], "xyz": [3.049467350307989, 9.53231758769264, 15.423654973333106], "label": "Li", "properties": {}}, {"species": [{"element": "Li", "occu": 1}], "abc": [0.50630908, 0.18951938, 0.31566978], "xyz": [3.0873111685330796, 2.11831420799648, 15.535389081389681], "label": "Li", "properties": {}}, {"species": [{"element": "Li", "occu": 1}], "abc": [0.99598684, 0.36083162, 0.38178777], "xyz": [6.07320678867612, 4.0331218228995205, 18.789323303187636], "label": "Li", "properties": {}}, {"species": [{"element": "Li", "occu": 1}], "abc": [0.00373409, 0.20460533, 0.44121205], "xyz": [0.02282131013713, 2.28693433658768, 21.713832930562937], "label": "Li", "properties": {}}, {"species": [{"element": "Li", "occu": 1}], "abc": [0.01991379, 0.83396406, 0.43434482], "xyz": [0.12163952199651, 9.32146315198176, 21.375868713774775], "label": "Li", "properties": {}}, {"species": [{"element": "Li", "occu": 1}], "abc": [0.58837535, 0.71931861, 0.47096778], "xyz": [3.587852854093909, 8.04003702227856, 23.17823298479296], "label": "Li", "properties": {}}, {"species": [{"element": "Li", "occu": 1}], "abc": [0.00366156, 0.17034021, 0.55876973], "xyz": [0.02237028042636, 1.90394294787216, 27.49932274940306], "label": "Li", "properties": {}}, {"species": [{"element": "Li", "occu": 1}], "abc": [0.99618537, 0.0142016, 0.61812425], "xyz": [6.07432860494105, 0.1587354868736, 30.42039920448573], "label": "Li", "properties": {}}, {"species": [{"element": "Li", "occu": 1}], "abc": [0.02001392, 0.54077525, 0.56562547], "xyz": [0.12217501684719999, 6.044405038724, 27.836721496729606], "label": "Li", "properties": {}}, {"species": [{"element": "Li", "occu": 1}], "abc": [0.50559954, 0.18581014, 0.68425866], "xyz": [3.0829837385067393, 2.07685493458144, 33.675141521023434], "label": "Li", "properties": {}}, {"species": [{"element": "Li", "occu": 1}], "abc": [0.50000435, 0.52216382, 0.68661173], "xyz": [3.04895269843267, 5.836379576630719, 33.79094563121018], "label": "Li", "properties": {}}, {"species": [{"element": "Li", "occu": 1}], "abc": [0.5884062, 0.6557604, 0.52906269], "xyz": [3.5880246936893996, 7.3296280958784, 26.037318927382444], "label": "Li", "properties": {}}, {"species": [{"element": "Li", "occu": 1}], "abc": [0.49702619, 0.01633811, 0.61654166], "xyz": [3.03066362330731, 0.18261589155056, 30.342513537361317], "label": "Li", "properties": {}}, {"species": [{"element": "Li", "occu": 1}], "abc": [0.47620734, 0.68684046, 0.61826235], "xyz": [2.9038905644316597, 7.67701912619616, 30.427195665116642], "label": "Li", "properties": {}}, {"species": [{"element": "Li", "occu": 1}], "abc": [0.00014716, 0.51832312, 0.68437581], "xyz": [0.0010300113273199998, 5.79345093588352, 33.68090694725741], "label": "Li", "properties": {}}, {"species": [{"element": "Li", "occu": 1}], "abc": [0.9992049, 0.68509113, 0.75002222], "xyz": [6.0929121934957795, 7.65746634698448, 36.91163280624343], "label": "Li", "properties": {}}, {"species": [{"element": "Li", "occu": 1}], "abc": [0.9998085, 0.51831932, 0.8156343], "xyz": [6.096550002218419, 5.7934084621587205, 40.140669146811945], "label": "Li", "properties": {}}, {"species": [{"element": "Li", "occu": 1}], "abc": [0.99924565, 0.01564516, 0.74998876], "xyz": [6.09298929191621, 0.17487058428736002, 36.90998610405147], "label": "Li", "properties": {}}, {"species": [{"element": "Li", "occu": 1}], "abc": [0.52394861, 0.6869243, 0.88179211], "xyz": [3.19499703772765, 7.677956230692801, 43.39656307217488], "label": "Li", "properties": {}}, {"species": [{"element": "Li", "occu": 1}], "abc": [0.50280177, 0.01619973, 0.88343275], "xyz": [3.06588067785633, 0.18106917733008, 43.47730561503879], "label": "Li", "properties": {}}, {"species": [{"element": "Li", "occu": 1}], "abc": [0.49895085, 0.00653303, 0.74999589], "xyz": [3.0423968911529298, 0.07302161008687999, 36.910337000244795], "label": "Li", "properties": {}}, {"species": [{"element": "Li", "occu": 1}], "abc": [0.49991271, 0.52216346, 0.81340604], "xyz": [3.0483939156511095, 5.83637555280416, 40.031007442500254], "label": "Li", "properties": {}}, {"species": [{"element": "Li", "occu": 1}], "abc": [0.49440384, 0.18576744, 0.81575774], "xyz": [3.0147169951910398, 2.0763776640422402, 40.14674412943526], "label": "Li", "properties": {}}, {"species": [{"element": "Li", "occu": 1}], "abc": [0.00384826, 0.01429137, 0.88183909], "xyz": [0.02346875104282, 0.15973887273551998, 43.398875148354755], "label": "Li", "properties": {}}, {"species": [{"element": "Li", "occu": 1}], "abc": [0.99634323, 0.17057855, 0.94122199], "xyz": [6.07533120220835, 1.9066069446008, 46.32134829824339], "label": "Li", "properties": {}}, {"species": [{"element": "Li", "occu": 1}], "abc": [0.97999189, 0.54079084, 0.93437156], "xyz": [5.9757222910406895, 6.04457929276864, 45.98421087753488], "label": "Li", "properties": {}}, {"species": [{"element": "Li", "occu": 1}], "abc": [0.41141847, 0.65563433, 0.97097142], "xyz": [2.5088269337834297, 7.328218974171681, 47.78543830394355], "label": "Li", "properties": {}}, {"species": [{"element": "Y", "occu": 1}], "abc": [0.00371839, 0.51707538, 0.04985957], "xyz": [0.022805570385429994, 5.77950457657248, 2.453791488627085], "label": "Y", "properties": {}}, {"species": [{"element": "Y", "occu": 1}], "abc": [0.99352411, 0.0242904, 0.12091412], "xyz": [6.05810392861675, 0.2715009907584, 5.950673832743322], "label": "Y", "properties": {}}, {"species": [{"element": "Y", "occu": 1}], "abc": [0.00415462, 0.52131839, 0.18289884], "xyz": [0.02546660610054, 5.826929955273441, 9.001193088343262], "label": "Y", "properties": {}}, {"species": [{"element": "Y", "occu": 1}], "abc": [0.00022737, 0.03205772, 0.25000111], "xyz": [0.00139461467777, 0.35831862552512, 12.30356771759812], "label": "Y", "properties": {}}, {"species": [{"element": "Y", "occu": 1}], "abc": [0.99620186, 0.52129429, 0.31709973], "xyz": [6.074558969846339, 5.826660582439841, 15.605762715561863], "label": "Y", "properties": {}}, {"species": [{"element": "Y", "occu": 1}], "abc": [0.00676479, 0.02430358, 0.37907186], "xyz": [0.04125510374863, 0.27164830751968, 18.655662366242588], "label": "Y", "properties": {}}, {"species": [{"element": "Y", "occu": 1}], "abc": [0.99628677, 0.51698025, 0.45014609], "xyz": [6.07507561139445, 5.778441280404, 22.15351324290927], "label": "Y", "properties": {}}, {"species": [{"element": "Y", "occu": 1}], "abc": [0.99633489, 0.85790083, 0.54984189], "xyz": [6.075456302853129, 9.58901151555568, 27.05994756418136], "label": "Y", "properties": {}}, {"species": [{"element": "Y", "occu": 1}], "abc": [0.00639418, 0.35069922, 0.62089548], "xyz": [0.03907883505562, 3.9198689889091196, 30.556782662807333], "label": "Y", "properties": {}}, {"species": [{"element": "Y", "occu": 1}], "abc": [0.99567367, 0.85372552, 0.68288637], "xyz": [6.07142338882007, 9.54234283979392, 33.607605569110326], "label": "Y", "properties": {}}, {"species": [{"element": "Y", "occu": 1}], "abc": [0.9998939, 0.3428616, 0.7499982], "xyz": [6.097025818801099, 3.8322655902336, 36.910450684705744], "label": "Y", "properties": {}}, {"species": [{"element": "Y", "occu": 1}], "abc": [0.00387901, 0.85373671, 0.81710251], "xyz": [0.023871149788609998, 9.542467913736159, 40.212925710627424], "label": "Y", "properties": {}}, {"species": [{"element": "Y", "occu": 1}], "abc": [0.99345854, 0.35067873, 0.87909956], "xyz": [6.057787665380779, 3.91963996611408, 43.26405177549296], "label": "Y", "properties": {}}, {"species": [{"element": "Y", "occu": 1}], "abc": [0.00373745, 0.85791068, 0.95015216], "xyz": [0.02300904419233, 9.58912161192128, 46.76083815220709], "label": "Y", "properties": {}}, {"species": [{"element": "Cl", "occu": 1}], "abc": [0.24735402, 0.35592632, 0.07581359], "xyz": [1.5083532791796201, 3.9782938328307202, 3.7310939878595724], "label": "Cl", "properties": {}}, {"species": [{"element": "Cl", "occu": 1}], "abc": [0.16825258, 0.01835957, 0.07106705], "xyz": [1.02593910806922, 0.20521034832271998, 3.497497519770738], "label": "Cl", "properties": {}}, {"species": [{"element": "Cl", "occu": 1}], "abc": [0.24281031, 0.85817282, 0.14310276], "xyz": [1.48077619634327, 9.592051628294719, 7.0426667235005125], "label": "Cl", "properties": {}}, {"species": [{"element": "Cl", "occu": 1}], "abc": [0.25212217, 0.51874324, 0.13847178], "xyz": [1.5374691602288897, 5.798146741479041, 6.8147574313024], "label": "Cl", "properties": {}}, {"species": [{"element": "Cl", "occu": 1}], "abc": [0.26098974, 0.69011806, 0.07329072], "xyz": [1.59158379400126, 7.71365383156576, 3.6069333315820993], "label": "Cl", "properties": {}}, {"species": [{"element": "Cl", "occu": 1}], "abc": [0.29470216, 0.53411168, 0.00957933], "xyz": [1.7971082028736798, 5.969924344417279, 0.4714376481937188], "label": "Cl", "properties": {}}, {"species": [{"element": "Cl", "occu": 1}], "abc": [0.25519065, 0.19762752, 0.13916054], "xyz": [1.55609727222537, 2.20894128878592, 6.848654102005874], "label": "Cl", "properties": {}}, {"species": [{"element": "Cl", "occu": 1}], "abc": [0.74499627, 0.69493254, 0.16387887], "xyz": [4.54285598373819, 7.76746669961184, 8.065143288877634], "label": "Cl", "properties": {}}, {"species": [{"element": "Cl", "occu": 1}], "abc": [0.75581192, 0.51825259, 0.0953058], "xyz": [4.608760098876239, 5.79266260119664, 4.690384631411687], "label": "Cl", "properties": {}}, {"species": [{"element": "Cl", "occu": 1}], "abc": [0.72754541, 0.86251098, 0.10009558], "xyz": [4.436490781645729, 9.64054052671008, 4.926109115124569], "label": "Cl", "properties": {}}, {"species": [{"element": "Cl", "occu": 1}], "abc": [0.74801484, 0.02032533, 0.16529756], "xyz": [4.561089271445879, 0.22718222970767998, 8.134962772820241], "label": "Cl", "properties": {}}, {"species": [{"element": "Cl", "occu": 1}], "abc": [0.79548777, 0.71433279, 0.03369535], "xyz": [4.85073716322969, 7.984309036335841, 1.658284719188526], "label": "Cl", "properties": {}}, {"species": [{"element": "Cl", "occu": 1}], "abc": [0.75391853, 0.35835003, 0.15958598], "xyz": [4.59717405735773, 4.00538435691888, 7.8538727756419116], "label": "Cl", "properties": {}}, {"species": [{"element": "Cl", "occu": 1}], "abc": [0.82153697, 0.33557833, 0.02790976], "xyz": [5.00947741326993, 3.7508583255956798, 1.3735523899950335], "label": "Cl", "properties": {}}, {"species": [{"element": "Cl", "occu": 1}], "abc": [0.75940612, 0.19979274, 0.09829033], "xyz": [4.63059451316164, 2.23314259363104, 4.837265447101678], "label": "Cl", "properties": {}}, {"species": [{"element": "Cl", "occu": 1}], "abc": [0.23283056, 0.69605657, 0.20570419], "xyz": [1.41988232067952, 7.78003031563472, 10.123536777331388], "label": "Cl", "properties": {}}, {"species": [{"element": "Cl", "occu": 1}], "abc": [0.22985287, 0.85762991, 0.2728545], "xyz": [1.4017669655759097, 9.58598336252336, 13.42827564966162], "label": "Cl", "properties": {}}, {"species": [{"element": "Cl", "occu": 1}], "abc": [0.22918472, 0.52078377, 0.27148661], "xyz": [1.3976066315463198, 5.82095434928592, 13.360956239578899], "label": "Cl", "properties": {}}, {"species": [{"element": "Cl", "occu": 1}], "abc": [0.24649856, 0.3582865, 0.34040414], "xyz": [1.5031376433216, 4.0046742633040004, 16.75266716952077], "label": "Cl", "properties": {}}, {"species": [{"element": "Cl", "occu": 1}], "abc": [0.25246104, 0.02022345, 0.33469663], "xyz": [1.5394078277916, 0.2260434867912, 16.471777473535546], "label": "Cl", "properties": {}}, {"species": [{"element": "Cl", "occu": 1}], "abc": [0.24812525, 0.2033117, 0.27097838], "xyz": [1.5130168503164498, 2.2724750511632004, 13.335944181747976], "label": "Cl", "properties": {}}, {"species": [{"element": "Cl", "occu": 1}], "abc": [0.25606879, 0.019376, 0.20602157], "xyz": [1.5614061731281499, 0.216571287296, 10.139156333269403], "label": "Cl", "properties": {}}, {"species": [{"element": "Cl", "occu": 1}], "abc": [0.25772894, 0.35940373, 0.20729817], "xyz": [1.57161612596478, 4.0171618737140795, 10.20198299251218], "label": "Cl", "properties": {}}, {"species": [{"element": "Cl", "occu": 1}], "abc": [0.25519595, 0.69488593, 0.33612866], "xyz": [1.55625688757883, 7.76694572584528, 16.542253472936636], "label": "Cl", "properties": {}}, {"species": [{"element": "Cl", "occu": 1}], "abc": [0.74500588, 0.19765166, 0.36083792], "xyz": [4.54278727762476, 2.20921110871136, 17.75829628835349], "label": "Cl", "properties": {}}, {"species": [{"element": "Cl", "occu": 1}], "abc": [0.74441367, 0.01929318, 0.2939769], "xyz": [4.53913056704103, 0.21564558364128, 14.467794549230483], "label": "Cl", "properties": {}}, {"species": [{"element": "Cl", "occu": 1}], "abc": [0.74253813, 0.35934713, 0.29268881], "xyz": [4.52778135628133, 4.01652923876048, 14.404402420526091], "label": "Cl", "properties": {}}, {"species": [{"element": "Cl", "occu": 1}], "abc": [0.74803145, 0.51868954, 0.36150764], "xyz": [4.56131813357049, 5.79754652068384, 17.79125592350003], "label": "Cl", "properties": {}}, {"species": [{"element": "Cl", "occu": 1}], "abc": [0.75212418, 0.20326693, 0.22901639], "xyz": [4.58619315443938, 2.27197464362128, 11.27082460875818], "label": "Cl", "properties": {}}, {"species": [{"element": "Cl", "occu": 1}], "abc": [0.75733148, 0.85818104, 0.3569161], "xyz": [4.618112766822039, 9.59214350566784, 17.565287633526996], "label": "Cl", "properties": {}}, {"species": [{"element": "Cl", "occu": 1}], "abc": [0.77040236, 0.85766048, 0.2271431], "xyz": [4.6978134353834795, 9.58632505246208, 11.178632416612714], "label": "Cl", "properties": {}}, {"species": [{"element": "Cl", "occu": 1}], "abc": [0.77122432, 0.52078634, 0.22852714], "xyz": [4.70273916657024, 5.82098307493664, 11.246746633641049], "label": "Cl", "properties": {}}, {"species": [{"element": "Cl", "occu": 1}], "abc": [0.76758088, 0.69604588, 0.29431869], "xyz": [4.68056784792008, 7.77991083034048, 14.484615420186607], "label": "Cl", "properties": {}}, {"species": [{"element": "Cl", "occu": 1}], "abc": [0.24069631, 0.19973387, 0.40172092], "xyz": [1.4677173412820699, 2.23248458621552, 19.77031439098737], "label": "Cl", "properties": {}}, {"species": [{"element": "Cl", "occu": 1}], "abc": [0.17851569, 0.33548762, 0.47209751], "xyz": [1.08860047843937, 3.74984443307552, 23.23383157616562], "label": "Cl", "properties": {}}, {"species": [{"element": "Cl", "occu": 1}], "abc": [0.20437127, 0.71425559, 0.46631014], "xyz": [1.2463540398139898, 7.9834461490846405, 22.94901164595893], "label": "Cl", "properties": {}}, {"species": [{"element": "Cl", "occu": 1}], "abc": [0.2441111, 0.51814868, 0.40469581], "xyz": [1.48862082775558, 5.7915011683692805, 19.91672078321261], "label": "Cl", "properties": {}}, {"species": [{"element": "Cl", "occu": 1}], "abc": [0.27260393, 0.86252044, 0.3999012], "xyz": [1.6624464397416898, 9.640646263930241, 19.68075859562683], "label": "Cl", "properties": {}}, {"species": [{"element": "Cl", "occu": 1}], "abc": [0.70528211, 0.53417214, 0.49041908], "xyz": [4.30065436277219, 5.9706001237334405, 24.135510281463027], "label": "Cl", "properties": {}}, {"species": [{"element": "Cl", "occu": 1}], "abc": [0.73883644, 0.68985869, 0.42669956], "xyz": [4.50529459782204, 7.71075477630224, 20.99961448782896], "label": "Cl", "properties": {}}, {"species": [{"element": "Cl", "occu": 1}], "abc": [0.75262651, 0.35583825, 0.42419859], "xyz": [4.589295212570351, 3.9773094483720004, 20.87653161929817], "label": "Cl", "properties": {}}, {"species": [{"element": "Cl", "occu": 1}], "abc": [0.83203972, 0.01827453, 0.42892645], "xyz": [5.07343759435588, 0.20425983107088, 21.109208768888923], "label": "Cl", "properties": {}}, {"species": [{"element": "Cl", "occu": 1}], "abc": [0.75257334, 0.01909747, 0.57577795], "xyz": [4.5888847983362195, 0.21345807504112, 28.336366179033458], "label": "Cl", "properties": {}}, {"species": [{"element": "Cl", "occu": 1}], "abc": [0.83179475, 0.35675344, 0.57104259], "xyz": [5.07203051955939, 3.9875387978982397, 28.103319924050012], "label": "Cl", "properties": {}}, {"species": [{"element": "Cl", "occu": 1}], "abc": [0.75712481, 0.51680407, 0.64308435], "xyz": [4.61676518642577, 5.77647206439472, 31.648786872796563], "label": "Cl", "properties": {}}, {"species": [{"element": "Cl", "occu": 1}], "abc": [0.74781631, 0.85629267, 0.63844849], "xyz": [4.5600927255348696, 9.57103663522032, 31.420637416022934], "label": "Cl", "properties": {}}, {"species": [{"element": "Cl", "occu": 1}], "abc": [0.73898321, 0.6850767, 0.57329248], "xyz": [4.50618831618305, 7.6573050586032, 28.21404612831425], "label": "Cl", "properties": {}}, {"species": [{"element": "Cl", "occu": 1}], "abc": [0.70532572, 0.84080136, 0.50956285], "xyz": [4.30099877553436, 9.397885677922561, 25.077652780610826], "label": "Cl", "properties": {}}, {"species": [{"element": "Cl", "occu": 1}], "abc": [0.7448008, 0.1773705, 0.63913319], "xyz": [4.541531592916, 1.9825225801679998, 31.454334277673826], "label": "Cl", "properties": {}}, {"species": [{"element": "Cl", "occu": 1}], "abc": [0.25496504, 0.68007879, 0.66387628], "xyz": [1.5548451035986397, 7.60144193915184, 32.672042004482016], "label": "Cl", "properties": {}}, {"species": [{"element": "Cl", "occu": 1}], "abc": [0.24414365, 0.85680436, 0.59528378], "xyz": [1.4889060000014098, 9.576755945810561, 29.29632711797872], "label": "Cl", "properties": {}}, {"species": [{"element": "Cl", "occu": 1}], "abc": [0.27244752, 0.51247572, 0.6000904], "xyz": [1.6614031050235198, 5.728092815253119, 29.532880366333345], "label": "Cl", "properties": {}}, {"species": [{"element": "Cl", "occu": 1}], "abc": [0.25193356, 0.35466599, 0.6652742], "xyz": [1.53627709094604, 3.9642067513630397, 32.740839312557114], "label": "Cl", "properties": {}}, {"species": [{"element": "Cl", "occu": 1}], "abc": [0.20437, 0.66063543, 0.53366523], "xyz": [1.24633256912008, 7.38411774919728, 26.26382857193144], "label": "Cl", "properties": {}}, {"species": [{"element": "Cl", "occu": 1}], "abc": [0.24601977, 0.01668949, 0.6595649], "xyz": [1.50013073176489, 0.18654336981904002, 32.45986152341816], "label": "Cl", "properties": {}}, {"species": [{"element": "Cl", "occu": 1}], "abc": [0.17843754, 0.03949509, 0.52790851], "xyz": [1.08804817808394, 0.44144831147664, 25.980517052429583], "label": "Cl", "properties": {}}, {"species": [{"element": "Cl", "occu": 1}], "abc": [0.24065458, 0.17526675, 0.59826253], "xyz": [1.4674566254773, 1.959008343708, 29.442923476446065], "label": "Cl", "properties": {}}, {"species": [{"element": "Cl", "occu": 1}], "abc": [0.76717369, 0.6789307, 0.70568093], "xyz": [4.67808059079785, 7.5886093973872, 34.72941823847349], "label": "Cl", "properties": {}}, {"species": [{"element": "Cl", "occu": 1}], "abc": [0.77022639, 0.51731661, 0.77286506], "xyz": [4.69665331532031, 5.782200875686559, 38.03582153005454], "label": "Cl", "properties": {}}, {"species": [{"element": "Cl", "occu": 1}], "abc": [0.77065434, 0.85413967, 0.77150066], "xyz": [4.69934900352442, 9.54697191693232, 37.96867387701455], "label": "Cl", "properties": {}}, {"species": [{"element": "Cl", "occu": 1}], "abc": [0.7537583, 0.01673146, 0.84043293], "xyz": [4.596109586959259, 0.18701248093216, 41.36111022208821], "label": "Cl", "properties": {}}, {"species": [{"element": "Cl", "occu": 1}], "abc": [0.74781712, 0.3546984, 0.83471402], "xyz": [4.5599692564456, 3.9645690075264004, 41.079659485906085], "label": "Cl", "properties": {}}, {"species": [{"element": "Cl", "occu": 1}], "abc": [0.75172288, 0.17170091, 0.77097388], "xyz": [4.58373811267776, 1.9191518945393602, 37.942748898512356], "label": "Cl", "properties": {}}, {"species": [{"element": "Cl", "occu": 1}], "abc": [0.74394516, 0.35563687, 0.70601992], "xyz": [4.53635989147732, 3.97505856450352, 34.74610131008301], "label": "Cl", "properties": {}}, {"species": [{"element": "Cl", "occu": 1}], "abc": [0.74202335, 0.01557272, 0.70729589], "xyz": [4.52455443522607, 0.17406090096512, 34.8088969644728], "label": "Cl", "properties": {}}, {"species": [{"element": "Cl", "occu": 1}], "abc": [0.74487705, 0.68007311, 0.83614404], "xyz": [4.54212522564041, 7.60137845211056, 41.15003656506193], "label": "Cl", "properties": {}}, {"species": [{"element": "Cl", "occu": 1}], "abc": [0.2552268, 0.17745331, 0.86084096], "xyz": [1.5563125353253597, 1.98344817204976, 42.36547207907266], "label": "Cl", "properties": {}}, {"species": [{"element": "Cl", "occu": 1}], "abc": [0.25579615, 0.35562928, 0.79397454], "xyz": [1.5598298083934299, 3.97497372882688, 39.074704584066914], "label": "Cl", "properties": {}}, {"species": [{"element": "Cl", "occu": 1}], "abc": [0.2572729, 0.01568216, 0.79269904], "xyz": [1.5687473905794602, 0.17528414423936, 39.01193206028173], "label": "Cl", "properties": {}}, {"species": [{"element": "Cl", "occu": 1}], "abc": [0.25203085, 0.85635611, 0.86153186], "xyz": [1.5369987576614097, 9.57174572287856, 42.39947406784819], "label": "Cl", "properties": {}}, {"species": [{"element": "Cl", "occu": 1}], "abc": [0.24778378, 0.17169103, 0.72900506], "xyz": [1.5109266130749799, 1.91904146285488, 35.877293193544936], "label": "Cl", "properties": {}}, {"species": [{"element": "Cl", "occu": 1}], "abc": [0.24267627, 0.51671621, 0.85692909], "xyz": [1.47987146315771, 5.77549002716816, 42.17295310406715], "label": "Cl", "properties": {}}, {"species": [{"element": "Cl", "occu": 1}], "abc": [0.22956744, 0.51731601, 0.72714308], "xyz": [1.3999394115309598, 5.78219416930896, 35.78565761233167], "label": "Cl", "properties": {}}, {"species": [{"element": "Cl", "occu": 1}], "abc": [0.22847057, 0.85433248, 0.72850545], "xyz": [1.3933374296883299, 9.549127011374079, 35.85270536084536], "label": "Cl", "properties": {}}, {"species": [{"element": "Cl", "occu": 1}], "abc": [0.23252386, 0.6789018, 0.79438445], "xyz": [1.4180077997388998, 7.5882863735328, 39.0948779162698], "label": "Cl", "properties": {}}, {"species": [{"element": "Cl", "occu": 1}], "abc": [0.75936399, 0.17523895, 0.90173496], "xyz": [4.63033133613535, 1.9586976148792001, 44.3780315362825], "label": "Cl", "properties": {}}, {"species": [{"element": "Cl", "occu": 1}], "abc": [0.82150136, 0.03942986, 0.97209148], "xyz": [5.009184464259759, 0.44071921645856, 47.84056099542989], "label": "Cl", "properties": {}}, {"species": [{"element": "Cl", "occu": 1}], "abc": [0.79570461, 0.66063556, 0.96633907], "xyz": [4.8520456170702095, 7.38411920224576, 47.5574615884937], "label": "Cl", "properties": {}}, {"species": [{"element": "Cl", "occu": 1}], "abc": [0.75587725, 0.856789, 0.90470451], "xyz": [4.60924511942525, 9.576584262544001, 44.52417512546814], "label": "Cl", "properties": {}}, {"species": [{"element": "Cl", "occu": 1}], "abc": [0.72757795, 0.51252061, 0.89991468], "xyz": [4.43659959952691, 5.72859456407056, 44.28844818105264], "label": "Cl", "properties": {}}, {"species": [{"element": "Cl", "occu": 1}], "abc": [0.29471366, 0.84078159, 0.99043688], "xyz": [1.79725683259814, 9.39766470278064, 48.74341247159503], "label": "Cl", "properties": {}}, {"species": [{"element": "Cl", "occu": 1}], "abc": [0.26116883, 0.6850722, 0.92672179], "xyz": [1.5926745187587499, 7.657254760771201, 45.60773469621292], "label": "Cl", "properties": {}}, {"species": [{"element": "Cl", "occu": 1}], "abc": [0.24734868, 0.01919078, 0.92421314], "xyz": [1.5082345137774797, 0.21450102853088002, 45.48427386376001], "label": "Cl", "properties": {}}, {"species": [{"element": "Cl", "occu": 1}], "abc": [0.16814755, 0.35675549, 0.9289602], "xyz": [1.02538530807219, 3.98756171135504, 45.71789592315607], "label": "Cl", "properties": {}}]}, "formula": "(Li3YCl6)14.0", "bandgap": 4.977399999999999}