{"miller": "001_0.83", "final_energy": -432.1281212, "sigma": 0.015122521311010656, "incar_parameters": {"SYSTEM": "unknown system", "LCOMPAT": false, "PREC": "normal", "ENMAX": 520.0, "ENAUG": 628.945, "EDIFF": 1e-05, "IALGO": 38, "IWAVPR": 11, "NBANDS": 369, "NBANDSLOW": -1, "NBANDSHIGH": -1, "NELECT": 616.0, "TURBO": 0, "IRESTART": 0, "NREBOOT": 0, "NMIN": 0, "EREF": 0.0, "ISMEAR": 0, "SIGMA": 0.05, "KSPACING": 0.5, "KGAMMA": true, "KBLOWUP": true, "LREAL": true, "ROPT": [-0.0005, -0.0005, -0.0005], "LMAXPAW": -100, "LMAXMIX": 4, "NLSPLINE": false, "ISTART": 0, "ICHARG": 2, "INIWAV": 1, "ISPIN": 1, "LNONCOLLINEAR": false, "MAGMOM": [0.6, 0.6, 0.6, 0.6, 0.6, 0.6, 0.6, 0.6, 0.6, 0.6, 0.6, 0.6, 0.6, 0.6, 0.6, 0.6, 0.6, 0.6, 0.6, 0.6, 0.6, 0.6, 0.6, 0.6, 0.6, 0.6, 0.6, 0.6, 0.6, 0.6, 0.6, 0.6, 0.6, 0.6, 0.6, 0.6, 0.6, 0.6, 0.6, 0.6, 0.6, 0.6, 0.6, 0.6, 0.6, 0.6, 0.6, 0.6, 0.6, 0.6, 0.6, 0.6, 0.6, 0.6, 0.6, 0.6, 0.6, 0.6, 0.6, 0.6, 0.6, 0.6, 0.6, 0.6, 0.6, 0.6, 0.6, 0.6, 0.6, 0.6, 0.6, 0.6, 0.6, 0.6, 0.6, 0.6, 0.6, 0.6, 0.6, 0.6, 0.6, 0.6, 0.6, 0.6, 0.6, 0.6, 0.6, 0.6, 0.6, 0.6, 0.6, 0.6, 0.6, 0.6, 0.6, 0.6, 0.6, 0.6, 0.6, 0.6, 0.6, 0.6, 0.6, 0.6], "NUPDOWN": -1.0, "LSORBIT": false, "SAXIS": [0.0, 0.0, 1.0], "LSPIRAL": false, "QSPIRAL": [0.0, 0.0, 0.0], "LZEROZ": false, "LASPH": false, "LMETAGGA": false, "NELM": 100, "NELMDL": -5, "NELMIN": 6, "ENINI": 520.0, "LDIAG": true, "LSUBROT": false, "WEIMIN": 0.001, "EBREAK": 1e-08, "DEPER": 0.3, "NRMM": 4, "TIME": 0.4, "AMIX": 0.4, "BMIX": 1.0, "AMIN": 0.1, "AMIX_MAG": 1.6, "BMIX_MAG": 1.0, "IMIX": 4, "MIXFIRST": false, "MAXMIX": -45, "WC": 100.0, "INIMIX": 1, "MIXPRE": 1, "MREMOVE": 5, "LDIPOL": false, "LMONO": false, "IDIPOL": 0, "EPSILON": 1.0, "DIPOL": [-100.0, -100.0, -100.0], "EFIELD": 0.0, "NGX": 36, "NGY": 64, "NGZ": 224, "NGXF": 72, "NGYF": 128, "NGZF": 448, "ADDGRID": false, "NSW": 150, "IBRION": 2, "MDALGO": 0, "ISIF": 3, "PSTRESS": 0.0, "EDIFFG": -0.01, "NFREE": 1, "POTIM": 0.5, "SMASS": -3.0, "SCALEE": 1.0, "TEBEG": 0.0001, "TEEND": 0.0001, "NBLOCK": 1, "KBLOCK": 150, "NPACO": 256, "APACO": 10.0, "ISYM": 0, "SYMPREC": 1e-05, "LORBIT": 11, "RWIGS": [-1.0, -1.0, -1.0], "NEDOS": 301, "EMIN": 10.0, "EMAX": -10.0, "EFERMI": 0.0, "NWRITE": 2, "LWAVE": false, "LDOWNSAMPLE": false, "LCHARG": false, "LPARD": false, "LVTOT": false, "LVHAR": false, "LELF": false, "LOPTICS": false, "STM": [0.0, 0.0, 0.0, 0.0, 0.0, 0.0, 0.0], "NPAR": 1, "NSIM": 4, "NBLK": -1, "LPLANE": true, "LSCALAPACK": true, "LSCAAWARE": false, "LSCALU": false, "LASYNC": false, "LORBITALREAL": false, "IDIOT": 3, "PHON_NSTRUCT": -1, "LMUSIC": false, "POMASS": [7.01, 88.906, 35.453], "DARWINR": [0.0, 0.0, 0.0], "DARWINV": [1.0, 1.0, 1.0], "LCORR": true, "GGA_COMPAT": true, "LBERRY": false, "ICORELEVEL": 0, "LDAU": false, "I_CONSTRAINED_M": 0, "GGA": "--", "VOSKOWN": 0, "LHFCALC": false, "PRECFOCK": "", "LSYMGRAD": false, "LHFONE": false, "LRHFCALC": false, "LTHOMAS": false, "LMODELHF": false, "LFOCKACE": false, "ENCUT4O": -1.0, "EXXOEP": 0, "FOURORBIT": 0, "AEXX": 0.0, "HFALPHA": 0.0, "MCALPHA": 0.0, "ALDAX": 1.0, "AGGAX": 1.0, "ALDAC": 1.0, "AGGAC": 1.0, "NKREDX": 1, "NKREDY": 1, "NKREDZ": 1, "SHIFTRED": false, "ODDONLY": false, "EVENONLY": false, "LMAXFOCK": 0, "NMAXFOCKAE": 0, "LFOCKAEDFT": false, "HFSCREEN": 0.0, "HFSCREENC": 0.0, "NBANDSGWLOW": 0, "LUSE_VDW": false, "Zab_VDW": -0.8491, "PARAM1": 0.1234, "PARAM2": 1.0, "PARAM3": 0.0, "MODEL_GW": 0, "MODEL_EPS0": 15.58289507, "MODEL_ALPHA": 1.0, "LEPSILON": false, "LRPA": false, "LNABLA": false, "LVEL": false, "CSHIFT": 0.1, "OMEGAMAX": -1.0, "DEG_THRESHOLD": 0.002, "RTIME": -0.1, "WPLASMAI": 0.0, "DFIELD": [0.0, 0.0, 0.0], "WPLASMA": [0.0, 0.0, 0.0, 0.0, 0.0, 0.0, 0.0, 0.0, 0.0], "NUCIND": false, "MAGPOS": [0.0, 0.0, 0.0], "LNICSALL": true, "ORBITALMAG": false, "LMAGBLOCH": false, "LCHIMAG": false, "LGAUGE": true, "MAGATOM": 0, "MAGDIPOL": [0.0, 0.0, 0.0], "AVECCONST": [0.0, 0.0, 0.0], "LFINITE_TEMPERATURE": false, "LADDER": false, "LRPAFORCE": false, "LFXC": false, "LHARTREE": true, "IBSE": 0, "KPOINT": [-1, 0, 0, 0], "LTCTC": false, "LTCTE": false, "LTETE": false, "LTRIPLET": false, "LFXCEPS": false, "LFXHEG": false, "NATURALO": 2, "LHOLEGF": false, "L2ORDER": false, "LDMP1": false, "LMP2LT": false, "LSMP2LT": false, "LGWLF": false, "ENCUTGW": -2.0, "ENCUTGWSOFT": -2.0, "ENCUTLF": -1.0, "LESF_SPLINES": false, "LMAXMP2": -1, "SCISSOR": 0.0, "NOMEGA": 0, "NOMEGAR": 0, "NBANDSGW": -1, "NBANDSO": -1, "NBANDSV": -1, "NELMGW": 1, "NELMHF": 1, "DIM": 3, "IESPILON": 4, "ANTIRES": 0, "OMEGAMIN": -30.0, "OMEGATL": -200.0, "OMEGAGRID": 0, "LSELFENERGY": false, "LSPECTRAL": false, "LSPECTRALGW": false, "LSINGLES": false, "LFERMIGW": false, "ODDONLYGW": false, "EVENONLYGW": false, "NKREDLFX": 1, "NKREDLFY": 1, "NKREDLFZ": 1, "MAXMEM": 2800, "TELESCOPE": 0, "NTAUPAR": -1, "NOMEGAPAR": -1, "DAMP_NEWTON": 0.80000001, "LAMBDA": 1.0, "OFIELD_KAPPA": 0.0, "OFIELD_K": [0.0, 0.0, 0.0], "OFIELD_Q6_NEAR": 0.0, "OFIELD_Q6_FAR": 0.0, "OFIELD_A": 0.0, "KPOINTS_OPT_MODE": 1, "LKPOINTS_OPT": false, "@module": "pymatgen.io.vasp.inputs", "@class": "Incar"}, "relaxed_structures": {"@module": "pymatgen.core.structure", "@class": "Structure", "charge": 0, "lattice": {"matrix": [[6.097585, 0.0, 0.0], [0.000256, 11.177296, 0.0], [0.0, 0.0, 39.63105375]], "a": 6.097585, "b": 11.177296002931657, "c": 39.63105375, "alpha": 90.0, "beta": 90.0, "gamma": 89.99868772200783, "volume": 2701.035145424714}, "sites": [{"species": [{"element": "Li", "occu": 1}], "abc": [0.98419299, 0.26321602, 0.11267024], "xyz": [6.0012677962302705, 2.94204336748192, 4.4652403374654], "label": "Li", "properties": {}}, {"species": [{"element": "Li", "occu": 1}], "abc": [0.99646614, 0.45527621, 0.20790932], "xyz": [6.076153538981659, 5.08875696092816, 8.23966543604595], "label": "Li", "properties": {}}, {"species": [{"element": "Li", "occu": 1}], "abc": [0.93996756, 0.960014, 0.12517884], "xyz": [5.7317778579266, 10.730360642144001, 4.96096933640265], "label": "Li", "properties": {}}, {"species": [{"element": "Li", "occu": 1}], "abc": [0.5878656, 0.58559371, 0.06641959], "xyz": [3.5847103765657597, 6.545354232408161, 2.6322783413429627], "label": "Li", "properties": {}}, {"species": [{"element": "Li", "occu": 1}], "abc": [0.56847888, 0.28393776, 0.06532032], "xyz": [3.46642097957136, 3.17365638909696, 2.5887131128872], "label": "Li", "properties": {}}, {"species": [{"element": "Li", "occu": 1}], "abc": [0.47365905, 0.99997257, 0.13421967], "xyz": [2.88843231137217, 11.17698940677072, 5.3192669560772625], "label": "Li", "properties": {}}, {"species": [{"element": "Li", "occu": 1}], "abc": [0.49953663, 0.45756372, 0.2037088], "xyz": [3.0460841983508695, 5.11432513730112, 8.073194402148], "label": "Li", "properties": {}}, {"species": [{"element": "Li", "occu": 1}], "abc": [0.53189834, 0.78758896, 0.2141772], "xyz": [3.2434969622826597, 8.80311493225216, 8.488068125224501], "label": "Li", "properties": {}}, {"species": [{"element": "Li", "occu": 1}], "abc": [0.07734716, 0.43778451, 0.03199586], "xyz": [0.47174295544316, 4.89324705248496, 1.268029647437475], "label": "Li", "properties": {}}, {"species": [{"element": "Li", "occu": 1}], "abc": [0.01588584, 0.76322012, 0.38736189], "xyz": [0.09706064404711999, 8.53073719439552, 15.351559883291587], "label": "Li", "properties": {}}, {"species": [{"element": "Li", "occu": 1}], "abc": [0.92518225, 0.93953102, 0.46771498], "xyz": [5.64161792980737, 10.50141631172192, 18.536037512060176], "label": "Li", "properties": {}}, {"species": [{"element": "Li", "occu": 1}], "abc": [0.0600158, 0.45990518, 0.37481149], "xyz": [0.36606917756908, 5.14049632879328, 14.854174306307588], "label": "Li", "properties": {}}, {"species": [{"element": "Li", "occu": 1}], "abc": [0.46823764, 0.28775904, 0.28578628], "xyz": [2.8551924764136403, 3.2163679667558402, 11.32601142369255], "label": "Li", "properties": {}}, {"species": [{"element": "Li", "occu": 1}], "abc": [0.50033805, 0.95728744, 0.29607795], "xyz": [3.0510988541938895, 10.69988507396224, 11.733881150639812], "label": "Li", "properties": {}}, {"species": [{"element": "Li", "occu": 1}], "abc": [0.52623173, 0.50000385, 0.36578468], "xyz": [3.20887070435765, 5.5886910325896, 14.49643231400655], "label": "Li", "properties": {}}, {"species": [{"element": "Li", "occu": 1}], "abc": [0.43144008, 0.78425366, 0.43481803], "xyz": [2.6309433291437596, 8.76583529690336, 17.232296718399112], "label": "Li", "properties": {}}, {"species": [{"element": "Li", "occu": 1}], "abc": [0.41246145, 0.08605579, 0.43341371], "xyz": [2.5150407808804895, 0.9618710373438399, 17.176642036996913], "label": "Li", "properties": {}}, {"species": [{"element": "Li", "occu": 1}], "abc": [0.00351046, 0.95528553, 0.29208299], "xyz": [0.021649881334779998, 10.67750913332688, 11.575556676150711], "label": "Li", "properties": {}}, {"species": [{"element": "Li", "occu": 1}], "abc": [0.51476935, 0.1630813, 0.61264361], "xyz": [3.13889161583255, 1.8228079621648001, 24.27971183750404], "label": "Li", "properties": {}}, {"species": [{"element": "Li", "occu": 1}], "abc": [0.5023764, 0.96805685, 0.70804418], "xyz": [3.0635306235475994, 10.8202579572776, 28.060536954954674], "label": "Li", "properties": {}}, {"species": [{"element": "Li", "occu": 1}], "abc": [0.56248353, 0.46763035, 0.62549493], "xyz": [3.4299108486446497, 5.2268428405336, 24.789023191182487], "label": "Li", "properties": {}}, {"species": [{"element": "Li", "occu": 1}], "abc": [0.90896359, 0.83865004, 0.56586115], "xyz": [5.54269744634039, 9.37383973749184, 22.425673650686814], "label": "Li", "properties": {}}, {"species": [{"element": "Li", "occu": 1}], "abc": [0.93107263, 0.14199856, 0.56544339], "xyz": [5.6773308542299095, 1.5871599366937599, 22.40911738167221], "label": "Li", "properties": {}}, {"species": [{"element": "Li", "occu": 1}], "abc": [0.02749613, 0.42538693, 0.6348005], "xyz": [0.16776888890012998, 4.75467563114128, 25.157812736026873], "label": "Li", "properties": {}}, {"species": [{"element": "Li", "occu": 1}], "abc": [0.99991895, 0.96737595, 0.7035554], "xyz": [6.09733843897895, 10.8126473364312, 27.882641873502752], "label": "Li", "properties": {}}, {"species": [{"element": "Li", "occu": 1}], "abc": [0.96342089, 0.63946599, 0.7140329], "xyz": [5.874704470844089, 7.147500652163041, 28.297876239168374], "label": "Li", "properties": {}}, {"species": [{"element": "Li", "occu": 1}], "abc": [0.42494858, 0.98653564, 0.53225047], "xyz": [2.5914126403031403, 11.026800862829441, 21.093646985032763], "label": "Li", "properties": {}}, {"species": [{"element": "Li", "occu": 1}], "abc": [0.48391675, 0.66229467, 0.88749882], "xyz": [2.95089306348427, 7.40266356581232, 35.17251343848157], "label": "Li", "properties": {}}, {"species": [{"element": "Li", "occu": 1}], "abc": [0.57794616, 0.48660234, 0.96776818], "xyz": [3.5242004062226395, 5.438898388472641, 38.353672759119675], "label": "Li", "properties": {}}, {"species": [{"element": "Li", "occu": 1}], "abc": [0.43736706, 0.9675134, 0.87453243], "xyz": [2.6671305079804997, 10.8141836557664, 34.658641739448115], "label": "Li", "properties": {}}, {"species": [{"element": "Li", "occu": 1}], "abc": [0.03627147, 0.1394725, 0.78599566], "xyz": [0.22120407635994999, 1.55892541636, 31.149836248726725], "label": "Li", "properties": {}}, {"species": [{"element": "Li", "occu": 1}], "abc": [0.9999478, 0.46742893, 0.79647709], "xyz": [6.097386367869079, 5.224591509573281, 31.565226364433588], "label": "Li", "properties": {}}, {"species": [{"element": "Li", "occu": 1}], "abc": [0.97246456, 0.92524758, 0.86515057], "xyz": [5.92992217746808, 10.34176607494368, 34.28682874151313], "label": "Li", "properties": {}}, {"species": [{"element": "Li", "occu": 1}], "abc": [0.06858473, 0.64221264, 0.9345847], "xyz": [0.41836562731288995, 7.17820077222144, 37.03857647962763], "label": "Li", "properties": {}}, {"species": [{"element": "Li", "occu": 1}], "abc": [0.09100808, 0.33870615, 0.93411152], "xyz": [0.5550162122612, 3.7858188955704, 37.0198238576142], "label": "Li", "properties": {}}, {"species": [{"element": "Li", "occu": 1}], "abc": [0.49731553, 0.46812317, 0.79202316], "xyz": [3.03254355552657, 5.23235123554832, 31.388712425204847], "label": "Li", "properties": {}}, {"species": [{"element": "Y", "occu": 1}], "abc": [0.99847148, 0.6256411, 0.12676166], "xyz": [6.0884248834973995, 6.9929757644656, 5.023698160899225], "label": "Y", "properties": {}}, {"species": [{"element": "Y", "occu": 1}], "abc": [0.98336825, 0.12195325, 0.21072095], "xyz": [5.99620271070825, 1.363107573412, 8.351093295701062], "label": "Y", "properties": {}}, {"species": [{"element": "Y", "occu": 1}], "abc": [0.00161246, 0.12604269, 0.37313747], "xyz": [0.009864378837739999, 1.40881645476624, 14.787831129709014], "label": "Y", "properties": {}}, {"species": [{"element": "Y", "occu": 1}], "abc": [0.01650361, 0.62202174, 0.28929585], "xyz": [0.10079140234728999, 6.95252110641504, 11.465099381001938], "label": "Y", "properties": {}}, {"species": [{"element": "Y", "occu": 1}], "abc": [0.50008896, 0.79938759, 0.62654813], "xyz": [3.0495395843846396, 8.934991712156641, 24.830762616991986], "label": "Y", "properties": {}}, {"species": [{"element": "Y", "occu": 1}], "abc": [0.51701262, 0.30197618, 0.71089349], "xyz": [3.15260570242478, 3.3752771488092796, 28.17345811271509], "label": "Y", "properties": {}}, {"species": [{"element": "Y", "occu": 1}], "abc": [0.499706, 0.29933893, 0.87344542], "xyz": [3.0470764407760798, 3.34579982493328, 34.61556238771133], "label": "Y", "properties": {}}, {"species": [{"element": "Y", "occu": 1}], "abc": [0.48276255, 0.80193895, 0.78919328], "xyz": [2.9438909798129496, 8.9635090180792, 31.276561298818798], "label": "Y", "properties": {}}, {"species": [{"element": "Cl", "occu": 1}], "abc": [0.19122853, 0.27018875, 0.06295022], "xyz": [1.16610138442005, 3.01997963462, 2.494783552394325], "label": "Cl", "properties": {}}, {"species": [{"element": "Cl", "occu": 1}], "abc": [0.23462532, 0.46105542, 0.15699481], "xyz": [1.43076586203972, 5.15335290174432, 6.221869753581038], "label": "Cl", "properties": {}}, {"species": [{"element": "Cl", "occu": 1}], "abc": [0.18396266, 0.1262565, 0.15028063], "xyz": [1.1217602778401, 1.411206272424, 5.955779725113862], "label": "Cl", "properties": {}}, {"species": [{"element": "Cl", "occu": 1}], "abc": [0.23984375, 0.957253, 0.23708697], "xyz": [1.4627127091117498, 10.699500127888001, 9.396006451494637], "label": "Cl", "properties": {}}, {"species": [{"element": "Cl", "occu": 1}], "abc": [0.25763708, 0.61718665, 0.23402567], "xyz": [1.5711219942341998, 6.8984778742984, 9.274683906649763], "label": "Cl", "properties": {}}, {"species": [{"element": "Cl", "occu": 1}], "abc": [0.22451829, 0.81990863, 0.14239818], "xyz": [1.36922925393893, 9.164361450464481, 5.643389925482175], "label": "Cl", "properties": {}}, {"species": [{"element": "Cl", "occu": 1}], "abc": [0.20274806, 0.60447016, 0.06797812], "xyz": [1.23642827379606, 6.75634190148736, 2.69404452754395], "label": "Cl", "properties": {}}, {"species": [{"element": "Cl", "occu": 1}], "abc": [0.24545592, 0.29446846, 0.23411516], "xyz": [1.4967637198789598, 3.29136114008416, 9.27823048964985], "label": "Cl", "properties": {}}, {"species": [{"element": "Cl", "occu": 1}], "abc": [0.75064008, 0.62496807, 0.18363509], "xyz": [4.57725168403272, 6.98545310893872, 7.277652122176088], "label": "Cl", "properties": {}}, {"species": [{"element": "Cl", "occu": 1}], "abc": [0.72516581, 0.95627281, 0.18002494], "xyz": [4.42200497140821, 10.68854425412176, 7.134578073480525], "label": "Cl", "properties": {}}, {"species": [{"element": "Cl", "occu": 1}], "abc": [0.6815708, 0.4397834, 0.02452916], "xyz": [4.1560484710684, 4.9155892376864, 0.9721164584023501], "label": "Cl", "properties": {}}, {"species": [{"element": "Cl", "occu": 1}], "abc": [0.72922637, 0.7694726, 0.0951065], "xyz": [4.446716760302049, 8.6006230140896, 3.769170813474375], "label": "Cl", "properties": {}}, {"species": [{"element": "Cl", "occu": 1}], "abc": [0.74083711, 0.44449232, 0.10784444], "xyz": [4.517431039413269, 4.96822223036672, 4.2739887982786495], "label": "Cl", "properties": {}}, {"species": [{"element": "Cl", "occu": 1}], "abc": [0.7078943, 0.10845396, 0.09780873], "xyz": [4.3164734294792595, 1.21222201329216, 3.876263035849237], "label": "Cl", "properties": {}}, {"species": [{"element": "Cl", "occu": 1}], "abc": [0.75106012, 0.29695862, 0.1856689], "xyz": [4.57972894321692, 3.31919439549152, 7.358254155603375], "label": "Cl", "properties": {}}, {"species": [{"element": "Cl", "occu": 1}], "abc": [0.24867287, 0.79710898, 0.31435207], "xyz": [1.5165080219178297, 8.90952301371808, 12.458103782593762], "label": "Cl", "properties": {}}, {"species": [{"element": "Cl", "occu": 1}], "abc": [0.25899065, 0.94498279, 0.39216653], "xyz": [1.5794594181744896, 10.56235235873584, 15.541972829380988], "label": "Cl", "properties": {}}, {"species": [{"element": "Cl", "occu": 1}], "abc": [0.29210483, 0.60886959, 0.40222316], "xyz": [1.7812899004505898, 6.80551563282864, 15.94052767345485], "label": "Cl", "properties": {}}, {"species": [{"element": "Cl", "occu": 1}], "abc": [0.31955396, 0.94100322, 0.47546339], "xyz": [1.94874833001092, 10.51787152689312, 18.843115165247212], "label": "Cl", "properties": {}}, {"species": [{"element": "Cl", "occu": 1}], "abc": [0.27074917, 0.27005884, 0.40480931], "xyz": [1.6509852128174898, 3.0185275920966403, 16.043019523110413], "label": "Cl", "properties": {}}, {"species": [{"element": "Cl", "occu": 1}], "abc": [0.24931651, 0.12535677, 0.31630744], "xyz": [1.5202607029614699, 1.4011497238939201, 12.535597156164899], "label": "Cl", "properties": {}}, {"species": [{"element": "Cl", "occu": 1}], "abc": [0.27483812, 0.45656442, 0.31998332], "xyz": [1.6759656784317198, 5.1031556654083206, 12.68127615402345], "label": "Cl", "properties": {}}, {"species": [{"element": "Cl", "occu": 1}], "abc": [0.75444813, 0.79465062, 0.26587693], "xyz": [4.60051503132477, 8.882045196323519, 10.536982903714987], "label": "Cl", "properties": {}}, {"species": [{"element": "Cl", "occu": 1}], "abc": [0.7973045, 0.1056433, 0.43192079], "xyz": [4.8616590043173, 1.1808064345168, 17.11747604423246], "label": "Cl", "properties": {}}, {"species": [{"element": "Cl", "occu": 1}], "abc": [0.7422598, 0.11724534, 0.26596187], "xyz": [4.526022237390039, 1.31048586980064, 10.540349165420512], "label": "Cl", "properties": {}}, {"species": [{"element": "Cl", "occu": 1}], "abc": [0.77520868, 0.32024873, 0.35749248], "xyz": [4.72698280271268, 3.57951484883408, 14.1678036901008], "label": "Cl", "properties": {}}, {"species": [{"element": "Cl", "occu": 1}], "abc": [0.76011895, 0.45735674, 0.26294881], "xyz": [4.635006991061189, 5.11201166057504, 10.420938422608536], "label": "Cl", "properties": {}}, {"species": [{"element": "Cl", "occu": 1}], "abc": [0.76523455, 0.96143466, 0.3429737], "xyz": [4.6663288408347094, 10.74623977947936, 13.592409139536375], "label": "Cl", "properties": {}}, {"species": [{"element": "Cl", "occu": 1}], "abc": [0.81598321, 0.62651698, 0.34972828], "xyz": [4.97568736989473, 7.00276573448608, 13.86010026257505], "label": "Cl", "properties": {}}, {"species": [{"element": "Cl", "occu": 1}], "abc": [0.80921336, 0.77145146, 0.43705949], "xyz": [4.93444473730936, 8.62274131805216, 17.32112814013759], "label": "Cl", "properties": {}}, {"species": [{"element": "Cl", "occu": 1}], "abc": [0.30855111, 0.15428762, 0.56299971], "xyz": [1.8814561177000702, 1.7245183978755199, 22.312271768244415], "label": "Cl", "properties": {}}, {"species": [{"element": "Cl", "occu": 1}], "abc": [0.26439183, 0.96328483, 0.65699855], "xyz": [1.61239825764703, 10.76691967721968, 26.03754484872206], "label": "Cl", "properties": {}}, {"species": [{"element": "Cl", "occu": 1}], "abc": [0.31645066, 0.29890111, 0.6505386], "xyz": [1.9296613163402598, 3.3409061811985605, 25.78153022304975], "label": "Cl", "properties": {}}, {"species": [{"element": "Cl", "occu": 1}], "abc": [0.26117966, 0.46632019, 0.73727936], "xyz": [1.5926845550897397, 5.21219879440624, 29.219157944925602], "label": "Cl", "properties": {}}, {"species": [{"element": "Cl", "occu": 1}], "abc": [0.24081624, 0.80688644, 0.73392699], "xyz": [1.4686040557090398, 9.01880857826624, 29.08629998926571], "label": "Cl", "properties": {}}, {"species": [{"element": "Cl", "occu": 1}], "abc": [0.27475175, 0.60533515, 0.64246726], "xyz": [1.67547711532215, 6.766010150754401, 25.461654513675224], "label": "Cl", "properties": {}}, {"species": [{"element": "Cl", "occu": 1}], "abc": [0.29528701, 0.81951754, 0.56780318], "xyz": [1.80074743936109, 9.15999012177184, 22.502638346000925], "label": "Cl", "properties": {}}, {"species": [{"element": "Cl", "occu": 1}], "abc": [0.25361839, 0.12948397, 0.7340992], "xyz": [1.54649283848447, 1.44728065994512, 29.093124853032], "label": "Cl", "properties": {}}, {"species": [{"element": "Cl", "occu": 1}], "abc": [0.74820877, 0.79940321, 0.68344541], "xyz": [4.56247122004221, 8.93516630152016, 27.08566177890079], "label": "Cl", "properties": {}}, {"species": [{"element": "Cl", "occu": 1}], "abc": [0.77480289, 0.46847146, 0.68031346], "xyz": [4.72454640871441, 5.2362441759721605, 26.961539300108477], "label": "Cl", "properties": {}}, {"species": [{"element": "Cl", "occu": 1}], "abc": [0.81912324, 0.98565999, 0.52438021], "xyz": [4.99492591033284, 11.017013463587041, 20.78174028794629], "label": "Cl", "properties": {}}, {"species": [{"element": "Cl", "occu": 1}], "abc": [0.7692297, 0.65466606, 0.595065], "xyz": [4.69061107478586, 7.31739633377376, 23.58305299974375], "label": "Cl", "properties": {}}, {"species": [{"element": "Cl", "occu": 1}], "abc": [0.75769142, 0.97990959, 0.60758655], "xyz": [4.620338694075739, 10.95273954066864, 24.07929522082706], "label": "Cl", "properties": {}}, {"species": [{"element": "Cl", "occu": 1}], "abc": [0.79230187, 0.31697037, 0.59806864], "xyz": [4.831209142398669, 3.54287164871952, 23.7020904180294], "label": "Cl", "properties": {}}, {"species": [{"element": "Cl", "occu": 1}], "abc": [0.74759967, 0.12681275, 0.68556449], "xyz": [4.55858499786095, 1.417423643324, 27.169643152281335], "label": "Cl", "properties": {}}, {"species": [{"element": "Cl", "occu": 1}], "abc": [0.25180851, 0.62689585, 0.81450122], "xyz": [1.53558427878595, 7.0070004766216005, 32.27954162926058], "label": "Cl", "properties": {}}, {"species": [{"element": "Cl", "occu": 1}], "abc": [0.24197303, 0.47988742, 0.89237537], "xyz": [1.47557396931207, 5.36384374001632, 35.36577625364614], "label": "Cl", "properties": {}}, {"species": [{"element": "Cl", "occu": 1}], "abc": [0.20718575, 0.81695658, 0.90198265], "xyz": [1.26354186229823, 9.131365513807681, 35.74652288371744], "label": "Cl", "properties": {}}, {"species": [{"element": "Cl", "occu": 1}], "abc": [0.18206168, 0.48557672, 0.97552456], "xyz": [1.11026087668312, 5.427434730149121, 38.6610662718051], "label": "Cl", "properties": {}}, {"species": [{"element": "Cl", "occu": 1}], "abc": [0.23049062, 0.15478423, 0.90496417], "xyz": [1.40547577191558, 1.73006915484208, 35.864683663094134], "label": "Cl", "properties": {}}, {"species": [{"element": "Cl", "occu": 1}], "abc": [0.25153793, 0.29940661, 0.81657208], "xyz": [1.53385055699121, 3.34655630432656, 32.3616119932293], "label": "Cl", "properties": {}}, {"species": [{"element": "Cl", "occu": 1}], "abc": [0.22486673, 0.96842242, 0.81974491], "xyz": [1.3713919159865697, 10.824344041376321, 32.48735458949891], "label": "Cl", "properties": {}}, {"species": [{"element": "Cl", "occu": 1}], "abc": [0.74615301, 0.62948271, 0.76599144], "xyz": [4.54989254905461, 7.03591457655216, 30.357047930679897], "label": "Cl", "properties": {}}, {"species": [{"element": "Cl", "occu": 1}], "abc": [0.70490397, 0.31955283, 0.9321933], "xyz": [4.29829367943693, 3.57173656854768, 36.943802777689875], "label": "Cl", "properties": {}}, {"species": [{"element": "Cl", "occu": 1}], "abc": [0.75909694, 0.30687025, 0.76614097], "xyz": [4.6287366736739, 3.4299796178440003, 30.362973962147137], "label": "Cl", "properties": {}}, {"species": [{"element": "Cl", "occu": 1}], "abc": [0.724968, 0.10528736, 0.85754618], "xyz": [4.4205809558441596, 1.17682798777856, 33.98545875268718], "label": "Cl", "properties": {}}, {"species": [{"element": "Cl", "occu": 1}], "abc": [0.73858374, 0.9663507, 0.76281171], "xyz": [4.503824520047099, 10.8011878137072, 30.231031880139412], "label": "Cl", "properties": {}}, {"species": [{"element": "Cl", "occu": 1}], "abc": [0.73523115, 0.46333234, 0.84302715], "xyz": [4.483253044851789, 5.17880271055264, 33.41005429435931], "label": "Cl", "properties": {}}, {"species": [{"element": "Cl", "occu": 1}], "abc": [0.68281738, 0.79860489, 0.84958374], "xyz": [4.16374145687914, 8.92624324257744, 33.669898865066024], "label": "Cl", "properties": {}}, {"species": [{"element": "Cl", "occu": 1}], "abc": [0.69139207, 0.65466455, 0.93707412], "xyz": [4.21598950927575, 7.3173794560568, 37.13723481745395], "label": "Cl", "properties": {}}]}, "formula": "(Li3YCl6)8.0(LiCl)12.0", "bandgap": 4.7016}