{"miller": "001_0.06", "final_energy": -501.47682394, "gamma": 0.030486379415763563, "work_function": 5.72167276465744, "ionization_potentail": -5.99197276465744, "electron_affinity": -1.0702727646574406, "is_stochiometric": true, "incar_parameters": {"SYSTEM": "unknown system", "LCOMPAT": false, "PREC": "normal", "ENMAX": 520.0, "ENAUG": 628.945, "EDIFF": 1e-05, "IALGO": 38, "IWAVPR": 11, "NBANDS": 232, "NBANDSLOW": -1, "NBANDSHIGH": -1, "NELECT": 380.0, "TURBO": 0, "IRESTART": 0, "NREBOOT": 0, "NMIN": 0, "EREF": 0.0, "ISMEAR": 0, "SIGMA": 0.05, "KSPACING": 0.5, "KGAMMA": true, "KBLOWUP": true, "LREAL": true, "ROPT": [-0.0005, -0.0005, -0.0005], "LMAXPAW": -100, "LMAXMIX": 2, "NLSPLINE": false, "ISTART": 0, "ICHARG": 2, "INIWAV": 1, "ISPIN": 1, "LNONCOLLINEAR": false, "MAGMOM": [0.6, 0.6, 0.6, 0.6, 0.6, 0.6, 0.6, 0.6, 0.6, 0.6, 0.6, 0.6, 0.6, 0.6, 0.6, 0.6, 0.6, 0.6, 0.6, 0.6, 0.6, 0.6, 0.6, 0.6, 0.6, 0.6, 0.6, 0.6, 0.6, 0.6, 0.6, 0.6, 0.6, 0.6, 0.6, 0.6, 0.6, 0.6, 0.6, 0.6, 0.6, 0.6, 0.6, 0.6, 0.6, 0.6, 0.6, 0.6, 0.6, 0.6, 0.6, 0.6, 0.6, 0.6, 0.6, 0.6, 0.6, 0.6, 0.6, 0.6, 0.6, 0.6, 0.6, 0.6, 0.6, 0.6, 0.6, 0.6, 0.6, 0.6, 0.6, 0.6, 0.6, 0.6, 0.6, 0.6, 0.6, 0.6, 0.6, 0.6], "NUPDOWN": -1.0, "LSORBIT": false, "SAXIS": [0.0, 0.0, 1.0], "LSPIRAL": false, "QSPIRAL": [0.0, 0.0, 0.0], "LZEROZ": false, "LASPH": false, "LMETAGGA": false, "NELM": 100, "NELMDL": -5, "NELMIN": 6, "ENINI": 520.0, "LDIAG": true, "LSUBROT": false, "WEIMIN": 0.001, "EBREAK": 1e-08, "DEPER": 0.3, "NRMM": 4, "TIME": 0.4, "AMIX": 0.4, "BMIX": 1.0, "AMIN": 0.1, "AMIX_MAG": 1.6, "BMIX_MAG": 1.0, "IMIX": 4, "MIXFIRST": false, "MAXMIX": -45, "WC": 100.0, "INIMIX": 1, "MIXPRE": 1, "MREMOVE": 5, "LDIPOL": false, "LMONO": false, "IDIPOL": 0, "EPSILON": 1.0, "DIPOL": [-100.0, -100.0, -100.0], "EFIELD": 0.0, "NGX": 28, "NGY": 36, "NGZ": 294, "NGXF": 56, "NGYF": 72, "NGZF": 588, "ADDGRID": false, "NSW": 150, "IBRION": 2, "MDALGO": 0, "ISIF": 2, "PSTRESS": 0.0, "EDIFFG": -0.01, "NFREE": 1, "POTIM": 0.5, "SMASS": -3.0, "SCALEE": 1.0, "TEBEG": 0.0001, "TEEND": 0.0001, "NBLOCK": 1, "KBLOCK": 150, "NPACO": 256, "APACO": 10.0, "ISYM": 0, "SYMPREC": 1e-05, "LORBIT": 11, "RWIGS": [-1.0, -1.0, -1.0], "NEDOS": 301, "EMIN": 10.0, "EMAX": -10.0, "EFERMI": 0.0, "NWRITE": 2, "LWAVE": false, "LDOWNSAMPLE": false, "LCHARG": false, "LPARD": false, "LVTOT": false, "LVHAR": false, "LELF": false, "LOPTICS": false, "STM": [0.0, 0.0, 0.0, 0.0, 0.0, 0.0, 0.0], "NPAR": 2, "NSIM": 4, "NBLK": -1, "LPLANE": true, "LSCALAPACK": true, "LSCAAWARE": false, "LSCALU": false, "LASYNC": false, "LORBITALREAL": false, "IDIOT": 3, "PHON_NSTRUCT": -1, "LMUSIC": false, "POMASS": [7.01, 30.974, 16.0], "DARWINR": [0.0, 0.0, 0.0], "DARWINV": [1.0, 1.0, 1.0], "LCORR": true, "GGA_COMPAT": true, "LBERRY": false, "ICORELEVEL": 0, "LDAU": false, "I_CONSTRAINED_M": 0, "GGA": "--", "VOSKOWN": 0, "LHFCALC": false, "PRECFOCK": "", "LSYMGRAD": false, "LHFONE": false, "LRHFCALC": false, "LTHOMAS": false, "LMODELHF": false, "LFOCKACE": false, "ENCUT4O": -1.0, "EXXOEP": 0, "FOURORBIT": 0, "AEXX": 0.0, "HFALPHA": 0.0, "MCALPHA": 0.0, "ALDAX": 1.0, "AGGAX": 1.0, "ALDAC": 1.0, "AGGAC": 1.0, "NKREDX": 1, "NKREDY": 1, "NKREDZ": 1, "SHIFTRED": false, "ODDONLY": false, "EVENONLY": false, "LMAXFOCK": 0, "NMAXFOCKAE": 0, "LFOCKAEDFT": false, "HFSCREEN": 0.0, "HFSCREENC": 0.0, "NBANDSGWLOW": 0, "LUSE_VDW": false, "Zab_VDW": -0.8491, "PARAM1": 0.1234, "PARAM2": 1.0, "PARAM3": 0.0, "MODEL_GW": 0, "MODEL_EPS0": 12.11948311, "MODEL_ALPHA": 1.0, "LEPSILON": false, "LRPA": false, "LNABLA": false, "LVEL": false, "CSHIFT": 0.1, "OMEGAMAX": -1.0, "DEG_THRESHOLD": 0.002, "RTIME": -0.1, "WPLASMAI": 0.0, "DFIELD": [0.0, 0.0, 0.0], "WPLASMA": [0.0, 0.0, 0.0, 0.0, 0.0, 0.0, 0.0, 0.0, 0.0], "NUCIND": false, "MAGPOS": [0.0, 0.0, 0.0], "LNICSALL": true, "ORBITALMAG": false, "LMAGBLOCH": false, "LCHIMAG": false, "LGAUGE": true, "MAGATOM": 0, "MAGDIPOL": [0.0, 0.0, 0.0], "AVECCONST": [0.0, 0.0, 0.0], "LFINITE_TEMPERATURE": false, "LADDER": false, "LRPAFORCE": false, "LFXC": false, "LHARTREE": true, "IBSE": 0, "KPOINT": [-1, 0, 0, 0], "LTCTC": false, "LTCTE": false, "LTETE": false, "LTRIPLET": false, "LFXCEPS": false, "LFXHEG": false, "NATURALO": 2, "LHOLEGF": false, "L2ORDER": false, "LDMP1": false, "LMP2LT": false, "LSMP2LT": false, "LGWLF": false, "ENCUTGW": -2.0, "ENCUTGWSOFT": -2.0, "ENCUTLF": -1.0, "LESF_SPLINES": false, "LMAXMP2": -1, "SCISSOR": 0.0, "NOMEGA": 0, "NOMEGAR": 0, "NBANDSGW": -1, "NBANDSO": -1, "NBANDSV": -1, "NELMGW": 1, "NELMHF": 1, "DIM": 3, "IESPILON": 4, "ANTIRES": 0, "OMEGAMIN": -30.0, "OMEGATL": -200.0, "OMEGAGRID": 0, "LSELFENERGY": false, "LSPECTRAL": false, "LSPECTRALGW": false, "LSINGLES": false, "LFERMIGW": false, "ODDONLYGW": false, "EVENONLYGW": false, "NKREDLFX": 1, "NKREDLFY": 1, "NKREDLFZ": 1, "MAXMEM": 2800, "TELESCOPE": 0, "NTAUPAR": -1, "NOMEGAPAR": -1, "DAMP_NEWTON": 0.80000001, "LAMBDA": 1.0, "OFIELD_KAPPA": 0.0, "OFIELD_K": [0.0, 0.0, 0.0], "OFIELD_Q6_NEAR": 0.0, "OFIELD_Q6_FAR": 0.0, "OFIELD_A": 0.0, "KPOINTS_OPT_MODE": 1, "LKPOINTS_OPT": false, "@module": "pymatgen.io.vasp.inputs", "@class": "Incar"}, "relaxed_structures": {"@module": "pymatgen.core.structure", "@class": "Structure", "charge": 0, "lattice": {"matrix": [[4.977846, 0.0, 0.0], [0.0, 6.151192, 0.0], [0.0, 0.0, 52.774253]], "a": 4.977846, "b": 6.151192, "c": 52.774253, "alpha": 90.0, "beta": 90.0, "gamma": 90.0, "volume": 1615.9310817322892}, "sites": [{"species": [{"element": "Li", "occu": 1}], "abc": [0.80371989, 0.49964444, 0.09878112], "xyz": [4.00079383955694, 3.07340888217248, 5.21309981850336], "label": "Li", "properties": {}}, {"species": [{"element": "Li", "occu": 1}], "abc": [0.30203783, 0.50079062, 0.06396343000000002], "xyz": [1.5034978039141802, 3.08045925541904, 3.375622237567791], "label": "Li", "properties": {}}, {"species": [{"element": "Li", "occu": 1}], "abc": [0.6757219, 0.48878946, 0.002106760000000006], "xyz": [3.3636395570274003, 3.00663781603632, 0.11118268525028033], "label": "Li", "properties": {}}, {"species": [{"element": "Li", "occu": 1}], "abc": [0.67575291, 0.0111839, 0.002105440000000007], "xyz": [3.3637939200318603, 0.0687943162088, 0.11111302323632037], "label": "Li", "properties": {}}, {"species": [{"element": "Li", "occu": 1}], "abc": [0.30244933, 0.99849353, 0.06400169], "xyz": [1.5055461875431801, 6.14192541378776, 3.37764138048757], "label": "Li", "properties": {}}, {"species": [{"element": "Li", "occu": 1}], "abc": [0.80376877, 0.00050041, 0.09874073], "xyz": [4.001037156669421, 0.0030781179887199995, 5.21096826642469], "label": "Li", "properties": {}}, {"species": [{"element": "Li", "occu": 1}], "abc": [0.20657086, 0.74999887, 0.11672767], "xyz": [1.0282779291675601, 4.61338704915304, 6.160215588680511], "label": "Li", "properties": {}}, {"species": [{"element": "Li", "occu": 1}], "abc": [0.70592034, 0.24998012, 0.04707774], "xyz": [3.5139627407876404, 1.53767571430304, 2.4844925614282203], "label": "Li", "properties": {}}, {"species": [{"element": "Li", "occu": 1}], "abc": [0.27527628, 0.75000134, 0.014943890000000008], "xyz": [1.37028292929288, 4.61340224259728, 0.7886526316641704], "label": "Li", "properties": {}}, {"species": [{"element": "Li", "occu": 1}], "abc": [0.79915026, 0.49898577, 0.29976511], "xyz": [3.97804692513996, 3.06935727653784, 15.819879755712831], "label": "Li", "properties": {}}, {"species": [{"element": "Li", "occu": 1}], "abc": [0.20096205, 0.50104885, 0.16458775], "xyz": [1.0003581367443002, 3.0820476777292, 8.68599555920075], "label": "Li", "properties": {}}, {"species": [{"element": "Li", "occu": 1}], "abc": [0.30228457, 0.50131471, 0.26499944], "xyz": [1.50472603763622, 3.0836830336343204, 13.985147491418319], "label": "Li", "properties": {}}, {"species": [{"element": "Li", "occu": 1}], "abc": [0.69813461, 0.49842297, 0.19936664999999998], "xyz": [3.47520657585006, 3.06589538568024, 10.52142602686245], "label": "Li", "properties": {}}, {"species": [{"element": "Li", "occu": 1}], "abc": [0.6981358, 0.00158717, 0.19936700000000002], "xyz": [3.4752124994868003, 0.00976298740664, 10.521444497851002], "label": "Li", "properties": {}}, {"species": [{"element": "Li", "occu": 1}], "abc": [0.30219077, 0.99853089, 0.26498311], "xyz": [1.50425911568142, 6.14215522232088, 13.984285687866832], "label": "Li", "properties": {}}, {"species": [{"element": "Li", "occu": 1}], "abc": [0.20096736, 0.99896053, 0.16458847], "xyz": [1.00038456910656, 6.14479802045176, 8.68603355666291], "label": "Li", "properties": {}}, {"species": [{"element": "Li", "occu": 1}], "abc": [0.79913826, 0.00102932, 0.29976474], "xyz": [3.9779871909879603, 0.00633154494944, 15.81986022923922], "label": "Li", "properties": {}}, {"species": [{"element": "Li", "occu": 1}], "abc": [0.20162508, 0.7500115, 0.3178492], "xyz": [1.0036585979776802, 4.613464738708, 16.7742540966476], "label": "Li", "properties": {}}, {"species": [{"element": "Li", "occu": 1}], "abc": [0.7985752, 0.25000177, 0.14652597], "xyz": [3.9751843650192007, 1.5378088876098401, 7.73279861185041], "label": "Li", "properties": {}}, {"species": [{"element": "Li", "occu": 1}], "abc": [0.70065091, 0.24999965, 0.24711378], "xyz": [3.4877323297398606, 1.5377958470828, 13.041245145506341], "label": "Li", "properties": {}}, {"species": [{"element": "Li", "occu": 1}], "abc": [0.30026075, 0.74999878, 0.21719308999999998], "xyz": [1.4946517733445002, 4.61338649554576, 11.462203081511769], "label": "Li", "properties": {}}, {"species": [{"element": "Li", "occu": 1}], "abc": [0.19568862, 0.50129125, 0.3657486], "xyz": [0.9741078143125201, 3.0835387266699996, 19.3021091507958], "label": "Li", "properties": {}}, {"species": [{"element": "Li", "occu": 1}], "abc": [0.32470504, 0.51119552, 0.46234354000000005], "xyz": [1.6163316845438402, 3.14446179305984, 24.399834952875622], "label": "Li", "properties": {}}, {"species": [{"element": "Li", "occu": 1}], "abc": [0.69717482, 0.49962429, 0.40067436], "xyz": [3.47042888903772, 3.07328493565368, 21.14529004525308], "label": "Li", "properties": {}}, {"species": [{"element": "Li", "occu": 1}], "abc": [0.69716078, 0.00042586, 0.40067725], "xyz": [3.4703590000798803, 0.00261954662512, 21.14544256284425], "label": "Li", "properties": {}}, {"species": [{"element": "Li", "occu": 1}], "abc": [0.3248309, 0.98892104, 0.46230284000000005], "xyz": [1.6169581962414001, 6.08304318987968, 24.397687040778525], "label": "Li", "properties": {}}, {"species": [{"element": "Li", "occu": 1}], "abc": [0.19569036, 0.99872296, 0.36575055], "xyz": [0.9741164757645602, 6.143336681768321, 19.302212060589152], "label": "Li", "properties": {}}, {"species": [{"element": "Li", "occu": 1}], "abc": [0.79369059, 0.24999211, 0.34766286], "xyz": [3.9508695286691404, 1.53774946709512, 18.34764773234358], "label": "Li", "properties": {}}, {"species": [{"element": "Li", "occu": 1}], "abc": [0.72506309, 0.25017076, 0.44948148000000004], "xyz": [3.6092524023041404, 1.5388483775459199, 23.721049344334443], "label": "Li", "properties": {}}, {"species": [{"element": "Li", "occu": 1}], "abc": [0.29101981, 0.75001055, 0.41750541], "xyz": [1.44865179712926, 4.6134588950756, 22.03353613620873], "label": "Li", "properties": {}}, {"species": [{"element": "P", "occu": 1}], "abc": [0.30841919, 0.25000096, 0.11373322], "xyz": [1.5352632312647403, 1.53780390514432, 6.00218572678466], "label": "P", "properties": {}}, {"species": [{"element": "P", "occu": 1}], "abc": [0.8094857, 0.74992447, 0.04908342000000001], "xyz": [4.0294951538022, 4.612929400468239, 2.5903408251852604], "label": "P", "properties": {}}, {"species": [{"element": "P", "occu": 1}], "abc": [0.19413962, 0.2499799, 0.01338878000000001], "xyz": [0.9663971308585202, 1.5376743610408001, 0.7065828630813406], "label": "P", "properties": {}}, {"species": [{"element": "P", "occu": 1}], "abc": [0.30452228, 0.25000688, 0.31485345], "xyz": [1.51586501340888, 1.5378403202009598, 16.61615562822285], "label": "P", "properties": {}}, {"species": [{"element": "P", "occu": 1}], "abc": [0.69574559, 0.75001242, 0.14960106], "xyz": [3.46331440219914, 4.61347039780464, 7.8950841895081805], "label": "P", "properties": {}}, {"species": [{"element": "P", "occu": 1}], "abc": [0.80668068, 0.74999911, 0.24998424000000002], "xyz": [4.015532196215281, 4.613388525439119, 13.192731527772722], "label": "P", "properties": {}}, {"species": [{"element": "P", "occu": 1}], "abc": [0.19399437, 0.25000488, 0.21434048], "xyz": [0.96567409872702, 1.5378280178169599, 11.311658719661441], "label": "P", "properties": {}}, {"species": [{"element": "P", "occu": 1}], "abc": [0.69137819, 0.74999461, 0.35070062], "xyz": [3.4415741575787404, 4.61336084507512, 18.50796324713686], "label": "P", "properties": {}}, {"species": [{"element": "P", "occu": 1}], "abc": [0.80559578, 0.75006576, 0.45115036999999997], "xyz": [4.0101317310898805, 4.6137985023859205, 23.80912376742361], "label": "P", "properties": {}}, {"species": [{"element": "P", "occu": 1}], "abc": [0.1903498, 0.25010207, 0.41541196], "xyz": [0.9475319905308002, 1.53842585216744, 21.92305587626588], "label": "P", "properties": {}}, {"species": [{"element": "O", "occu": 1}], "abc": [0.20530883, 0.45723648, 0.09973393], "xyz": [1.02199573818018, 2.81254937788416, 5.26338365450429], "label": "O", "properties": {}}, {"species": [{"element": "O", "occu": 1}], "abc": [0.70448586, 0.54314449, 0.06298714999999999], "xyz": [3.5068221202575605, 3.34098604173208, 3.3240997898489497], "label": "O", "properties": {}}, {"species": [{"element": "O", "occu": 1}], "abc": [0.29722343, 0.45845715, 0.00010641000000000816], "xyz": [1.4795324621317802, 2.8200579534228, 0.005615708261730431], "label": "O", "properties": {}}, {"species": [{"element": "O", "occu": 1}], "abc": [0.29724949, 0.04153819, 0.00010000000000000286], "xyz": [1.47966218479854, 0.25550938202248, 0.005277425300000151], "label": "O", "properties": {}}, {"species": [{"element": "O", "occu": 1}], "abc": [0.70461552, 0.95674396, 0.06298839], "xyz": [3.5074675477699206, 5.8851157928003195, 3.3241652299226705], "label": "O", "properties": {}}, {"species": [{"element": "O", "occu": 1}], "abc": [0.20536528, 0.04273614, 0.09973563999999999], "xyz": [1.0222767375868802, 0.26287820247888, 5.26347389847692], "label": "O", "properties": {}}, {"species": [{"element": "O", "occu": 1}], "abc": [0.79954874, 0.75003402, 0.12178748], "xyz": [3.9800304972140403, 4.613603263551839, 6.427243281752441], "label": "O", "properties": {}}, {"species": [{"element": "O", "occu": 1}], "abc": [0.20525453, 0.24999177, 0.14156538], "xyz": [1.02172544114238, 1.53774737568984, 7.4710071801611395], "label": "O", "properties": {}}, {"species": [{"element": "O", "occu": 1}], "abc": [0.29158402, 0.24985106, 0.04167835000000001], "xyz": [1.45146034762092, 1.5368818414635201, 2.1995437875225505], "label": "O", "properties": {}}, {"species": [{"element": "O", "occu": 1}], "abc": [0.70933067, 0.74997421, 0.021046020000000006], "xyz": [3.5309388383368208, 4.61323536075832, 1.1106879841230604], "label": "O", "properties": {}}, {"species": [{"element": "O", "occu": 1}], "abc": [0.62219377, 0.249994, 0.11351715000000001], "xyz": [3.09718476921942, 1.5377610928479999, 5.99078279393895], "label": "O", "properties": {}}, {"species": [{"element": "O", "occu": 1}], "abc": [0.1220418, 0.74986911, 0.04935152], "xyz": [0.6075052859628001, 4.61258887047912, 2.60448960241456], "label": "O", "properties": {}}, {"species": [{"element": "O", "occu": 1}], "abc": [0.87779821, 0.24999985, 0.013263879999999999], "xyz": [4.36954430845566, 1.5377970773212, 0.69999135888164], "label": "O", "properties": {}}, {"species": [{"element": "O", "occu": 1}], "abc": [0.20204977, 0.45718372, 0.30077342], "xyz": [1.00577263939542, 2.81222484099424, 15.87309256275526], "label": "O", "properties": {}}, {"species": [{"element": "O", "occu": 1}], "abc": [0.79830776, 0.54281403, 0.16365657], "xyz": [3.9738530898849604, 3.3389533188237595, 8.63685323029221], "label": "O", "properties": {}}, {"species": [{"element": "O", "occu": 1}], "abc": [0.70376397, 0.54305289, 0.26407071], "xyz": [3.5032286630086205, 3.34042259254488, 13.93613445942963], "label": "O", "properties": {}}, {"species": [{"element": "O", "occu": 1}], "abc": [0.29682261, 0.45692665, 0.20024841999999998], "xyz": [1.4775372418980601, 2.8106435540667998, 10.56796077993026], "label": "O", "properties": {}}, {"species": [{"element": "O", "occu": 1}], "abc": [0.2968355, 0.04307116, 0.20025133], "xyz": [1.477601406333, 0.26493897482272, 10.568114353006491], "label": "O", "properties": {}}, {"species": [{"element": "O", "occu": 1}], "abc": [0.70376283, 0.95693621, 0.26407307], "xyz": [3.50322298826418, 5.8862983594623195, 13.936259006666711], "label": "O", "properties": {}}, {"species": [{"element": "O", "occu": 1}], "abc": [0.79831732, 0.95719213, 0.16365918], "xyz": [3.97390067809272, 5.88787257251896, 8.636990971092539], "label": "O", "properties": {}}, {"species": [{"element": "O", "occu": 1}], "abc": [0.20206312, 0.04284318, 0.30077119], "xyz": [1.00583909363952, 0.26353662607056, 15.872974876171071], "label": "O", "properties": {}}, {"species": [{"element": "O", "occu": 1}], "abc": [0.79463008, 0.75002433, 0.3228696], "xyz": [3.9555461652076804, 4.61354365850136, 17.0392019564088], "label": "O", "properties": {}}, {"species": [{"element": "O", "occu": 1}], "abc": [0.20076293, 0.2499967, 0.34266575], "xyz": [0.9993669480487801, 1.5377777010664, 18.08392898493475], "label": "O", "properties": {}}, {"species": [{"element": "O", "occu": 1}], "abc": [0.29858293, 0.2499974, 0.24211117999999998], "xyz": [1.4862998437687802, 1.5377820069008001, 12.77723666744854], "label": "O", "properties": {}}, {"species": [{"element": "O", "occu": 1}], "abc": [0.70225438, 0.75000738, 0.22220964999999998], "xyz": [3.49571415646548, 4.61343939579696, 11.726948288141449], "label": "O", "properties": {}}, {"species": [{"element": "O", "occu": 1}], "abc": [0.61812696, 0.25002322, 0.31470011999999997], "xyz": [3.07694081532816, 1.5379408306782398, 16.60806375201036], "label": "O", "properties": {}}, {"species": [{"element": "O", "occu": 1}], "abc": [0.38214185, 0.75000705, 0.14970648], "xyz": [1.9022432794551003, 4.6134373659036, 7.90064765125944], "label": "O", "properties": {}}, {"species": [{"element": "O", "occu": 1}], "abc": [0.12016131, 0.74999997, 0.25004277], "xyz": [0.5981444963382601, 4.6133938154642395, 13.195820404800811], "label": "O", "properties": {}}, {"species": [{"element": "O", "occu": 1}], "abc": [0.88054079, 0.249999, 0.21429335], "xyz": [4.383196449338341, 1.537791848808, 11.30917146911755], "label": "O", "properties": {}}, {"species": [{"element": "O", "occu": 1}], "abc": [0.79426797, 0.54283966, 0.36473801], "xyz": [3.9537436373926207, 3.33911097387472, 19.24877601845653], "label": "O", "properties": {}}, {"species": [{"element": "O", "occu": 1}], "abc": [0.70260685, 0.54154685, 0.46441056], "xyz": [3.4974686978451004, 3.3311586513452003, 24.50892038931168], "label": "O", "properties": {}}, {"species": [{"element": "O", "occu": 1}], "abc": [0.29508271, 0.45702737, 0.40152547], "xyz": [1.4688762876426602, 2.81126310212504, 21.19020673972391], "label": "O", "properties": {}}, {"species": [{"element": "O", "occu": 1}], "abc": [0.29514845, 0.0431496, 0.40153413], "xyz": [1.4692035312387002, 0.2654214743232, 21.19066376475489], "label": "O", "properties": {}}, {"species": [{"element": "O", "occu": 1}], "abc": [0.70270608, 0.95869591, 0.46439117999999996], "xyz": [3.4979626495036804, 5.89712261202472, 24.50789762428854], "label": "O", "properties": {}}, {"species": [{"element": "O", "occu": 1}], "abc": [0.79433671, 0.95707395, 0.36474843], "xyz": [3.95408581452666, 5.8871456246484, 19.24932592617279], "label": "O", "properties": {}}, {"species": [{"element": "O", "occu": 1}], "abc": [0.29064258, 0.25014453, 0.44345236], "xyz": [1.44677400428268, 1.5386870317797599, 23.40286704008708], "label": "O", "properties": {}}, {"species": [{"element": "O", "occu": 1}], "abc": [0.70819661, 0.75003441, 0.42286395], "xyz": [3.5252936623020603, 4.61360566251672, 22.31632908187935], "label": "O", "properties": {}}, {"species": [{"element": "O", "occu": 1}], "abc": [0.37756149, 0.75001532, 0.35089152], "xyz": [1.87944295275054, 4.61348823626144, 18.51803785203456], "label": "O", "properties": {}}, {"species": [{"element": "O", "occu": 1}], "abc": [0.12191744, 0.75002637, 0.45127902999999997], "xyz": [0.60688624103424, 4.6135562069330405, 23.81591370281459], "label": "O", "properties": {}}, {"species": [{"element": "O", "occu": 1}], "abc": [0.87777992, 0.25008057, 0.41515039], "xyz": [4.3694532636523205, 1.53829360153944, 21.90925171490867], "label": "O", "properties": {}}]}, "formula": "(Li3PO4)10.0", "bandgap": 4.9216, "slab_thickness": 24.50364296401168}