{"miller": "001_0.12", "final_energy": -501.47622263, "gamma": 0.030496198425506327, "work_function": "Not calculated", "ionization_potentail": "Not calculated", "electron_affinity": "Not calculated", "is_stochiometric": true, "incar_parameters": {"SYSTEM": "unknown system", "LCOMPAT": false, "PREC": "normal", "ENMAX": 520.0, "ENAUG": 628.945, "EDIFF": 1e-05, "IALGO": 38, "IWAVPR": 11, "NBANDS": 232, "NBANDSLOW": -1, "NBANDSHIGH": -1, "NELECT": 380.0, "TURBO": 0, "IRESTART": 0, "NREBOOT": 0, "NMIN": 0, "EREF": 0.0, "ISMEAR": 0, "SIGMA": 0.05, "KSPACING": 0.5, "KGAMMA": true, "KBLOWUP": true, "LREAL": true, "ROPT": [-0.0005, -0.0005, -0.0005], "LMAXPAW": -100, "LMAXMIX": 2, "NLSPLINE": false, "ISTART": 0, "ICHARG": 2, "INIWAV": 1, "ISPIN": 1, "LNONCOLLINEAR": false, "MAGMOM": [0.6, 0.6, 0.6, 0.6, 0.6, 0.6, 0.6, 0.6, 0.6, 0.6, 0.6, 0.6, 0.6, 0.6, 0.6, 0.6, 0.6, 0.6, 0.6, 0.6, 0.6, 0.6, 0.6, 0.6, 0.6, 0.6, 0.6, 0.6, 0.6, 0.6, 0.6, 0.6, 0.6, 0.6, 0.6, 0.6, 0.6, 0.6, 0.6, 0.6, 0.6, 0.6, 0.6, 0.6, 0.6, 0.6, 0.6, 0.6, 0.6, 0.6, 0.6, 0.6, 0.6, 0.6, 0.6, 0.6, 0.6, 0.6, 0.6, 0.6, 0.6, 0.6, 0.6, 0.6, 0.6, 0.6, 0.6, 0.6, 0.6, 0.6, 0.6, 0.6, 0.6, 0.6, 0.6, 0.6, 0.6, 0.6, 0.6, 0.6], "NUPDOWN": -1.0, "LSORBIT": false, "SAXIS": [0.0, 0.0, 1.0], "LSPIRAL": false, "QSPIRAL": [0.0, 0.0, 0.0], "LZEROZ": false, "LASPH": false, "LMETAGGA": false, "NELM": 100, "NELMDL": -5, "NELMIN": 6, "ENINI": 520.0, "LDIAG": true, "LSUBROT": false, "WEIMIN": 0.001, "EBREAK": 1e-08, "DEPER": 0.3, "NRMM": 4, "TIME": 0.4, "AMIX": 0.4, "BMIX": 1.0, "AMIN": 0.1, "AMIX_MAG": 1.6, "BMIX_MAG": 1.0, "IMIX": 4, "MIXFIRST": false, "MAXMIX": -45, "WC": 100.0, "INIMIX": 1, "MIXPRE": 1, "MREMOVE": 5, "LDIPOL": false, "LMONO": false, "IDIPOL": 0, "EPSILON": 1.0, "DIPOL": [-100.0, -100.0, -100.0], "EFIELD": 0.0, "NGX": 28, "NGY": 36, "NGZ": 294, "NGXF": 56, "NGYF": 72, "NGZF": 588, "ADDGRID": false, "NSW": 150, "IBRION": 2, "MDALGO": 0, "ISIF": 2, "PSTRESS": 0.0, "EDIFFG": -0.01, "NFREE": 1, "POTIM": 0.5, "SMASS": -3.0, "SCALEE": 1.0, "TEBEG": 0.0001, "TEEND": 0.0001, "NBLOCK": 1, "KBLOCK": 150, "NPACO": 256, "APACO": 10.0, "ISYM": 0, "SYMPREC": 1e-05, "LORBIT": 11, "RWIGS": [-1.0, -1.0, -1.0], "NEDOS": 301, "EMIN": 10.0, "EMAX": -10.0, "EFERMI": 0.0, "NWRITE": 2, "LWAVE": false, "LDOWNSAMPLE": false, "LCHARG": false, "LPARD": false, "LVTOT": false, "LVHAR": false, "LELF": false, "LOPTICS": false, "STM": [0.0, 0.0, 0.0, 0.0, 0.0, 0.0, 0.0], "NPAR": 2, "NSIM": 4, "NBLK": -1, "LPLANE": true, "LSCALAPACK": true, "LSCAAWARE": false, "LSCALU": false, "LASYNC": false, "LORBITALREAL": false, "IDIOT": 3, "PHON_NSTRUCT": -1, "LMUSIC": false, "POMASS": [7.01, 30.974, 16.0], "DARWINR": [0.0, 0.0, 0.0], "DARWINV": [1.0, 1.0, 1.0], "LCORR": true, "GGA_COMPAT": true, "LBERRY": false, "ICORELEVEL": 0, "LDAU": false, "I_CONSTRAINED_M": 0, "GGA": "--", "VOSKOWN": 0, "LHFCALC": false, "PRECFOCK": "", "LSYMGRAD": false, "LHFONE": false, "LRHFCALC": false, "LTHOMAS": false, "LMODELHF": false, "LFOCKACE": false, "ENCUT4O": -1.0, "EXXOEP": 0, "FOURORBIT": 0, "AEXX": 0.0, "HFALPHA": 0.0, "MCALPHA": 0.0, "ALDAX": 1.0, "AGGAX": 1.0, "ALDAC": 1.0, "AGGAC": 1.0, "NKREDX": 1, "NKREDY": 1, "NKREDZ": 1, "SHIFTRED": false, "ODDONLY": false, "EVENONLY": false, "LMAXFOCK": 0, "NMAXFOCKAE": 0, "LFOCKAEDFT": false, "HFSCREEN": 0.0, "HFSCREENC": 0.0, "NBANDSGWLOW": 0, "LUSE_VDW": false, "Zab_VDW": -0.8491, "PARAM1": 0.1234, "PARAM2": 1.0, "PARAM3": 0.0, "MODEL_GW": 0, "MODEL_EPS0": 12.11948311, "MODEL_ALPHA": 1.0, "LEPSILON": false, "LRPA": false, "LNABLA": false, "LVEL": false, "CSHIFT": 0.1, "OMEGAMAX": -1.0, "DEG_THRESHOLD": 0.002, "RTIME": -0.1, "WPLASMAI": 0.0, "DFIELD": [0.0, 0.0, 0.0], "WPLASMA": [0.0, 0.0, 0.0, 0.0, 0.0, 0.0, 0.0, 0.0, 0.0], "NUCIND": false, "MAGPOS": [0.0, 0.0, 0.0], "LNICSALL": true, "ORBITALMAG": false, "LMAGBLOCH": false, "LCHIMAG": false, "LGAUGE": true, "MAGATOM": 0, "MAGDIPOL": [0.0, 0.0, 0.0], "AVECCONST": [0.0, 0.0, 0.0], "LFINITE_TEMPERATURE": false, "LADDER": false, "LRPAFORCE": false, "LFXC": false, "LHARTREE": true, "IBSE": 0, "KPOINT": [-1, 0, 0, 0], "LTCTC": false, "LTCTE": false, "LTETE": false, "LTRIPLET": false, "LFXCEPS": false, "LFXHEG": false, "NATURALO": 2, "LHOLEGF": false, "L2ORDER": false, "LDMP1": false, "LMP2LT": false, "LSMP2LT": false, "LGWLF": false, "ENCUTGW": -2.0, "ENCUTGWSOFT": -2.0, "ENCUTLF": -1.0, "LESF_SPLINES": false, "LMAXMP2": -1, "SCISSOR": 0.0, "NOMEGA": 0, "NOMEGAR": 0, "NBANDSGW": -1, "NBANDSO": -1, "NBANDSV": -1, "NELMGW": 1, "NELMHF": 1, "DIM": 3, "IESPILON": 4, "ANTIRES": 0, "OMEGAMIN": -30.0, "OMEGATL": -200.0, "OMEGAGRID": 0, "LSELFENERGY": false, "LSPECTRAL": false, "LSPECTRALGW": false, "LSINGLES": false, "LFERMIGW": false, "ODDONLYGW": false, "EVENONLYGW": false, "NKREDLFX": 1, "NKREDLFY": 1, "NKREDLFZ": 1, "MAXMEM": 2800, "TELESCOPE": 0, "NTAUPAR": -1, "NOMEGAPAR": -1, "DAMP_NEWTON": 0.80000001, "LAMBDA": 1.0, "OFIELD_KAPPA": 0.0, "OFIELD_K": [0.0, 0.0, 0.0], "OFIELD_Q6_NEAR": 0.0, "OFIELD_Q6_FAR": 0.0, "OFIELD_A": 0.0, "KPOINTS_OPT_MODE": 1, "LKPOINTS_OPT": false, "@module": "pymatgen.io.vasp.inputs", "@class": "Incar"}, "relaxed_structures": {"@module": "pymatgen.core.structure", "@class": "Structure", "charge": 0, "lattice": {"matrix": [[4.977846, 0.0, 0.0], [0.0, 6.151192, 0.0], [0.0, 0.0, 52.774253]], "a": 4.977846, "b": 6.151192, "c": 52.774253, "alpha": 90.0, "beta": 90.0, "gamma": 90.0, "volume": 1615.9310817322892}, "sites": [{"species": [{"element": "Li", "occu": 1}], "abc": [0.80401044, 0.49847154, 0.09879721], "xyz": [4.002240152712241, 3.06619414907568, 5.21394895623413], "label": "Li", "properties": {}}, {"species": [{"element": "Li", "occu": 1}], "abc": [0.30373394, 0.50047297, 0.06402554], "xyz": [1.5119407782932401, 3.0785053292802402, 3.3789000464216206], "label": "Li", "properties": {}}, {"species": [{"element": "Li", "occu": 1}], "abc": [0.67643252, 0.49022335, 0.0020265300000000055], "xyz": [3.36717691395192, 3.0154579487332, 0.1069486069320903], "label": "Li", "properties": {}}, {"species": [{"element": "Li", "occu": 1}], "abc": [0.67643312, 0.00978074, 0.0020258500000000026], "xyz": [3.3671799006595204, 0.060163209642079996, 0.10691272044005014], "label": "Li", "properties": {}}, {"species": [{"element": "Li", "occu": 1}], "abc": [0.30357534, 0.99939741, 0.06399891], "xyz": [1.5111512919176402, 6.14748535321272, 3.3774946680642306], "label": "Li", "properties": {}}, {"species": [{"element": "Li", "occu": 1}], "abc": [0.80400635, 0.00153554, 0.09879749000000002], "xyz": [4.002219793322101, 0.00944540136368, 5.213963733024971], "label": "Li", "properties": {}}, {"species": [{"element": "Li", "occu": 1}], "abc": [0.20547808, 0.75000455, 0.11629214000000002], "xyz": [1.02283823861568, 4.6134219879236, 6.137230818271421], "label": "Li", "properties": {}}, {"species": [{"element": "Li", "occu": 1}], "abc": [0.79983229, 0.25000304, 0.14648057], "xyz": [3.9814419654473405, 1.53781669962368, 7.73040266076421], "label": "Li", "properties": {}}, {"species": [{"element": "Li", "occu": 1}], "abc": [0.70939059, 0.24999401, 0.04682381000000001], "xyz": [3.5312371108691405, 1.53776115435992, 2.4710915953639305], "label": "Li", "properties": {}}, {"species": [{"element": "Li", "occu": 1}], "abc": [0.27262314, 0.74999747, 0.014919860000000007], "xyz": [1.35707600695644, 4.61337843748424, 0.7873844663645804], "label": "Li", "properties": {}}, {"species": [{"element": "Li", "occu": 1}], "abc": [0.80046297, 0.49818956, 0.29943607000000005], "xyz": [3.98458139336262, 3.06445963595552, 15.802514915505713], "label": "Li", "properties": {}}, {"species": [{"element": "Li", "occu": 1}], "abc": [0.19773205, 0.50209272, 0.16434482], "xyz": [0.9842796941643001, 3.0884687225222405, 8.67317510991946], "label": "Li", "properties": {}}, {"species": [{"element": "Li", "occu": 1}], "abc": [0.29932793, 0.50104844, 0.26484847], "xyz": [1.4900083390387802, 3.0820451557404804, 13.977180162442911], "label": "Li", "properties": {}}, {"species": [{"element": "Li", "occu": 1}], "abc": [0.69716927, 0.49852986, 0.19886402], "xyz": [3.47040126199242, 3.06655288659312, 10.494900104077061], "label": "Li", "properties": {}}, {"species": [{"element": "Li", "occu": 1}], "abc": [0.69716816, 0.00147873, 0.19886393], "xyz": [3.4703957365833604, 0.00909595214616, 10.49489535439429], "label": "Li", "properties": {}}, {"species": [{"element": "Li", "occu": 1}], "abc": [0.29932601, 0.99895902, 0.26484910000000006], "xyz": [1.48999878157446, 6.144788732151841, 13.977213410222303], "label": "Li", "properties": {}}, {"species": [{"element": "Li", "occu": 1}], "abc": [0.19773032, 0.99791035, 0.16434445], "xyz": [0.98427108249072, 6.1383381616372, 8.673155583445851], "label": "Li", "properties": {}}, {"species": [{"element": "Li", "occu": 1}], "abc": [0.80045778, 0.0018345, 0.2994365], "xyz": [3.9845555583418806, 0.011284361724, 15.8025376084345], "label": "Li", "properties": {}}, {"species": [{"element": "Li", "occu": 1}], "abc": [0.19903618, 0.75001797, 0.31741333000000005], "xyz": [0.9907714524682801, 4.6135045369202405, 16.751251382992493], "label": "Li", "properties": {}}, {"species": [{"element": "Li", "occu": 1}], "abc": [0.79490194, 0.25000771, 0.34725174999999997], "xyz": [3.9568994424212405, 1.53784542569032, 18.32595170919275], "label": "Li", "properties": {}}, {"species": [{"element": "Li", "occu": 1}], "abc": [0.70172814, 0.25000215, 0.24673098000000002], "xyz": [3.49309461478644, 1.5378112250627998, 13.021043161457941], "label": "Li", "properties": {}}, {"species": [{"element": "Li", "occu": 1}], "abc": [0.29625424, 0.75000334, 0.21697869], "xyz": [1.4747079835670402, 4.61341454498128, 11.45088828166857], "label": "Li", "properties": {}}, {"species": [{"element": "Li", "occu": 1}], "abc": [0.19678087, 0.50180843, 0.36508266], "xyz": [0.97954486660602, 3.08672000014856, 19.26696466475298], "label": "Li", "properties": {}}, {"species": [{"element": "Li", "occu": 1}], "abc": [0.32283356, 0.50972427, 0.46165833], "xyz": [1.6070157453117602, 3.13541185182984, 24.36367350697749], "label": "Li", "properties": {}}, {"species": [{"element": "Li", "occu": 1}], "abc": [0.69899423, 0.49916, 0.39971506999999995], "xyz": [3.4794856318285805, 3.0704289987199997, 21.094664232092708], "label": "Li", "properties": {}}, {"species": [{"element": "Li", "occu": 1}], "abc": [0.69899094, 0.00084536, 0.39971577999999996], "xyz": [3.47946925471524, 0.00519997166912, 21.09470170181234], "label": "Li", "properties": {}}, {"species": [{"element": "Li", "occu": 1}], "abc": [0.32277959, 0.99045851, 0.46166227000000004], "xyz": [1.60674709096314, 6.09250046304392, 24.363881437534314], "label": "Li", "properties": {}}, {"species": [{"element": "Li", "occu": 1}], "abc": [0.19676625, 0.99818053, 0.36507526999999995], "xyz": [0.9794720904975001, 6.14000009069176, 19.26657466302331], "label": "Li", "properties": {}}, {"species": [{"element": "Li", "occu": 1}], "abc": [0.7248946, 0.24973142, 0.44860564999999997], "xyz": [3.6084136850316, 1.53614591285264, 23.67482807032945], "label": "Li", "properties": {}}, {"species": [{"element": "Li", "occu": 1}], "abc": [0.29726083, 0.74998002, 0.41690759], "xyz": [1.47971863357218, 4.61327109918384, 22.00198663228027], "label": "Li", "properties": {}}, {"species": [{"element": "P", "occu": 1}], "abc": [0.30812788, 0.24999603, 0.11373227], "xyz": [1.5338131349464803, 1.53777357976776, 6.00213559124431], "label": "P", "properties": {}}, {"species": [{"element": "P", "occu": 1}], "abc": [0.6940432, 0.75000366, 0.14923366000000002], "xyz": [3.4548401669472, 4.613416513362719, 7.875694928955981], "label": "P", "properties": {}}, {"species": [{"element": "P", "occu": 1}], "abc": [0.81104655, 0.74998193, 0.04912693], "xyz": [4.0372648247313005, 4.61328284796056, 2.59263703293329], "label": "P", "properties": {}}, {"species": [{"element": "P", "occu": 1}], "abc": [0.19441032, 0.2499849, 0.013327210000000006], "xyz": [0.9677446337707201, 1.5377051170008, 0.7033335523241303], "label": "P", "properties": {}}, {"species": [{"element": "P", "occu": 1}], "abc": [0.3054223, 0.25003246, 0.31453074000000003], "xyz": [1.5203451743658, 1.5379976676923202, 16.59912484903722], "label": "P", "properties": {}}, {"species": [{"element": "P", "occu": 1}], "abc": [0.69227289, 0.75001784, 0.34998775000000004], "xyz": [3.4460278363949404, 4.6135037372652805, 18.470342065400754], "label": "P", "properties": {}}, {"species": [{"element": "P", "occu": 1}], "abc": [0.80518437, 0.74999846, 0.24969602], "xyz": [4.00808379546702, 4.61338452716432, 13.17752093257306], "label": "P", "properties": {}}, {"species": [{"element": "P", "occu": 1}], "abc": [0.19252414, 0.25000939, 0.21397911], "xyz": [0.9583555202024401, 1.53785575969288, 11.29258768785483], "label": "P", "properties": {}}, {"species": [{"element": "P", "occu": 1}], "abc": [0.80596911, 0.74995679, 0.45034694], "xyz": [4.01199011033706, 4.6131282069936805, 23.76672334933582], "label": "P", "properties": {}}, {"species": [{"element": "P", "occu": 1}], "abc": [0.19150353, 0.25002168, 0.41457849], "xyz": [0.9532750807963801, 1.5379313578425602, 21.87907011961797], "label": "P", "properties": {}}, {"species": [{"element": "O", "occu": 1}], "abc": [0.20519416, 0.45708371, 0.09970317000000001], "xyz": [1.02142492857936, 2.8116096602823197, 5.26176031848201], "label": "O", "properties": {}}, {"species": [{"element": "O", "occu": 1}], "abc": [0.70558162, 0.54297654, 0.06295052000000001], "xyz": [3.5122766447905205, 3.3399529490356796, 3.3221666689615605], "label": "O", "properties": {}}, {"species": [{"element": "O", "occu": 1}], "abc": [0.2979092, 0.45860637, 0.0001010500000000053], "xyz": [1.4829461195832, 2.8209758342930398, 0.00533283826565028], "label": "O", "properties": {}}, {"species": [{"element": "O", "occu": 1}], "abc": [0.29794788, 0.04137615, 0.00010000000000000286], "xyz": [1.4831386626664802, 0.2545126428708, 0.005277425300000151], "label": "O", "properties": {}}, {"species": [{"element": "O", "occu": 1}], "abc": [0.70554851, 0.95698155, 0.0629514], "xyz": [3.51211182830946, 5.8865772545076, 3.3222131103042005], "label": "O", "properties": {}}, {"species": [{"element": "O", "occu": 1}], "abc": [0.20518663, 0.04291573, 0.09970286], "xyz": [1.0213874453989802, 0.26398289505016, 5.261743958463581], "label": "O", "properties": {}}, {"species": [{"element": "O", "occu": 1}], "abc": [0.79857963, 0.74999805, 0.12146100000000001], "xyz": [3.97520641687698, 4.6133820051756, 6.410013543633001], "label": "O", "properties": {}}, {"species": [{"element": "O", "occu": 1}], "abc": [0.20431534, 0.25001015, 0.14152191], "xyz": [1.0170502979576401, 1.5378604345987998, 7.46871308338323], "label": "O", "properties": {}}, {"species": [{"element": "O", "occu": 1}], "abc": [0.29036979, 0.2499853, 0.04166209], "xyz": [1.4454160976723402, 1.5377075774776, 2.19868567816877], "label": "O", "properties": {}}, {"species": [{"element": "O", "occu": 1}], "abc": [0.7124996, 0.74998671, 0.02102881000000001], "xyz": [3.5467132838616005, 4.6133122506583195, 1.1097797392289306], "label": "O", "properties": {}}, {"species": [{"element": "O", "occu": 1}], "abc": [0.62180227, 0.25001019, 0.11354751000000002], "xyz": [3.09523594251042, 1.53786068064648, 5.9923850202600315], "label": "O", "properties": {}}, {"species": [{"element": "O", "occu": 1}], "abc": [0.38063938, 0.7499918, 0.14935255], "xyz": [1.8947642151754802, 4.6133435602256, 7.8819692598951505], "label": "O", "properties": {}}, {"species": [{"element": "O", "occu": 1}], "abc": [0.12362848, 0.74996696, 0.04948946], "xyz": [0.61540353465408, 4.61319076461632, 2.61176928287338], "label": "O", "properties": {}}, {"species": [{"element": "O", "occu": 1}], "abc": [0.87796065, 0.25000092, 0.013029280000000004], "xyz": [4.370352909759901, 1.5378036590966402, 0.6876105191278402], "label": "O", "properties": {}}, {"species": [{"element": "O", "occu": 1}], "abc": [0.2025604, 0.45708186, 0.30047418000000004], "xyz": [1.0083144768984, 2.8115982805771202, 15.857300395287542], "label": "O", "properties": {}}, {"species": [{"element": "O", "occu": 1}], "abc": [0.79683533, 0.54301141, 0.16330901], "xyz": [3.96652356009918, 3.3401674411007196, 8.61851101091953], "label": "O", "properties": {}}, {"species": [{"element": "O", "occu": 1}], "abc": [0.7025142, 0.54283594, 0.26375554], "xyz": [3.4970075004132, 3.33908809144048, 13.919501598111621], "label": "O", "properties": {}}, {"species": [{"element": "O", "occu": 1}], "abc": [0.29568456, 0.45708263, 0.19993785], "xyz": [1.47187220425776, 2.81160301699496, 10.55157068017605], "label": "O", "properties": {}}, {"species": [{"element": "O", "occu": 1}], "abc": [0.29568582, 0.04294042, 0.19993736], "xyz": [1.47187847634372, 0.26413476798064, 10.551544820792081], "label": "O", "properties": {}}, {"species": [{"element": "O", "occu": 1}], "abc": [0.70252285, 0.95716284, 0.26375569], "xyz": [3.4970505587811003, 5.887692404105279, 13.91950951424957], "label": "O", "properties": {}}, {"species": [{"element": "O", "occu": 1}], "abc": [0.79680032, 0.95700951, 0.16330841000000001], "xyz": [3.9663492857107205, 5.88674924183592, 8.618479346367732], "label": "O", "properties": {}}, {"species": [{"element": "O", "occu": 1}], "abc": [0.20260723, 0.042989, 0.30046939000000006], "xyz": [1.00854758942658, 0.264433592888, 15.857047606615673], "label": "O", "properties": {}}, {"species": [{"element": "O", "occu": 1}], "abc": [0.79560808, 0.7500125, 0.32217983000000006], "xyz": [3.9604144985956804, 4.613470889899999, 17.002799859916994], "label": "O", "properties": {}}, {"species": [{"element": "O", "occu": 1}], "abc": [0.2017543, 0.25002035, 0.34232437000000004], "xyz": [1.0043018352378001, 1.5379231767572, 18.06591291044561], "label": "O", "properties": {}}, {"species": [{"element": "O", "occu": 1}], "abc": [0.29589837, 0.25000167, 0.24179519000000002], "xyz": [1.4729365175110203, 1.5378082724906401, 12.76056053124307], "label": "O", "properties": {}}, {"species": [{"element": "O", "occu": 1}], "abc": [0.70148091, 0.75000483, 0.22189191], "xyz": [3.4918639419198603, 4.61342371025736, 11.71017979699323], "label": "O", "properties": {}}, {"species": [{"element": "O", "occu": 1}], "abc": [0.61889505, 0.25002699, 0.31438427999999996], "xyz": [3.0807642490623004, 1.53796402067208, 16.591395531942837], "label": "O", "properties": {}}, {"species": [{"element": "O", "occu": 1}], "abc": [0.37868165, 0.75001014, 0.35023454], "xyz": [1.8850189367259, 4.61345637308688, 18.48336622329862], "label": "O", "properties": {}}, {"species": [{"element": "O", "occu": 1}], "abc": [0.11874601, 0.74999785, 0.24986451], "xyz": [0.5910993508944601, 4.6133807749372, 13.186412866461032], "label": "O", "properties": {}}, {"species": [{"element": "O", "occu": 1}], "abc": [0.87894471, 0.25000919, 0.21379373999999998], "xyz": [4.37525140889466, 1.5378545294544799, 11.282804924576219], "label": "O", "properties": {}}, {"species": [{"element": "O", "occu": 1}], "abc": [0.79547251, 0.54296551, 0.36400204999999997], "xyz": [3.95973965201346, 3.33988510138792, 19.20993627921865], "label": "O", "properties": {}}, {"species": [{"element": "O", "occu": 1}], "abc": [0.70221715, 0.54132502, 0.4635485100000001], "xyz": [3.4955288312589, 3.3297941324238405, 24.463426344513035], "label": "O", "properties": {}}, {"species": [{"element": "O", "occu": 1}], "abc": [0.29722229, 0.45693626, 0.40076857], "xyz": [1.4795267873873401, 2.81070266702192, 21.15026190762821], "label": "O", "properties": {}}, {"species": [{"element": "O", "occu": 1}], "abc": [0.29731438, 0.04313472, 0.40076703], "xyz": [1.47998519722548, 0.26532994458624, 21.15018063527859], "label": "O", "properties": {}}, {"species": [{"element": "O", "occu": 1}], "abc": [0.70210385, 0.95855385, 0.46355349], "xyz": [3.4949648413071004, 5.896248773689201, 24.463689160292972], "label": "O", "properties": {}}, {"species": [{"element": "O", "occu": 1}], "abc": [0.79548284, 0.95706562, 0.36400347], "xyz": [3.9597910731626405, 5.88709438521904, 19.21001121865791], "label": "O", "properties": {}}, {"species": [{"element": "O", "occu": 1}], "abc": [0.28990902, 0.25003947, 0.44268018], "xyz": [1.4431224555709201, 1.5380407875482398, 23.362115817405538], "label": "O", "properties": {}}, {"species": [{"element": "O", "occu": 1}], "abc": [0.70995584, 0.74998213, 0.42201822], "xyz": [3.53405083832064, 4.61328407819896, 22.27169631288966], "label": "O", "properties": {}}, {"species": [{"element": "O", "occu": 1}], "abc": [0.12240771, 0.75007107, 0.45059046999999997], "xyz": [0.6093267295926601, 4.61383116521544, 23.779575463168907], "label": "O", "properties": {}}, {"species": [{"element": "O", "occu": 1}], "abc": [0.87891553, 0.24999246, 0.41419265000000005], "xyz": [4.37510615534838, 1.53775162001232, 21.858707701840455], "label": "O", "properties": {}}]}, "formula": "(Li3PO4)10.0", "bandgap": 4.8804, "slab_thickness": 24.45841173499297}