{"miller": "001_0.25", "final_energy": -602.13820686, "gamma": 0.03060681206620461, "work_function": "Not calculated", "ionization_potentail": "Not calculated", "electron_affinity": "Not calculated", "is_stochiometric": true, "incar_parameters": {"SYSTEM": "unknown system", "LCOMPAT": false, "PREC": "normal", "ENMAX": 520.0, "ENAUG": 628.945, "EDIFF": 1e-05, "IALGO": 38, "IWAVPR": 11, "NBANDS": 278, "NBANDSLOW": -1, "NBANDSHIGH": -1, "NELECT": 456.0, "TURBO": 0, "IRESTART": 0, "NREBOOT": 0, "NMIN": 0, "EREF": 0.0, "ISMEAR": 0, "SIGMA": 0.05, "KSPACING": 0.5, "KGAMMA": true, "KBLOWUP": true, "LREAL": true, "ROPT": [-0.0005, -0.0005, -0.0005], "LMAXPAW": -100, "LMAXMIX": 2, "NLSPLINE": false, "ISTART": 0, "ICHARG": 2, "INIWAV": 1, "ISPIN": 1, "LNONCOLLINEAR": false, "MAGMOM": [0.6, 0.6, 0.6, 0.6, 0.6, 0.6, 0.6, 0.6, 0.6, 0.6, 0.6, 0.6, 0.6, 0.6, 0.6, 0.6, 0.6, 0.6, 0.6, 0.6, 0.6, 0.6, 0.6, 0.6, 0.6, 0.6, 0.6, 0.6, 0.6, 0.6, 0.6, 0.6, 0.6, 0.6, 0.6, 0.6, 0.6, 0.6, 0.6, 0.6, 0.6, 0.6, 0.6, 0.6, 0.6, 0.6, 0.6, 0.6, 0.6, 0.6, 0.6, 0.6, 0.6, 0.6, 0.6, 0.6, 0.6, 0.6, 0.6, 0.6, 0.6, 0.6, 0.6, 0.6, 0.6, 0.6, 0.6, 0.6, 0.6, 0.6, 0.6, 0.6, 0.6, 0.6, 0.6, 0.6, 0.6, 0.6, 0.6, 0.6, 0.6, 0.6, 0.6, 0.6, 0.6, 0.6, 0.6, 0.6, 0.6, 0.6, 0.6, 0.6, 0.6, 0.6, 0.6, 0.6], "NUPDOWN": -1.0, "LSORBIT": false, "SAXIS": [0.0, 0.0, 1.0], "LSPIRAL": false, "QSPIRAL": [0.0, 0.0, 0.0], "LZEROZ": false, "LASPH": false, "LMETAGGA": false, "NELM": 100, "NELMDL": -5, "NELMIN": 6, "ENINI": 520.0, "LDIAG": true, "LSUBROT": false, "WEIMIN": 0.001, "EBREAK": 1e-08, "DEPER": 0.3, "NRMM": 4, "TIME": 0.4, "AMIX": 0.4, "BMIX": 1.0, "AMIN": 0.1, "AMIX_MAG": 1.6, "BMIX_MAG": 1.0, "IMIX": 4, "MIXFIRST": false, "MAXMIX": -45, "WC": 100.0, "INIMIX": 1, "MIXPRE": 1, "MREMOVE": 5, "LDIPOL": false, "LMONO": false, "IDIPOL": 0, "EPSILON": 1.0, "DIPOL": [-100.0, -100.0, -100.0], "EFIELD": 0.0, "NGX": 28, "NGY": 36, "NGZ": 294, "NGXF": 56, "NGYF": 72, "NGZF": 588, "ADDGRID": false, "NSW": 150, "IBRION": 2, "MDALGO": 0, "ISIF": 2, "PSTRESS": 0.0, "EDIFFG": -0.01, "NFREE": 1, "POTIM": 0.5, "SMASS": -3.0, "SCALEE": 1.0, "TEBEG": 0.0001, "TEEND": 0.0001, "NBLOCK": 1, "KBLOCK": 150, "NPACO": 256, "APACO": 10.0, "ISYM": 0, "SYMPREC": 1e-05, "LORBIT": 11, "RWIGS": [-1.0, -1.0, -1.0], "NEDOS": 301, "EMIN": 10.0, "EMAX": -10.0, "EFERMI": 0.0, "NWRITE": 2, "LWAVE": false, "LDOWNSAMPLE": false, "LCHARG": false, "LPARD": false, "LVTOT": false, "LVHAR": false, "LELF": false, "LOPTICS": false, "STM": [0.0, 0.0, 0.0, 0.0, 0.0, 0.0, 0.0], "NPAR": 2, "NSIM": 4, "NBLK": -1, "LPLANE": true, "LSCALAPACK": true, "LSCAAWARE": false, "LSCALU": false, "LASYNC": false, "LORBITALREAL": false, "IDIOT": 3, "PHON_NSTRUCT": -1, "LMUSIC": false, "POMASS": [7.01, 30.974, 16.0], "DARWINR": [0.0, 0.0, 0.0], "DARWINV": [1.0, 1.0, 1.0], "LCORR": true, "GGA_COMPAT": true, "LBERRY": false, "ICORELEVEL": 0, "LDAU": false, "I_CONSTRAINED_M": 0, "GGA": "--", "VOSKOWN": 0, "LHFCALC": false, "PRECFOCK": "", "LSYMGRAD": false, "LHFONE": false, "LRHFCALC": false, "LTHOMAS": false, "LMODELHF": false, "LFOCKACE": false, "ENCUT4O": -1.0, "EXXOEP": 0, "FOURORBIT": 0, "AEXX": 0.0, "HFALPHA": 0.0, "MCALPHA": 0.0, "ALDAX": 1.0, "AGGAX": 1.0, "ALDAC": 1.0, "AGGAC": 1.0, "NKREDX": 1, "NKREDY": 1, "NKREDZ": 1, "SHIFTRED": false, "ODDONLY": false, "EVENONLY": false, "LMAXFOCK": 0, "NMAXFOCKAE": 0, "LFOCKAEDFT": false, "HFSCREEN": 0.0, "HFSCREENC": 0.0, "NBANDSGWLOW": 0, "LUSE_VDW": false, "Zab_VDW": -0.8491, "PARAM1": 0.1234, "PARAM2": 1.0, "PARAM3": 0.0, "MODEL_GW": 0, "MODEL_EPS0": 10.09956926, "MODEL_ALPHA": 1.0, "LEPSILON": false, "LRPA": false, "LNABLA": false, "LVEL": false, "CSHIFT": 0.1, "OMEGAMAX": -1.0, "DEG_THRESHOLD": 0.002, "RTIME": -0.1, "WPLASMAI": 0.0, "DFIELD": [0.0, 0.0, 0.0], "WPLASMA": [0.0, 0.0, 0.0, 0.0, 0.0, 0.0, 0.0, 0.0, 0.0], "NUCIND": false, "MAGPOS": [0.0, 0.0, 0.0], "LNICSALL": true, "ORBITALMAG": false, "LMAGBLOCH": false, "LCHIMAG": false, "LGAUGE": true, "MAGATOM": 0, "MAGDIPOL": [0.0, 0.0, 0.0], "AVECCONST": [0.0, 0.0, 0.0], "LFINITE_TEMPERATURE": false, "LADDER": false, "LRPAFORCE": false, "LFXC": false, "LHARTREE": true, "IBSE": 0, "KPOINT": [-1, 0, 0, 0], "LTCTC": false, "LTCTE": false, "LTETE": false, "LTRIPLET": false, "LFXCEPS": false, "LFXHEG": false, "NATURALO": 2, "LHOLEGF": false, "L2ORDER": false, "LDMP1": false, "LMP2LT": false, "LSMP2LT": false, "LGWLF": false, "ENCUTGW": -2.0, "ENCUTGWSOFT": -2.0, "ENCUTLF": -1.0, "LESF_SPLINES": false, "LMAXMP2": -1, "SCISSOR": 0.0, "NOMEGA": 0, "NOMEGAR": 0, "NBANDSGW": -1, "NBANDSO": -1, "NBANDSV": -1, "NELMGW": 1, "NELMHF": 1, "DIM": 3, "IESPILON": 4, "ANTIRES": 0, "OMEGAMIN": -30.0, "OMEGATL": -200.0, "OMEGAGRID": 0, "LSELFENERGY": false, "LSPECTRAL": false, "LSPECTRALGW": false, "LSINGLES": false, "LFERMIGW": false, "ODDONLYGW": false, "EVENONLYGW": false, "NKREDLFX": 1, "NKREDLFY": 1, "NKREDLFZ": 1, "MAXMEM": 2800, "TELESCOPE": 0, "NTAUPAR": -1, "NOMEGAPAR": -1, "DAMP_NEWTON": 0.80000001, "LAMBDA": 1.0, "OFIELD_KAPPA": 0.0, "OFIELD_K": [0.0, 0.0, 0.0], "OFIELD_Q6_NEAR": 0.0, "OFIELD_Q6_FAR": 0.0, "OFIELD_A": 0.0, "KPOINTS_OPT_MODE": 1, "LKPOINTS_OPT": false, "@module": "pymatgen.io.vasp.inputs", "@class": "Incar"}, "relaxed_structures": {"@module": "pymatgen.core.structure", "@class": "Structure", "charge": 0, "lattice": {"matrix": [[4.977846, 0.0, 0.0], [0.0, 6.151192, 0.0], [0.0, 0.0, 52.774253]], "a": 4.977846, "b": 6.151192, "c": 52.774253, "alpha": 90.0, "beta": 90.0, "gamma": 90.0, "volume": 1615.9310817322892}, "sites": [{"species": [{"element": "Li", "occu": 1}], "abc": [0.80470967, 0.49864614, 0.09874], "xyz": [4.0057208119708205, 3.06726814719888, 5.21092974122], "label": "Li", "properties": {}}, {"species": [{"element": "Li", "occu": 1}], "abc": [0.20116066, 0.50110116, 0.16469896], "xyz": [1.00134678673836, 3.0823694465827205, 8.69186458387688], "label": "Li", "properties": {}}, {"species": [{"element": "Li", "occu": 1}], "abc": [0.30315473, 0.50056444, 0.06385315], "xyz": [1.50905756011158, 3.07906797881248, 3.3698022929469498], "label": "Li", "properties": {}}, {"species": [{"element": "Li", "occu": 1}], "abc": [0.67581701, 0.48881878, 0.002195609999999997], "xyz": [3.3641129999604606, 3.00681816898576, 0.11587167762932986], "label": "Li", "properties": {}}, {"species": [{"element": "Li", "occu": 1}], "abc": [0.67579136, 0.01113988, 0.0022028799999999973], "xyz": [3.36398531821056, 0.06852354073696, 0.11625534644863986], "label": "Li", "properties": {}}, {"species": [{"element": "Li", "occu": 1}], "abc": [0.30315272, 0.99942475, 0.06385294], "xyz": [1.5090475546411202, 6.147653526801999, 3.36979121035382], "label": "Li", "properties": {}}, {"species": [{"element": "Li", "occu": 1}], "abc": [0.20116408, 0.9988967, 0.16469915], "xyz": [1.00136381097168, 6.1444053898663995, 8.69187461098495], "label": "Li", "properties": {}}, {"species": [{"element": "Li", "occu": 1}], "abc": [0.80470956, 0.00135672, 0.09873958999999999], "xyz": [4.005720264407761, 0.00834544521024, 5.210908103776269], "label": "Li", "properties": {}}, {"species": [{"element": "Li", "occu": 1}], "abc": [0.20610573, 0.75000181, 0.11682192999999999], "xyz": [1.02596258365758, 4.61340513365752, 6.16519008976829], "label": "Li", "properties": {}}, {"species": [{"element": "Li", "occu": 1}], "abc": [0.7987726, 0.25000019, 0.14663500999999998], "xyz": [3.9761669918196008, 1.53779916872648, 7.738553116397529], "label": "Li", "properties": {}}, {"species": [{"element": "Li", "occu": 1}], "abc": [0.70779946, 0.24999862, 0.04707888], "xyz": [3.5233167107631607, 1.53778951135504, 2.48455272407664], "label": "Li", "properties": {}}, {"species": [{"element": "Li", "occu": 1}], "abc": [0.27516099, 0.7498554, 0.01500845], "xyz": [1.3697090334275401, 4.6125045376367995, 0.79205973743785], "label": "Li", "properties": {}}, {"species": [{"element": "Li", "occu": 1}], "abc": [0.80260884, 0.49947526, 0.29969561], "xyz": [3.99526320375864, 3.07236822350992, 15.81621194512933], "label": "Li", "properties": {}}, {"species": [{"element": "Li", "occu": 1}], "abc": [0.19995213, 0.50103845, 0.36548810000000004], "xyz": [0.9953309105119801, 3.0819837053324, 19.2883614578893], "label": "Li", "properties": {}}, {"species": [{"element": "Li", "occu": 1}], "abc": [0.3036338, 0.50163529, 0.26504798], "xyz": [1.5114422967948002, 3.08565498276568, 13.98770915365894], "label": "Li", "properties": {}}, {"species": [{"element": "Li", "occu": 1}], "abc": [0.69870589, 0.49829421, 0.1994636], "xyz": [3.4780503197129407, 3.06510335819832, 10.5265424906908], "label": "Li", "properties": {}}, {"species": [{"element": "Li", "occu": 1}], "abc": [0.69876141, 0.00173347, 0.19946016], "xyz": [3.4783266897228606, 0.010662906796239999, 10.52636094726048], "label": "Li", "properties": {}}, {"species": [{"element": "Li", "occu": 1}], "abc": [0.30363767, 0.99837926, 0.26504771], "xyz": [1.5114615610588202, 6.14122251707792, 13.98769490461063], "label": "Li", "properties": {}}, {"species": [{"element": "Li", "occu": 1}], "abc": [0.19995668, 0.99895196, 0.36548811000000003], "xyz": [0.99535355971128, 6.14474530473632, 19.288361985631834], "label": "Li", "properties": {}}, {"species": [{"element": "Li", "occu": 1}], "abc": [0.80260926, 0.00052568, 0.2996952], "xyz": [3.99526529445396, 0.0032335586105600002, 15.8161903076856], "label": "Li", "properties": {}}, {"species": [{"element": "Li", "occu": 1}], "abc": [0.20343755, 0.7499996, 0.31777103], "xyz": [1.0126807945173, 4.6133915395232, 16.77012873329059], "label": "Li", "properties": {}}, {"species": [{"element": "Li", "occu": 1}], "abc": [0.79784382, 0.24999883, 0.34745934], "xyz": [3.97154366801172, 1.53779080310536, 18.33690711637302], "label": "Li", "properties": {}}, {"species": [{"element": "Li", "occu": 1}], "abc": [0.70500737, 0.25019643, 0.24716607999999998], "xyz": [3.5094181167250205, 1.5390062786445602, 13.04400523893824], "label": "Li", "properties": {}}, {"species": [{"element": "Li", "occu": 1}], "abc": [0.30080338, 0.75000514, 0.21729711999999998], "xyz": [1.4973529019194802, 4.61342561712688, 11.46769318705136], "label": "Li", "properties": {}}, {"species": [{"element": "Li", "occu": 1}], "abc": [0.80163492, 0.4995359, 0.50039928], "xyz": [3.9904151799823206, 3.0727412317928, 26.40819820373784], "label": "Li", "properties": {}}, {"species": [{"element": "Li", "occu": 1}], "abc": [0.17433587, 0.51062635, 0.56209313], "xyz": [0.8678171131360201, 3.1409607191092, 29.664045052181894], "label": "Li", "properties": {}}, {"species": [{"element": "Li", "occu": 1}], "abc": [0.30385672, 0.50146576, 0.46569285000000005], "xyz": [1.5125519582251203, 3.08461217118592, 24.576592286191055], "label": "Li", "properties": {}}, {"species": [{"element": "Li", "occu": 1}], "abc": [0.69822688, 0.49829608, 0.40020064], "xyz": [3.4756658817004804, 3.06511486092736, 21.12028982612192], "label": "Li", "properties": {}}, {"species": [{"element": "Li", "occu": 1}], "abc": [0.69822658, 0.00170206, 0.40020054], "xyz": [3.4756643883466807, 0.01046969785552, 21.12028454869662], "label": "Li", "properties": {}}, {"species": [{"element": "Li", "occu": 1}], "abc": [0.30385435, 0.99853821, 0.46569284], "xyz": [1.5125401607301001, 6.1422002490463194, 24.576591758448522], "label": "Li", "properties": {}}, {"species": [{"element": "Li", "occu": 1}], "abc": [0.17433538, 0.98937819, 0.5620928900000001], "xyz": [0.8678146739914802, 6.0858552073024805, 29.664032386361175], "label": "Li", "properties": {}}, {"species": [{"element": "Li", "occu": 1}], "abc": [0.80162997, 0.00046664, 0.50039851], "xyz": [3.9903905396446206, 0.00287039223488, 26.40815756756303], "label": "Li", "properties": {}}, {"species": [{"element": "Li", "occu": 1}], "abc": [0.20383171, 0.75000124, 0.51743933], "xyz": [1.0146428622966601, 4.61340162747808, 27.30747411357049], "label": "Li", "properties": {}}, {"species": [{"element": "Li", "occu": 1}], "abc": [0.77317177, 0.25000195, 0.54935217], "xyz": [3.8487300026074207, 1.5378099948243997, 28.991650405679014], "label": "Li", "properties": {}}, {"species": [{"element": "Li", "occu": 1}], "abc": [0.70565549, 0.25000253, 0.44797193], "xyz": [3.5126443582745406, 1.53781356251576, 23.64138397071829], "label": "Li", "properties": {}}, {"species": [{"element": "Li", "occu": 1}], "abc": [0.30077019, 0.74999312, 0.41797781], "xyz": [1.4971876872107401, 4.61335167979904, 22.05846669332593], "label": "Li", "properties": {}}, {"species": [{"element": "P", "occu": 1}], "abc": [0.30902925, 0.25000281, 0.11379539999999999], "xyz": [1.5383000159955, 1.5378152848495201, 6.005467229836199], "label": "P", "properties": {}}, {"species": [{"element": "P", "occu": 1}], "abc": [0.69612477, 0.75000485, 0.14963343999999998], "xyz": [3.46520190184542, 4.6134238332812, 7.896793019820319], "label": "P", "properties": {}}, {"species": [{"element": "P", "occu": 1}], "abc": [0.81015097, 0.74998386, 0.049112529999999995], "xyz": [4.03280676541062, 4.61329471976112, 2.5918770836900897], "label": "P", "properties": {}}, {"species": [{"element": "P", "occu": 1}], "abc": [0.19464931, 0.24995755, 0.01335755], "xyz": [0.96893428918626, 1.5375368818996, 0.7049347231601499], "label": "P", "properties": {}}, {"species": [{"element": "P", "occu": 1}], "abc": [0.30732899, 0.25000125, 0.31470760000000003], "xyz": [1.5298363835555402, 1.53780568899, 16.608458503422803], "label": "P", "properties": {}}, {"species": [{"element": "P", "occu": 1}], "abc": [0.6947738, 0.74998792, 0.35051924], "xyz": [3.4584769812348, 4.61331969360064, 18.498391053127722], "label": "P", "properties": {}}, {"species": [{"element": "P", "occu": 1}], "abc": [0.80830056, 0.75001753, 0.25000207], "xyz": [4.02359570939376, 4.6135018303957605, 13.193672492703712], "label": "P", "properties": {}}, {"species": [{"element": "P", "occu": 1}], "abc": [0.19511337, 0.25002058, 0.21443842999999999], "xyz": [0.9712443084010202, 1.53792459153136, 11.31682795774279], "label": "P", "properties": {}}, {"species": [{"element": "P", "occu": 1}], "abc": [0.30930088, 0.25000677, 0.5152011400000001], "xyz": [1.53965214830448, 1.53783964356984, 27.189355308248423], "label": "P", "properties": {}}, {"species": [{"element": "P", "occu": 1}], "abc": [0.69308101, 0.75000578, 0.55096513], "xyz": [3.45005053330446, 4.61342955388976, 29.076773164797892], "label": "P", "properties": {}}, {"species": [{"element": "P", "occu": 1}], "abc": [0.80825109, 0.75000629, 0.4506797], "xyz": [4.0233494553521405, 4.61343269099768, 23.784284509764102], "label": "P", "properties": {}}, {"species": [{"element": "P", "occu": 1}], "abc": [0.19489888, 0.24999268, 0.41516704000000004], "xyz": [0.97017661021248, 1.53775297327456, 21.91013040622112], "label": "P", "properties": {}}, {"species": [{"element": "O", "occu": 1}], "abc": [0.20601557, 0.45713357, 0.09975957999999999], "xyz": [1.0255137810622201, 2.81191635871544, 5.26473731409374], "label": "O", "properties": {}}, {"species": [{"element": "O", "occu": 1}], "abc": [0.79875661, 0.54283427, 0.16370812999999998], "xyz": [3.97608739606206, 3.3390778189498396, 8.639574270776889], "label": "O", "properties": {}}, {"species": [{"element": "O", "occu": 1}], "abc": [0.7052001, 0.54309747, 0.06298967], "xyz": [3.5103774969846, 3.34069681268424, 3.32423278096651], "label": "O", "properties": {}}, {"species": [{"element": "O", "occu": 1}], "abc": [0.29766488, 0.45852291, 9.99999999999994e-05], "xyz": [1.4817299322484803, 2.82046245580872, 0.005277425299999968], "label": "O", "properties": {}}, {"species": [{"element": "O", "occu": 1}], "abc": [0.29759942, 0.04136783, 0.00010276999999999856], "xyz": [1.4814040824493202, 0.25446146495336003, 0.005423609980809924], "label": "O", "properties": {}}, {"species": [{"element": "O", "occu": 1}], "abc": [0.70520019, 0.95687585, 0.06299088], "xyz": [3.5103779449907404, 5.8859270735132, 3.32429663781264], "label": "O", "properties": {}}, {"species": [{"element": "O", "occu": 1}], "abc": [0.79876237, 0.95717981, 0.1637082], "xyz": [3.9761160684550205, 5.88779678983352, 8.6395779649746], "label": "O", "properties": {}}, {"species": [{"element": "O", "occu": 1}], "abc": [0.20603463, 0.04287222, 0.09975822000000001], "xyz": [1.0256086588069802, 0.26371525668624, 5.264665541109661], "label": "O", "properties": {}}, {"species": [{"element": "O", "occu": 1}], "abc": [0.79989005, 0.75000851, 0.12182109999999999], "xyz": [3.9817294858323002, 4.61344634664392, 6.4290175521382995], "label": "O", "properties": {}}, {"species": [{"element": "O", "occu": 1}], "abc": [0.20599696, 0.24999515, 0.14163344], "xyz": [1.0254211433481601, 1.5377681667188, 7.47459899582032], "label": "O", "properties": {}}, {"species": [{"element": "O", "occu": 1}], "abc": [0.29236223, 0.24998265, 0.04163634], "xyz": [1.45533415715658, 1.5376912768188, 2.1973267411540203], "label": "O", "properties": {}}, {"species": [{"element": "O", "occu": 1}], "abc": [0.71028271, 0.74995861, 0.02105841], "xyz": [3.53567794684266, 4.61313940216312, 1.11134185711773], "label": "O", "properties": {}}, {"species": [{"element": "O", "occu": 1}], "abc": [0.62284413, 0.25000519, 0.11358653999999999], "xyz": [3.1004221611439804, 1.53782992468648, 5.9944447993546195], "label": "O", "properties": {}}, {"species": [{"element": "O", "occu": 1}], "abc": [0.38256574, 0.75000597, 0.14976942999999998], "xyz": [1.90435333859604, 4.61343072261624, 7.903969790485789], "label": "O", "properties": {}}, {"species": [{"element": "O", "occu": 1}], "abc": [0.12271405, 0.74998883, 0.04940115999999999], "xyz": [0.6108516429363001, 4.61332529118536, 2.6071093163334798], "label": "O", "properties": {}}, {"species": [{"element": "O", "occu": 1}], "abc": [0.87834721, 0.24998461, 0.013259729999999997], "xyz": [4.372277145909661, 1.53770333315512, 0.6997723457316899], "label": "O", "properties": {}}, {"species": [{"element": "O", "occu": 1}], "abc": [0.2047678, 0.45722177, 0.30066144], "xyz": [1.0193025741588, 2.8124588938498403, 15.86718290190432], "label": "O", "properties": {}}, {"species": [{"element": "O", "occu": 1}], "abc": [0.79728876, 0.54284073, 0.36457789], "xyz": [3.9687806648109607, 3.33911755565016, 19.24032580506617], "label": "O", "properties": {}}, {"species": [{"element": "O", "occu": 1}], "abc": [0.70544635, 0.54301187, 0.26407242000000003], "xyz": [3.5116032915621003, 3.3401702706490397, 13.936224703402262], "label": "O", "properties": {}}, {"species": [{"element": "O", "occu": 1}], "abc": [0.2977584, 0.45700244, 0.20035553], "xyz": [1.4821954604064, 2.81110975290848, 10.573613430169091], "label": "O", "properties": {}}, {"species": [{"element": "O", "occu": 1}], "abc": [0.29779165, 0.04303287, 0.20035429999999999], "xyz": [1.4823609737859003, 0.26470344568104, 10.5735485178379], "label": "O", "properties": {}}, {"species": [{"element": "O", "occu": 1}], "abc": [0.7054442, 0.95701071, 0.26407217], "xyz": [3.5115925891932003, 5.88675662326632, 13.93621150983901], "label": "O", "properties": {}}, {"species": [{"element": "O", "occu": 1}], "abc": [0.79728808, 0.95714847, 0.36457791], "xyz": [3.96877727987568, 5.88760401147624, 19.24032686055123], "label": "O", "properties": {}}, {"species": [{"element": "O", "occu": 1}], "abc": [0.20477597, 0.04278373, 0.30066118000000003], "xyz": [1.0193432431606202, 0.26317093770616, 15.867169180598541], "label": "O", "properties": {}}, {"species": [{"element": "O", "occu": 1}], "abc": [0.79890678, 0.75000167, 0.32272092], "xyz": [3.9768349191958805, 4.61340427249064, 17.03135548047276], "label": "O", "properties": {}}, {"species": [{"element": "O", "occu": 1}], "abc": [0.2031516, 0.24999711, 0.34249853], "xyz": [1.0112573794536, 1.5377802230551199, 18.075104074348094], "label": "O", "properties": {}}, {"species": [{"element": "O", "occu": 1}], "abc": [0.29973264, 0.25001137, 0.24220355000000002], "xyz": [1.49202292309344, 1.53786793905304, 12.782111425198151], "label": "O", "properties": {}}, {"species": [{"element": "O", "occu": 1}], "abc": [0.70391688, 0.75000392, 0.22223789], "xyz": [3.50398982544048, 4.61341811267264, 11.72843863304617], "label": "O", "properties": {}}, {"species": [{"element": "O", "occu": 1}], "abc": [0.62091599, 0.25000429, 0.31460814000000004], "xyz": [3.09082417715754, 1.5378243886136802, 16.603209576219424], "label": "O", "properties": {}}, {"species": [{"element": "O", "occu": 1}], "abc": [0.3811872, 0.74999078, 0.35060327], "xyz": [1.8974911787712, 4.6133372860097595, 18.502825673607312], "label": "O", "properties": {}}, {"species": [{"element": "O", "occu": 1}], "abc": [0.12177482, 0.75000336, 0.25012032], "xyz": [0.6061763006377201, 4.61341466800512, 13.19991304812096], "label": "O", "properties": {}}, {"species": [{"element": "O", "occu": 1}], "abc": [0.88162391, 0.25001379, 0.21436316], "xyz": [4.38858805389786, 1.5378828249376801, 11.31285563971948], "label": "O", "properties": {}}, {"species": [{"element": "O", "occu": 1}], "abc": [0.20381148, 0.45700571, 0.5013843], "xyz": [1.0145421604720801, 2.81112986730632, 26.4601818984279], "label": "O", "properties": {}}, {"species": [{"element": "O", "occu": 1}], "abc": [0.79625565, 0.54137841, 0.5642007], "xyz": [3.9636380023299003, 3.33012254456472, 29.7752704845771], "label": "O", "properties": {}}, {"species": [{"element": "O", "occu": 1}], "abc": [0.7054381, 0.54292213, 0.46471263], "xyz": [3.5115622243326, 3.33961826267896, 24.52486190791539], "label": "O", "properties": {}}, {"species": [{"element": "O", "occu": 1}], "abc": [0.29754628, 0.4569787, 0.40108655000000004], "xyz": [1.48113955971288, 2.8109637236104, 21.167043064597152], "label": "O", "properties": {}}, {"species": [{"element": "O", "occu": 1}], "abc": [0.29752797, 0.04300313, 0.401088], "xyz": [1.48104841535262, 0.26452050923096, 21.167119587264], "label": "O", "properties": {}}, {"species": [{"element": "O", "occu": 1}], "abc": [0.70540818, 0.95709605, 0.46471201], "xyz": [3.5114132871802806, 5.8872815659916, 24.52482918787853], "label": "O", "properties": {}}, {"species": [{"element": "O", "occu": 1}], "abc": [0.7962528, 0.95863287, 0.5642014], "xyz": [3.9636238154688, 5.89673484088104, 29.7753074265542], "label": "O", "properties": {}}, {"species": [{"element": "O", "occu": 1}], "abc": [0.20380292, 0.04301142, 0.50138419], "xyz": [1.01449955011032, 0.26457150261264, 26.46017609326007], "label": "O", "properties": {}}, {"species": [{"element": "O", "occu": 1}], "abc": [0.79060943, 0.75000556, 0.5226816400000001], "xyz": [3.93553198868778, 4.61342820062752, 27.584133107814925], "label": "O", "properties": {}}, {"species": [{"element": "O", "occu": 1}], "abc": [0.21052441, 0.25000723, 0.54329174], "xyz": [1.04795809222086, 1.5378424731181601, 28.67181573957022], "label": "O", "properties": {}}, {"species": [{"element": "O", "occu": 1}], "abc": [0.29973047, 0.25000744, 0.44292629], "xyz": [1.4920121211676203, 1.5378437648684802, 23.37510408881137], "label": "O", "properties": {}}, {"species": [{"element": "O", "occu": 1}], "abc": [0.7040833, 0.74999496, 0.42290739], "xyz": [3.5048182385718003, 4.61336299799232, 22.318621595429672], "label": "O", "properties": {}}, {"species": [{"element": "O", "occu": 1}], "abc": [0.62188635, 0.25000423, 0.51484585], "xyz": [3.0956544798021004, 1.53782401954216, 27.170605143900055], "label": "O", "properties": {}}, {"species": [{"element": "O", "occu": 1}], "abc": [0.37677823, 0.75000524, 0.5510967600000001], "xyz": [1.87554400509258, 4.61342623224608, 29.083719839720285], "label": "O", "properties": {}}, {"species": [{"element": "O", "occu": 1}], "abc": [0.12186278, 0.7500196, 0.45083624], "xyz": [0.6066141519718801, 4.6135145633632, 23.79254579132872], "label": "O", "properties": {}}, {"species": [{"element": "O", "occu": 1}], "abc": [0.88148469, 0.25000087, 0.41509588000000003], "xyz": [4.38789503817774, 1.53780335153704, 21.906374990377643], "label": "O", "properties": {}}]}, "formula": "(Li3PO4)12.0", "bandgap": 4.9297, "slab_thickness": 29.7700300012542}