{"miller": "001_0.00", "final_energy": -400.81848429, "gamma": 0.030316252102366048, "work_function": "Not calculated", "ionization_potentail": "Not calculated", "electron_affinity": "Not calculated", "is_stochiometric": true, "incar_parameters": {"SYSTEM": "unknown system", "LCOMPAT": false, "PREC": "normal", "ENMAX": 520.0, "ENAUG": 628.945, "EDIFF": 1e-05, "IALGO": 38, "IWAVPR": 11, "NBANDS": 186, "NBANDSLOW": -1, "NBANDSHIGH": -1, "NELECT": 304.0, "TURBO": 0, "IRESTART": 0, "NREBOOT": 0, "NMIN": 0, "EREF": 0.0, "ISMEAR": 0, "SIGMA": 0.05, "KSPACING": 0.5, "KGAMMA": true, "KBLOWUP": true, "LREAL": true, "ROPT": [-0.0005, -0.0005, -0.0005], "LMAXPAW": -100, "LMAXMIX": 2, "NLSPLINE": false, "ISTART": 0, "ICHARG": 2, "INIWAV": 1, "ISPIN": 1, "LNONCOLLINEAR": false, "MAGMOM": [0.6, 0.6, 0.6, 0.6, 0.6, 0.6, 0.6, 0.6, 0.6, 0.6, 0.6, 0.6, 0.6, 0.6, 0.6, 0.6, 0.6, 0.6, 0.6, 0.6, 0.6, 0.6, 0.6, 0.6, 0.6, 0.6, 0.6, 0.6, 0.6, 0.6, 0.6, 0.6, 0.6, 0.6, 0.6, 0.6, 0.6, 0.6, 0.6, 0.6, 0.6, 0.6, 0.6, 0.6, 0.6, 0.6, 0.6, 0.6, 0.6, 0.6, 0.6, 0.6, 0.6, 0.6, 0.6, 0.6, 0.6, 0.6, 0.6, 0.6, 0.6, 0.6, 0.6, 0.6], "NUPDOWN": -1.0, "LSORBIT": false, "SAXIS": [0.0, 0.0, 1.0], "LSPIRAL": false, "QSPIRAL": [0.0, 0.0, 0.0], "LZEROZ": false, "LASPH": false, "LMETAGGA": false, "NELM": 100, "NELMDL": -5, "NELMIN": 6, "ENINI": 520.0, "LDIAG": true, "LSUBROT": false, "WEIMIN": 0.001, "EBREAK": 1e-08, "DEPER": 0.3, "NRMM": 4, "TIME": 0.4, "AMIX": 0.4, "BMIX": 1.0, "AMIN": 0.1, "AMIX_MAG": 1.6, "BMIX_MAG": 1.0, "IMIX": 4, "MIXFIRST": false, "MAXMIX": -45, "WC": 100.0, "INIMIX": 1, "MIXPRE": 1, "MREMOVE": 5, "LDIPOL": false, "LMONO": false, "IDIPOL": 0, "EPSILON": 1.0, "DIPOL": [-100.0, -100.0, -100.0], "EFIELD": 0.0, "NGX": 28, "NGY": 36, "NGZ": 294, "NGXF": 56, "NGYF": 72, "NGZF": 588, "ADDGRID": false, "NSW": 150, "IBRION": 2, "MDALGO": 0, "ISIF": 2, "PSTRESS": 0.0, "EDIFFG": -0.01, "NFREE": 1, "POTIM": 0.5, "SMASS": -3.0, "SCALEE": 1.0, "TEBEG": 0.0001, "TEEND": 0.0001, "NBLOCK": 1, "KBLOCK": 150, "NPACO": 256, "APACO": 10.0, "ISYM": 0, "SYMPREC": 1e-05, "LORBIT": 11, "RWIGS": [-1.0, -1.0, -1.0], "NEDOS": 301, "EMIN": 10.0, "EMAX": -10.0, "EFERMI": 0.0, "NWRITE": 2, "LWAVE": false, "LDOWNSAMPLE": false, "LCHARG": false, "LPARD": false, "LVTOT": false, "LVHAR": false, "LELF": false, "LOPTICS": false, "STM": [0.0, 0.0, 0.0, 0.0, 0.0, 0.0, 0.0], "NPAR": 2, "NSIM": 4, "NBLK": -1, "LPLANE": true, "LSCALAPACK": true, "LSCAAWARE": false, "LSCALU": false, "LASYNC": false, "LORBITALREAL": false, "IDIOT": 3, "PHON_NSTRUCT": -1, "LMUSIC": false, "POMASS": [7.01, 30.974, 16.0], "DARWINR": [0.0, 0.0, 0.0], "DARWINV": [1.0, 1.0, 1.0], "LCORR": true, "GGA_COMPAT": true, "LBERRY": false, "ICORELEVEL": 0, "LDAU": false, "I_CONSTRAINED_M": 0, "GGA": "--", "VOSKOWN": 0, "LHFCALC": false, "PRECFOCK": "", "LSYMGRAD": false, "LHFONE": false, "LRHFCALC": false, "LTHOMAS": false, "LMODELHF": false, "LFOCKACE": false, "ENCUT4O": -1.0, "EXXOEP": 0, "FOURORBIT": 0, "AEXX": 0.0, "HFALPHA": 0.0, "MCALPHA": 0.0, "ALDAX": 1.0, "AGGAX": 1.0, "ALDAC": 1.0, "AGGAC": 1.0, "NKREDX": 1, "NKREDY": 1, "NKREDZ": 1, "SHIFTRED": false, "ODDONLY": false, "EVENONLY": false, "LMAXFOCK": 0, "NMAXFOCKAE": 0, "LFOCKAEDFT": false, "HFSCREEN": 0.0, "HFSCREENC": 0.0, "NBANDSGWLOW": 0, "LUSE_VDW": false, "Zab_VDW": -0.8491, "PARAM1": 0.1234, "PARAM2": 1.0, "PARAM3": 0.0, "MODEL_GW": 0, "MODEL_EPS0": 15.14935389, "MODEL_ALPHA": 1.0, "LEPSILON": false, "LRPA": false, "LNABLA": false, "LVEL": false, "CSHIFT": 0.1, "OMEGAMAX": -1.0, "DEG_THRESHOLD": 0.002, "RTIME": -0.1, "WPLASMAI": 0.0, "DFIELD": [0.0, 0.0, 0.0], "WPLASMA": [0.0, 0.0, 0.0, 0.0, 0.0, 0.0, 0.0, 0.0, 0.0], "NUCIND": false, "MAGPOS": [0.0, 0.0, 0.0], "LNICSALL": true, "ORBITALMAG": false, "LMAGBLOCH": false, "LCHIMAG": false, "LGAUGE": true, "MAGATOM": 0, "MAGDIPOL": [0.0, 0.0, 0.0], "AVECCONST": [0.0, 0.0, 0.0], "LFINITE_TEMPERATURE": false, "LADDER": false, "LRPAFORCE": false, "LFXC": false, "LHARTREE": true, "IBSE": 0, "KPOINT": [-1, 0, 0, 0], "LTCTC": false, "LTCTE": false, "LTETE": false, "LTRIPLET": false, "LFXCEPS": false, "LFXHEG": false, "NATURALO": 2, "LHOLEGF": false, "L2ORDER": false, "LDMP1": false, "LMP2LT": false, "LSMP2LT": false, "LGWLF": false, "ENCUTGW": -2.0, "ENCUTGWSOFT": -2.0, "ENCUTLF": -1.0, "LESF_SPLINES": false, "LMAXMP2": -1, "SCISSOR": 0.0, "NOMEGA": 0, "NOMEGAR": 0, "NBANDSGW": -1, "NBANDSO": -1, "NBANDSV": -1, "NELMGW": 1, "NELMHF": 1, "DIM": 3, "IESPILON": 4, "ANTIRES": 0, "OMEGAMIN": -30.0, "OMEGATL": -200.0, "OMEGAGRID": 0, "LSELFENERGY": false, "LSPECTRAL": false, "LSPECTRALGW": false, "LSINGLES": false, "LFERMIGW": false, "ODDONLYGW": false, "EVENONLYGW": false, "NKREDLFX": 1, "NKREDLFY": 1, "NKREDLFZ": 1, "MAXMEM": 2800, "TELESCOPE": 0, "NTAUPAR": -1, "NOMEGAPAR": -1, "DAMP_NEWTON": 0.80000001, "LAMBDA": 1.0, "OFIELD_KAPPA": 0.0, "OFIELD_K": [0.0, 0.0, 0.0], "OFIELD_Q6_NEAR": 0.0, "OFIELD_Q6_FAR": 0.0, "OFIELD_A": 0.0, "KPOINTS_OPT_MODE": 1, "LKPOINTS_OPT": false, "@module": "pymatgen.io.vasp.inputs", "@class": "Incar"}, "relaxed_structures": {"@module": "pymatgen.core.structure", "@class": "Structure", "charge": 0, "lattice": {"matrix": [[4.977846, 0.0, 0.0], [0.0, 6.151192, 0.0], [0.0, 0.0, 52.774253]], "a": 4.977846, "b": 6.151192, "c": 52.774253, "alpha": 90.0, "beta": 90.0, "gamma": 90.0, "volume": 1615.9310817322892}, "sites": [{"species": [{"element": "Li", "occu": 1}], "abc": [0.8038144, 0.49865061, 0.09882915999999999], "xyz": [4.0012642957824, 3.06729564302712, 5.21563509361748], "label": "Li", "properties": {}}, {"species": [{"element": "Li", "occu": 1}], "abc": [0.30337551, 0.50092745, 0.06391492], "xyz": [1.5101565689514602, 3.0813009230204003, 3.37306215855476], "label": "Li", "properties": {}}, {"species": [{"element": "Li", "occu": 1}], "abc": [0.67737891, 0.48888956, 0.0022368200000000005], "xyz": [3.37188789762786, 3.00725355035552, 0.11804650459546003], "label": "Li", "properties": {}}, {"species": [{"element": "Li", "occu": 1}], "abc": [0.6773031, 0.01116362, 0.002250169999999996], "xyz": [3.3715105271226005, 0.06866957003504001, 0.11875104087300978], "label": "Li", "properties": {}}, {"species": [{"element": "Li", "occu": 1}], "abc": [0.30337474, 0.99907243, 0.06391498999999999], "xyz": [1.51015273601004, 6.14548633883656, 3.3730658527524695], "label": "Li", "properties": {}}, {"species": [{"element": "Li", "occu": 1}], "abc": [0.80381508, 0.00134757, 0.09882908], "xyz": [4.001267680717681, 0.00828916180344, 5.21563087167724], "label": "Li", "properties": {}}, {"species": [{"element": "Li", "occu": 1}], "abc": [0.20374292, 0.74999966, 0.11660852000000001], "xyz": [1.01420087935032, 4.6133919085947195, 6.15392753643556], "label": "Li", "properties": {}}, {"species": [{"element": "Li", "occu": 1}], "abc": [0.70955882, 0.25000225, 0.04703172], "xyz": [3.5320745339017203, 1.5378118401819998, 2.48206389030516], "label": "Li", "properties": {}}, {"species": [{"element": "Li", "occu": 1}], "abc": [0.27659697, 0.74999683, 0.014960020000000004], "xyz": [1.37685712072662, 4.61337450072136, 0.7895038803650603], "label": "Li", "properties": {}}, {"species": [{"element": "Li", "occu": 1}], "abc": [0.80337569, 0.4990726, 0.29958209999999996], "xyz": [3.99908046496374, 3.0698913845391997, 15.810221539671298], "label": "Li", "properties": {}}, {"species": [{"element": "Li", "occu": 1}], "abc": [0.20116284, 0.50169936, 0.16434068000000002], "xyz": [1.0013576384426401, 3.0860490896371204, 8.672956624512041], "label": "Li", "properties": {}}, {"species": [{"element": "Li", "occu": 1}], "abc": [0.30381494, 0.50134976, 0.26466777999999996], "xyz": [1.51234398381924, 3.08389863291392, 13.967644382668338], "label": "Li", "properties": {}}, {"species": [{"element": "Li", "occu": 1}], "abc": [0.70116325, 0.49830065, 0.19915627999999996], "xyz": [3.4902826793595003, 3.0651429718748, 10.510323907258838], "label": "Li", "properties": {}}, {"species": [{"element": "Li", "occu": 1}], "abc": [0.70116325, 0.00170059, 0.19915621], "xyz": [3.4902826793595003, 0.01046065560328, 10.51032021306113], "label": "Li", "properties": {}}, {"species": [{"element": "Li", "occu": 1}], "abc": [0.30381601, 0.99865238, 0.26466786], "xyz": [1.5123493101144603, 6.1429025306369605, 13.967648604608579], "label": "Li", "properties": {}}, {"species": [{"element": "Li", "occu": 1}], "abc": [0.20116284, 0.99829998, 0.16434071], "xyz": [1.0013576384426401, 6.14073485057616, 8.67295820773963], "label": "Li", "properties": {}}, {"species": [{"element": "Li", "occu": 1}], "abc": [0.80337517, 0.00092761, 0.29958202], "xyz": [3.9990778764838204, 0.0057059072111200005, 15.81021731773106], "label": "Li", "properties": {}}, {"species": [{"element": "Li", "occu": 1}], "abc": [0.2095588, 0.74999764, 0.31646534], "xyz": [1.0431514343448, 4.61337948318688, 16.70122191889102], "label": "Li", "properties": {}}, {"species": [{"element": "Li", "occu": 1}], "abc": [0.80140737, 0.24999977, 0.14649925000000003], "xyz": [3.98928247112502, 1.53779658522584, 7.731388483810251], "label": "Li", "properties": {}}, {"species": [{"element": "Li", "occu": 1}], "abc": [0.70374372, 0.25000054, 0.24688846999999997], "xyz": [3.50312786162712, 1.5378013216436799, 13.02935457856291], "label": "Li", "properties": {}}, {"species": [{"element": "Li", "occu": 1}], "abc": [0.30140814, 0.75000039, 0.21699766999999998], "xyz": [1.5003633040664401, 4.61339639896488, 11.45188993699051], "label": "Li", "properties": {}}, {"species": [{"element": "Li", "occu": 1}], "abc": [0.17737899, 0.51111009, 0.36126021999999997], "xyz": [0.88296529585554, 3.1439362967272797, 19.06523824911566], "label": "Li", "properties": {}}, {"species": [{"element": "Li", "occu": 1}], "abc": [0.17730318, 0.98883648, 0.36124689], "xyz": [0.8825879253502801, 6.0825230450841605, 19.06453476832317], "label": "Li", "properties": {}}, {"species": [{"element": "Li", "occu": 1}], "abc": [0.77659712, 0.25000312, 0.34853692999999997], "xyz": [3.8657808674035206, 1.5378171917190402, 18.39377612366329], "label": "Li", "properties": {}}, {"species": [{"element": "P", "occu": 1}], "abc": [0.30873669, 0.24999873, 0.11374605], "xyz": [1.5368436973697401, 1.53779018798616, 6.00286282045065], "label": "P", "properties": {}}, {"species": [{"element": "P", "occu": 1}], "abc": [0.81041561, 0.7499971, 0.04913745], "xyz": [4.03412410257606, 4.6133761615432, 2.59319221807485], "label": "P", "properties": {}}, {"species": [{"element": "P", "occu": 1}], "abc": [0.19558916, 0.25000073, 0.013383820000000005], "xyz": [0.9736127177493601, 1.53780249037016, 0.7063211027864603], "label": "P", "properties": {}}, {"species": [{"element": "P", "occu": 1}], "abc": [0.31041549, 0.25000227, 0.31435947999999997], "xyz": [1.5452005052345401, 1.5378119632058402, 16.59008673046844], "label": "P", "properties": {}}, {"species": [{"element": "P", "occu": 1}], "abc": [0.69491652, 0.74999881, 0.14936353000000002], "xyz": [3.4591874194159207, 4.61338668008152, 7.882548721193092], "label": "P", "properties": {}}, {"species": [{"element": "P", "occu": 1}], "abc": [0.80874082, 0.75000294, 0.24975086999999996], "xyz": [4.025787255873721, 4.61341208450448, 13.180415600350107], "label": "P", "properties": {}}, {"species": [{"element": "P", "occu": 1}], "abc": [0.19491796, 0.25000104, 0.21413345], "xyz": [0.9702715875141601, 1.53780439723968, 11.30073286606285], "label": "P", "properties": {}}, {"species": [{"element": "P", "occu": 1}], "abc": [0.69558888, 0.74999893, 0.35011323], "xyz": [3.46253432395248, 4.613387418224559, 18.476964178667192], "label": "P", "properties": {}}, {"species": [{"element": "O", "occu": 1}], "abc": [0.20564133, 0.4571045, 0.09972779], "xyz": [1.0236508719751802, 2.811737543564, 5.26305962059087], "label": "O", "properties": {}}, {"species": [{"element": "O", "occu": 1}], "abc": [0.70547856, 0.54315149, 0.06302113], "xyz": [3.51176362798176, 3.3410291000760797, 3.3258930589658897], "label": "O", "properties": {}}, {"species": [{"element": "O", "occu": 1}], "abc": [0.29825922, 0.4585505, 0.00010000000000000286], "xyz": [1.48468846524012, 2.820632167196, 0.005277425300000151], "label": "O", "properties": {}}, {"species": [{"element": "O", "occu": 1}], "abc": [0.29824708, 0.04144646, 0.00010043999999999331], "xyz": [1.48462803418968, 0.25494513318031997, 0.005300645971319648], "label": "O", "properties": {}}, {"species": [{"element": "O", "occu": 1}], "abc": [0.70547706, 0.95684734, 0.0630206], "xyz": [3.51175616121276, 5.88575170302928, 3.3258650886118], "label": "O", "properties": {}}, {"species": [{"element": "O", "occu": 1}], "abc": [0.20564168, 0.04289114, 0.09972785999999999], "xyz": [1.02365261422128, 0.26383163723888003, 5.26306331478858], "label": "O", "properties": {}}, {"species": [{"element": "O", "occu": 1}], "abc": [0.79886893, 0.74999811, 0.12156932], "xyz": [3.9766465077247806, 4.61338237424712, 6.4157300507179595], "label": "O", "properties": {}}, {"species": [{"element": "O", "occu": 1}], "abc": [0.29347764, 0.249999, 0.041658940000000005], "xyz": [1.46088649636344, 1.537791848808, 2.1985194392718204], "label": "O", "properties": {}}, {"species": [{"element": "O", "occu": 1}], "abc": [0.71003192, 0.74999345, 0.021096969999999993], "xyz": [3.5344295528443204, 4.6133537096924, 1.1133768323134097], "label": "O", "properties": {}}, {"species": [{"element": "O", "occu": 1}], "abc": [0.62244111, 0.24999791, 0.11359572999999999], "xyz": [3.09841598964906, 1.53778514400872, 5.99492979473969], "label": "O", "properties": {}}, {"species": [{"element": "O", "occu": 1}], "abc": [0.1230472, 0.74999943, 0.0493778], "xyz": [0.6125100123312001, 4.61339049382056, 2.6058765097834002], "label": "O", "properties": {}}, {"species": [{"element": "O", "occu": 1}], "abc": [0.87919675, 0.24999805, 0.01331309], "xyz": [4.3765060252005, 1.5377860051756, 0.70258837987177], "label": "O", "properties": {}}, {"species": [{"element": "O", "occu": 1}], "abc": [0.2054786, 0.45684806, 0.30047581], "xyz": [1.0228408270956002, 2.81016013188752, 15.857386417319931], "label": "O", "properties": {}}, {"species": [{"element": "O", "occu": 1}], "abc": [0.79762982, 0.54288909, 0.16341178], "xyz": [3.9704784089677205, 3.3394150272952796, 8.623934620900341], "label": "O", "properties": {}}, {"species": [{"element": "O", "occu": 1}], "abc": [0.70564366, 0.54289654, 0.26376922999999997], "xyz": [3.51258547035636, 3.33946085367568, 13.920224077635188], "label": "O", "properties": {}}, {"species": [{"element": "O", "occu": 1}], "abc": [0.29763037, 0.45711062, 0.20008514], "xyz": [1.4815581467830201, 2.8117751888590403, 10.55934379990042], "label": "O", "properties": {}}, {"species": [{"element": "O", "occu": 1}], "abc": [0.2976297, 0.04289057, 0.20008524], "xyz": [1.4815548116262, 0.26382813105944003, 10.55934907732572], "label": "O", "properties": {}}, {"species": [{"element": "O", "occu": 1}], "abc": [0.70564663, 0.95710989, 0.26376906], "xyz": [3.5126002545589805, 5.88736669848888, 13.920215106012181], "label": "O", "properties": {}}, {"species": [{"element": "O", "occu": 1}], "abc": [0.79763014, 0.9571096, 0.16341162999999997], "xyz": [3.9704800018784403, 5.8873649146432, 8.62392670476239], "label": "O", "properties": {}}, {"species": [{"element": "O", "occu": 1}], "abc": [0.2054781, 0.04315193, 0.30047641999999997], "xyz": [1.0228383381726, 0.26543580660056, 15.857418609614259], "label": "O", "properties": {}}, {"species": [{"element": "O", "occu": 1}], "abc": [0.79348052, 0.74999915, 0.32183818999999997], "xyz": [3.9498238325599204, 4.613388771486799, 16.98477006412207], "label": "O", "properties": {}}, {"species": [{"element": "O", "occu": 1}], "abc": [0.2051653, 0.2499992, 0.14156615], "xyz": [1.0212812679438001, 1.5377930790464, 7.47104781633595], "label": "O", "properties": {}}, {"species": [{"element": "O", "occu": 1}], "abc": [0.29887287, 0.25000176, 0.24192754], "xyz": [1.4877431204380203, 1.5378088260979201, 12.76754520362762], "label": "O", "properties": {}}, {"species": [{"element": "O", "occu": 1}], "abc": [0.70516678, 0.75000152, 0.22193081999999997], "xyz": [3.5102116351558803, 4.61340334981184, 11.712233243177458], "label": "O", "properties": {}}, {"species": [{"element": "O", "occu": 1}], "abc": [0.62304756, 0.25000061, 0.31411913999999996], "xyz": [3.10143480435576, 1.5378017522271201, 16.57740296650242], "label": "O", "properties": {}}, {"species": [{"element": "O", "occu": 1}], "abc": [0.38139924, 0.74999915, 0.14946876999999997], "xyz": [1.89854668123704, 4.613388771486799, 7.888102683578809], "label": "O", "properties": {}}, {"species": [{"element": "O", "occu": 1}], "abc": [0.12244251, 0.75000207, 0.24990106], "xyz": [0.6094999586334601, 4.61340673296744, 13.18834176540818], "label": "O", "properties": {}}, {"species": [{"element": "O", "occu": 1}], "abc": [0.88140061, 0.25000114, 0.21402843], "xyz": [4.38747650088606, 1.53780501235888, 11.29519051401279], "label": "O", "properties": {}}, {"species": [{"element": "O", "occu": 1}], "abc": [0.79826, 0.54144901, 0.36339690999999996], "xyz": [3.97361534796, 3.33055681871992, 19.178000467758228], "label": "O", "properties": {}}, {"species": [{"element": "O", "occu": 1}], "abc": [0.79824776, 0.95855337, 0.36339648999999996], "xyz": [3.97355441912496, 5.89624582111704, 19.17797830257197], "label": "O", "properties": {}}, {"species": [{"element": "O", "occu": 1}], "abc": [0.21003191, 0.25000623, 0.34239993999999996], "xyz": [1.0455065030658601, 1.53783632192616, 18.06990106074482], "label": "O", "properties": {}}, {"species": [{"element": "O", "occu": 1}], "abc": [0.37919658, 0.75000158, 0.35018421], "xyz": [1.8875821789666802, 4.61340371888336, 18.48071009514513], "label": "O", "properties": {}}]}, "formula": "(Li3PO4)8.0", "bandgap": 4.9394, "slab_thickness": 19.172723042458227}