{"miller": "010_0.15", "final_energy": -799.37607023, "gamma": 0.05685141618694134, "work_function": 5.007044108901905, "ionization_potentail": -5.322944108901905, "electron_affinity": -1.0842441089019048, "is_stochiometric": true, "incar_parameters": {"SYSTEM": "unknown system", "LCOMPAT": false, "PREC": "normal", "ENMAX": 520.0, "ENAUG": 628.945, "EDIFF": 1e-05, "IALGO": 38, "IWAVPR": 11, "NBANDS": 370, "NBANDSLOW": -1, "NBANDSHIGH": -1, "NELECT": 608.0, "TURBO": 0, "IRESTART": 0, "NREBOOT": 0, "NMIN": 0, "EREF": 0.0, "ISMEAR": 0, "SIGMA": 0.05, "KSPACING": 0.5, "KGAMMA": true, "KBLOWUP": true, "LREAL": true, "ROPT": [-0.0005, -0.0005, -0.0005], "LMAXPAW": -100, "LMAXMIX": 2, "NLSPLINE": false, "ISTART": 0, "ICHARG": 2, "INIWAV": 1, "ISPIN": 1, "LNONCOLLINEAR": false, "MAGMOM": [0.6, 0.6, 0.6, 0.6, 0.6, 0.6, 0.6, 0.6, 0.6, 0.6, 0.6, 0.6, 0.6, 0.6, 0.6, 0.6, 0.6, 0.6, 0.6, 0.6, 0.6, 0.6, 0.6, 0.6, 0.6, 0.6, 0.6, 0.6, 0.6, 0.6, 0.6, 0.6, 0.6, 0.6, 0.6, 0.6, 0.6, 0.6, 0.6, 0.6, 0.6, 0.6, 0.6, 0.6, 0.6, 0.6, 0.6, 0.6, 0.6, 0.6, 0.6, 0.6, 0.6, 0.6, 0.6, 0.6, 0.6, 0.6, 0.6, 0.6, 0.6, 0.6, 0.6, 0.6, 0.6, 0.6, 0.6, 0.6, 0.6, 0.6, 0.6, 0.6, 0.6, 0.6, 0.6, 0.6, 0.6, 0.6, 0.6, 0.6, 0.6, 0.6, 0.6, 0.6, 0.6, 0.6, 0.6, 0.6, 0.6, 0.6, 0.6, 0.6, 0.6, 0.6, 0.6, 0.6, 0.6, 0.6, 0.6, 0.6, 0.6, 0.6, 0.6, 0.6, 0.6, 0.6, 0.6, 0.6, 0.6, 0.6, 0.6, 0.6, 0.6, 0.6, 0.6, 0.6, 0.6, 0.6, 0.6, 0.6, 0.6, 0.6, 0.6, 0.6, 0.6, 0.6, 0.6, 0.6], "NUPDOWN": -1.0, "LSORBIT": false, "SAXIS": [0.0, 0.0, 1.0], "LSPIRAL": false, "QSPIRAL": [0.0, 0.0, 0.0], "LZEROZ": false, "LASPH": false, "LMETAGGA": false, "NELM": 100, "NELMDL": -5, "NELMIN": 6, "ENINI": 520.0, "LDIAG": true, "LSUBROT": false, "WEIMIN": 0.001, "EBREAK": 1e-08, "DEPER": 0.3, "NRMM": 4, "TIME": 0.4, "AMIX": 0.4, "BMIX": 1.0, "AMIN": 0.1, "AMIX_MAG": 1.6, "BMIX_MAG": 1.0, "IMIX": 4, "MIXFIRST": false, "MAXMIX": -45, "WC": 100.0, "INIMIX": 1, "MIXPRE": 1, "MREMOVE": 5, "LDIPOL": false, "LMONO": false, "IDIPOL": 0, "EPSILON": 1.0, "DIPOL": [-100.0, -100.0, -100.0], "EFIELD": 0.0, "NGX": 28, "NGY": 60, "NGZ": 280, "NGXF": 56, "NGYF": 120, "NGZF": 560, "ADDGRID": false, "NSW": 150, "IBRION": 2, "MDALGO": 0, "ISIF": 2, "PSTRESS": 0.0, "EDIFFG": -0.01, "NFREE": 1, "POTIM": 0.5, "SMASS": -3.0, "SCALEE": 1.0, "TEBEG": 0.0001, "TEEND": 0.0001, "NBLOCK": 1, "KBLOCK": 150, "NPACO": 256, "APACO": 10.0, "ISYM": 0, "SYMPREC": 1e-05, "LORBIT": 11, "RWIGS": [-1.0, -1.0, -1.0], "NEDOS": 301, "EMIN": 10.0, "EMAX": -10.0, "EFERMI": 0.0, "NWRITE": 2, "LWAVE": false, "LDOWNSAMPLE": false, "LCHARG": false, "LPARD": false, "LVTOT": false, "LVHAR": false, "LELF": false, "LOPTICS": false, "STM": [0.0, 0.0, 0.0, 0.0, 0.0, 0.0, 0.0], "NPAR": 2, "NSIM": 4, "NBLK": -1, "LPLANE": true, "LSCALAPACK": true, "LSCAAWARE": false, "LSCALU": false, "LASYNC": false, "LORBITALREAL": false, "IDIOT": 3, "PHON_NSTRUCT": -1, "LMUSIC": false, "POMASS": [7.01, 30.974, 16.0], "DARWINR": [0.0, 0.0, 0.0], "DARWINV": [1.0, 1.0, 1.0], "LCORR": true, "GGA_COMPAT": true, "LBERRY": false, "ICORELEVEL": 0, "LDAU": false, "I_CONSTRAINED_M": 0, "GGA": "--", "VOSKOWN": 0, "LHFCALC": false, "PRECFOCK": "", "LSYMGRAD": false, "LHFONE": false, "LRHFCALC": false, "LTHOMAS": false, "LMODELHF": false, "LFOCKACE": false, "ENCUT4O": -1.0, "EXXOEP": 0, "FOURORBIT": 0, "AEXX": 0.0, "HFALPHA": 0.0, "MCALPHA": 0.0, "ALDAX": 1.0, "AGGAX": 1.0, "ALDAC": 1.0, "AGGAC": 1.0, "NKREDX": 1, "NKREDY": 1, "NKREDZ": 1, "SHIFTRED": false, "ODDONLY": false, "EVENONLY": false, "LMAXFOCK": 0, "NMAXFOCKAE": 0, "LFOCKAEDFT": false, "HFSCREEN": 0.0, "HFSCREENC": 0.0, "NBANDSGWLOW": 0, "LUSE_VDW": false, "Zab_VDW": -0.8491, "PARAM1": 0.1234, "PARAM2": 1.0, "PARAM3": 0.0, "MODEL_GW": 0, "MODEL_EPS0": 12.11948283, "MODEL_ALPHA": 1.0, "LEPSILON": false, "LRPA": false, "LNABLA": false, "LVEL": false, "CSHIFT": 0.1, "OMEGAMAX": -1.0, "DEG_THRESHOLD": 0.002, "RTIME": -0.1, "WPLASMAI": 0.0, "DFIELD": [0.0, 0.0, 0.0], "WPLASMA": [0.0, 0.0, 0.0, 0.0, 0.0, 0.0, 0.0, 0.0, 0.0], "NUCIND": false, "MAGPOS": [0.0, 0.0, 0.0], "LNICSALL": true, "ORBITALMAG": false, "LMAGBLOCH": false, "LCHIMAG": false, "LGAUGE": true, "MAGATOM": 0, "MAGDIPOL": [0.0, 0.0, 0.0], "AVECCONST": [0.0, 0.0, 0.0], "LFINITE_TEMPERATURE": false, "LADDER": false, "LRPAFORCE": false, "LFXC": false, "LHARTREE": true, "IBSE": 0, "KPOINT": [-1, 0, 0, 0], "LTCTC": false, "LTCTE": false, "LTETE": false, "LTRIPLET": false, "LFXCEPS": false, "LFXHEG": false, "NATURALO": 2, "LHOLEGF": false, "L2ORDER": false, "LDMP1": false, "LMP2LT": false, "LSMP2LT": false, "LGWLF": false, "ENCUTGW": -2.0, "ENCUTGWSOFT": -2.0, "ENCUTLF": -1.0, "LESF_SPLINES": false, "LMAXMP2": -1, "SCISSOR": 0.0, "NOMEGA": 0, "NOMEGAR": 0, "NBANDSGW": -1, "NBANDSO": -1, "NBANDSV": -1, "NELMGW": 1, "NELMHF": 1, "DIM": 3, "IESPILON": 4, "ANTIRES": 0, "OMEGAMIN": -30.0, "OMEGATL": -200.0, "OMEGAGRID": 0, "LSELFENERGY": false, "LSPECTRAL": false, "LSPECTRALGW": false, "LSINGLES": false, "LFERMIGW": false, "ODDONLYGW": false, "EVENONLYGW": false, "NKREDLFX": 1, "NKREDLFY": 1, "NKREDLFZ": 1, "MAXMEM": 2800, "TELESCOPE": 0, "NTAUPAR": -1, "NOMEGAPAR": -1, "DAMP_NEWTON": 0.80000001, "LAMBDA": 1.0, "OFIELD_KAPPA": 0.0, "OFIELD_K": [0.0, 0.0, 0.0], "OFIELD_Q6_NEAR": 0.0, "OFIELD_Q6_FAR": 0.0, "OFIELD_A": 0.0, "KPOINTS_OPT_MODE": 1, "LKPOINTS_OPT": false, "@module": "pymatgen.io.vasp.inputs", "@class": "Incar"}, "relaxed_structures": {"@module": "pymatgen.core.structure", "@class": "Structure", "charge": 0, "lattice": {"matrix": [[4.977846, 0.0, 0.0], [0.0, 10.554851, 0.0], [0.0, 0.0, 49.209533]], "a": 4.977846, "b": 10.554851, "c": 49.209533, "alpha": 90.0, "beta": 90.0, "gamma": 90.0, "volume": 2585.4896711333904}, "sites": [{"species": [{"element": "Li", "occu": 1}], "abc": [0.72806071, 0.83098284, 0.00010000000000000286], "xyz": [3.6241740930306605, 8.770900059756839, 0.004920953300000141], "label": "Li", "properties": {}}, {"species": [{"element": "Li", "occu": 1}], "abc": [0.7732686, 0.33099821, 0.00024733999999999867], "xyz": [3.8492120074356, 3.49363678781671, 0.012171485892219934], "label": "Li", "properties": {}}, {"species": [{"element": "Li", "occu": 1}], "abc": [0.29676074, 0.66511469, 0.06037629], "xyz": [1.4772292625660401, 7.02018645086119, 2.97108903517257], "label": "Li", "properties": {}}, {"species": [{"element": "Li", "occu": 1}], "abc": [0.70981491, 0.33093775, 0.060777120000000004], "xyz": [3.5333493104838603, 3.4929986415252494, 2.99081369228496], "label": "Li", "properties": {}}, {"species": [{"element": "Li", "occu": 1}], "abc": [0.79050544, 0.83070084, 0.060659519999999995], "xyz": [3.9350143424822406, 8.767923591774839, 2.98502665120416], "label": "Li", "properties": {}}, {"species": [{"element": "Li", "occu": 1}], "abc": [0.20378636, 0.16457739, 0.060294810000000004], "xyz": [1.01441711698056, 1.7370898294188897, 2.96707944242373], "label": "Li", "properties": {}}, {"species": [{"element": "Li", "occu": 1}], "abc": [0.17632946, 0.94295249, 0.035370929999999995], "xyz": [0.8777408971431601, 9.95272303202899, 1.7405869470756898], "label": "Li", "properties": {}}, {"species": [{"element": "Li", "occu": 1}], "abc": [0.32377442, 0.44302774, 0.03538852000000001], "xyz": [1.61169920149932, 4.67609178456674, 1.7414525427611602], "label": "Li", "properties": {}}, {"species": [{"element": "Li", "occu": 1}], "abc": [0.19550493, 0.16287153, 0.12436755], "xyz": [0.97319343378078, 1.7190847312920297, 6.12006905585415], "label": "Li", "properties": {}}, {"species": [{"element": "Li", "occu": 1}], "abc": [0.80247664, 0.83590072, 0.12367099000000001], "xyz": [3.99460513251744, 8.822807550392719, 6.0857916635476705], "label": "Li", "properties": {}}, {"species": [{"element": "Li", "occu": 1}], "abc": [0.69757799, 0.33589721, 0.12367364], "xyz": [3.47243580720954, 3.5453450028657096, 6.08592206881012], "label": "Li", "properties": {}}, {"species": [{"element": "Li", "occu": 1}], "abc": [0.30485376, 0.66285807, 0.12439381], "xyz": [1.51751506980096, 6.99636816299757, 6.12136129819073], "label": "Li", "properties": {}}, {"species": [{"element": "Li", "occu": 1}], "abc": [0.3007316, 0.66462469, 0.18663576], "xyz": [1.4969955921336, 7.0150145738711895, 9.18425859070008], "label": "Li", "properties": {}}, {"species": [{"element": "Li", "occu": 1}], "abc": [0.69880619, 0.33695414, 0.18706314], "xyz": [3.47854959766674, 3.55650074153314, 9.205289760913619], "label": "Li", "properties": {}}, {"species": [{"element": "Li", "occu": 1}], "abc": [0.80117479, 0.83695606, 0.18706229], "xyz": [3.9881247237023403, 8.83394650684706, 9.20524793281057], "label": "Li", "properties": {}}, {"species": [{"element": "Li", "occu": 1}], "abc": [0.19904759, 0.16469264, 0.18664532], "xyz": [0.99082824969114, 1.73830627599664, 9.184729033835561], "label": "Li", "properties": {}}, {"species": [{"element": "Li", "occu": 1}], "abc": [0.7971817, 0.07346104, 0.09176442000000001], "xyz": [3.9682477366182005, 0.77537033150504, 4.515684254215861], "label": "Li", "properties": {}}, {"species": [{"element": "Li", "occu": 1}], "abc": [0.20225425, 0.92597165, 0.15559447], "xyz": [1.0067905093455, 9.77349279597415, 7.656731206082511], "label": "Li", "properties": {}}, {"species": [{"element": "Li", "occu": 1}], "abc": [0.29776988, 0.42585439, 0.15559229], "xyz": [1.48225260607848, 4.49482963414589, 7.65662392930057], "label": "Li", "properties": {}}, {"species": [{"element": "Li", "occu": 1}], "abc": [0.70262427, 0.57358462, 0.09180194], "xyz": [3.4975554119224204, 6.05410019999162, 4.51753059589402], "label": "Li", "properties": {}}, {"species": [{"element": "Li", "occu": 1}], "abc": [0.20016915, 0.16366098, 0.25007365], "xyz": [0.9964112026509, 1.72741725841398, 12.306007532105449], "label": "Li", "properties": {}}, {"species": [{"element": "Li", "occu": 1}], "abc": [0.80183195, 0.83611301, 0.2495538], "xyz": [3.9913959649797, 8.82504823971151, 12.2804259563754], "label": "Li", "properties": {}}, {"species": [{"element": "Li", "occu": 1}], "abc": [0.69816761, 0.33611725, 0.24955393999999997], "xyz": [3.4753708447680607, 3.5476674922797495, 12.280432845710019], "label": "Li", "properties": {}}, {"species": [{"element": "Li", "occu": 1}], "abc": [0.29982929, 0.66366217, 0.25007575], "xyz": [1.4925040319093403, 7.00485531868667, 12.30611087212475], "label": "Li", "properties": {}}, {"species": [{"element": "Li", "occu": 1}], "abc": [0.30033779, 0.66276953, 0.31282632], "xyz": [1.4950352666003401, 6.99543363649003, 15.39403711730856], "label": "Li", "properties": {}}, {"species": [{"element": "Li", "occu": 1}], "abc": [0.69744404, 0.33591209, 0.31298761], "xyz": [3.4717690247378403, 3.54550205904859, 15.40197412288613], "label": "Li", "properties": {}}, {"species": [{"element": "Li", "occu": 1}], "abc": [0.80250697, 0.83591832, 0.31298828], "xyz": [3.9947561105866205, 8.822993315770319, 15.402007093273241], "label": "Li", "properties": {}}, {"species": [{"element": "Li", "occu": 1}], "abc": [0.19961622, 0.16277798, 0.31282642], "xyz": [0.9936588022621201, 1.7180973249809797, 15.39404203826186], "label": "Li", "properties": {}}, {"species": [{"element": "Li", "occu": 1}], "abc": [0.79829113, 0.07523726, 0.21824937], "xyz": [3.9737703083059803, 0.79411806894826, 10.73994957524421], "label": "Li", "properties": {}}, {"species": [{"element": "Li", "occu": 1}], "abc": [0.20408202, 0.9249697, 0.28149461], "xyz": [1.01588886692892, 9.762917363014699, 13.852218300117128], "label": "Li", "properties": {}}, {"species": [{"element": "Li", "occu": 1}], "abc": [0.29589903, 0.4249738, 0.28149633], "xyz": [1.47293980288938, 4.4855351379038, 13.85230294051389], "label": "Li", "properties": {}}, {"species": [{"element": "Li", "occu": 1}], "abc": [0.70168979, 0.57525154, 0.21825049000000002], "xyz": [3.49290371439234, 6.071694292220539, 10.740004689921172], "label": "Li", "properties": {}}, {"species": [{"element": "Li", "occu": 1}], "abc": [0.19941359, 0.16346983, 0.37630944], "xyz": [0.9926501413271401, 1.72539969864533, 18.51801180589152], "label": "Li", "properties": {}}, {"species": [{"element": "Li", "occu": 1}], "abc": [0.80513858, 0.83577608, 0.37558659], "xyz": [4.00785585989868, 8.821491993764079, 18.48244069496247], "label": "Li", "properties": {}}, {"species": [{"element": "Li", "occu": 1}], "abc": [0.69482711, 0.33577186, 0.37558769], "xyz": [3.45874235020506, 3.5440219522928595, 18.482494825448768], "label": "Li", "properties": {}}, {"species": [{"element": "Li", "occu": 1}], "abc": [0.30047598, 0.66350664, 0.37630247], "xyz": [1.49572315513908, 7.00321372271064, 18.51766881544651], "label": "Li", "properties": {}}, {"species": [{"element": "Li", "occu": 1}], "abc": [0.28706939, 0.66899437, 0.43936978], "xyz": [1.42898721473394, 7.061135895188869, 21.62118168811274], "label": "Li", "properties": {}}, {"species": [{"element": "Li", "occu": 1}], "abc": [0.7046901, 0.33474748, 0.43961186], "xyz": [3.5078387955246004, 3.5332097740254795, 21.633094331861383], "label": "Li", "properties": {}}, {"species": [{"element": "Li", "occu": 1}], "abc": [0.79481272, 0.83481711, 0.43962474], "xyz": [3.9564553190011207, 8.811370208300609, 21.63372815064642], "label": "Li", "properties": {}}, {"species": [{"element": "Li", "occu": 1}], "abc": [0.21287778, 0.16897874, 0.43936872], "xyz": [1.05967280566188, 1.7835454228677399, 21.62112952600776], "label": "Li", "properties": {}}, {"species": [{"element": "Li", "occu": 1}], "abc": [0.79888457, 0.0740671, 0.34416533], "xyz": [3.9767243612362204, 0.7817672045020999, 16.93621516409089], "label": "Li", "properties": {}}, {"species": [{"element": "Li", "occu": 1}], "abc": [0.20438786, 0.92595684, 0.40821239], "xyz": [1.01741129134956, 9.773336478630839, 20.087941076713868], "label": "Li", "properties": {}}, {"species": [{"element": "Li", "occu": 1}], "abc": [0.29554324, 0.42597045, 0.40820896], "xyz": [1.47116873506104, 4.496054630152949, 20.08777228801568], "label": "Li", "properties": {}}, {"species": [{"element": "Li", "occu": 1}], "abc": [0.7010593, 0.57403954, 0.34416351], "xyz": [3.4897652322678008, 6.05890181280854, 16.93612560274083], "label": "Li", "properties": {}}, {"species": [{"element": "Li", "occu": 1}], "abc": [0.27617809, 0.1707448, 0.49957897], "xyz": [1.37477200059414, 1.8021859230247999, 24.58404781032101], "label": "Li", "properties": {}}, {"species": [{"element": "Li", "occu": 1}], "abc": [0.22376686, 0.67074347, 0.49957798000000003], "xyz": [1.1138769689835601, 7.07959738507297, 24.583999092883342], "label": "Li", "properties": {}}, {"species": [{"element": "Li", "occu": 1}], "abc": [0.82752547, 0.05667711, 0.46426682], "xyz": [4.11929435073762, 0.59821845116061, 22.84635339959506], "label": "Li", "properties": {}}, {"species": [{"element": "Li", "occu": 1}], "abc": [0.67240757, 0.55668886, 0.4642633], "xyz": [3.34714133269422, 5.875767970659859, 22.8461801820389], "label": "Li", "properties": {}}, {"species": [{"element": "P", "occu": 1}], "abc": [0.69278157, 0.08944623, 0.028295050000000002], "xyz": [3.44855996709822, 0.9440916301617299, 1.3923861967116502], "label": "P", "properties": {}}, {"species": [{"element": "P", "occu": 1}], "abc": [0.80744733, 0.58952205, 0.028330820000000007], "xyz": [4.01934846185118, 6.22231739896455, 1.3941464217070603], "label": "P", "properties": {}}, {"species": [{"element": "P", "occu": 1}], "abc": [0.69276537, 0.08863917, 0.15532083], "xyz": [3.4484793259930204, 0.9355732321136699, 7.64326550947239], "label": "P", "properties": {}}, {"species": [{"element": "P", "occu": 1}], "abc": [0.30405932, 0.91057778, 0.093023], "xyz": [1.5135604698247203, 9.61101279181078, 4.577618388258999], "label": "P", "properties": {}}, {"species": [{"element": "P", "occu": 1}], "abc": [0.19601244, 0.41059679, 0.09303374], "xyz": [0.9757197404042401, 4.33378793952829, 4.57814689864342], "label": "P", "properties": {}}, {"species": [{"element": "P", "occu": 1}], "abc": [0.8072265, 0.58861788, 0.15532932], "xyz": [4.018249204119, 6.21277401933588, 7.643683298407559], "label": "P", "properties": {}}, {"species": [{"element": "P", "occu": 1}], "abc": [0.69458659, 0.08825497, 0.28128363], "xyz": [3.4575450786851403, 0.93151805835947, 13.84183607284479], "label": "P", "properties": {}}, {"species": [{"element": "P", "occu": 1}], "abc": [0.30678442, 0.91185562, 0.21839345999999998], "xyz": [1.5271255979593201, 9.62450020261262, 10.74704017685418], "label": "P", "properties": {}}, {"species": [{"element": "P", "occu": 1}], "abc": [0.19319308, 0.41188556, 0.21839554], "xyz": [0.9616854005056801, 4.347390714851559, 10.74714253268282], "label": "P", "properties": {}}, {"species": [{"element": "P", "occu": 1}], "abc": [0.8054082, 0.58825979, 0.28128924], "xyz": [4.009197986737201, 6.208994432741289, 13.84211213832492], "label": "P", "properties": {}}, {"species": [{"element": "P", "occu": 1}], "abc": [0.69713077, 0.08878414, 0.40686529], "xyz": [3.4702096149214205, 0.9371033688631399, 20.02165091480957], "label": "P", "properties": {}}, {"species": [{"element": "P", "occu": 1}], "abc": [0.3080783, 0.91110699, 0.34457379], "xyz": [1.5335663333418004, 9.61659852450849, 16.95631528994007], "label": "P", "properties": {}}, {"species": [{"element": "P", "occu": 1}], "abc": [0.19180104, 0.41106061, 0.34457467], "xyz": [0.9547560397598401, 4.338683490519109, 16.95635859432911], "label": "P", "properties": {}}, {"species": [{"element": "P", "occu": 1}], "abc": [0.80275454, 0.58881347, 0.40686488], "xyz": [3.9959884759208406, 6.214838442642969, 20.021630738901038], "label": "P", "properties": {}}, {"species": [{"element": "P", "occu": 1}], "abc": [0.30859677, 0.91136192, 0.47166154], "xyz": [1.5361471971574203, 9.61928927267392, 23.21024411746082], "label": "P", "properties": {}}, {"species": [{"element": "P", "occu": 1}], "abc": [0.19117943, 0.41136129, 0.47163910000000003], "xyz": [0.9516617609077801, 4.34185712311779, 23.2091398555403], "label": "P", "properties": {}}, {"species": [{"element": "O", "occu": 1}], "abc": [0.77429895, 0.16364523, 0.002874660000000001], "xyz": [3.8543409310617007, 1.72725101951073, 0.14146067613378005], "label": "O", "properties": {}}, {"species": [{"element": "O", "occu": 1}], "abc": [0.72577489, 0.66368426, 0.002909990000000001], "xyz": [3.61279563308694, 7.00508847534526, 0.14319924893467006], "label": "O", "properties": {}}, {"species": [{"element": "O", "occu": 1}], "abc": [0.6889687, 0.6532709, 0.05469641], "xyz": [3.4295800874202, 6.8951770121359, 2.69158479287653], "label": "O", "properties": {}}, {"species": [{"element": "O", "occu": 1}], "abc": [0.30876793, 0.34028215, 0.06746208], "xyz": [1.5369992052787802, 3.59162739120965, 3.3197774520086396], "label": "O", "properties": {}}, {"species": [{"element": "O", "occu": 1}], "abc": [0.19109053, 0.84036532, 0.06744716], "xyz": [0.9512192303983801, 8.86993073816732, 3.3190432457762804], "label": "O", "properties": {}}, {"species": [{"element": "O", "occu": 1}], "abc": [0.81118144, 0.15323037, 0.05466261], "xyz": [4.03793628637824, 1.61732372402487, 2.68992151066113], "label": "O", "properties": {}}, {"species": [{"element": "O", "occu": 1}], "abc": [0.80473628, 0.94840917, 0.026705129999999994], "xyz": [4.00585327245288, 10.010317476383669, 1.3141469760042896], "label": "O", "properties": {}}, {"species": [{"element": "O", "occu": 1}], "abc": [0.69565761, 0.44847186, 0.02675677], "xyz": [3.4628764513080603, 4.73355365999286, 1.31668815628841], "label": "O", "properties": {}}, {"species": [{"element": "O", "occu": 1}], "abc": [0.38468305, 0.08151848, 0.03135491], "xyz": [1.9148929817103002, 0.86041541014648, 1.54296047835703], "label": "O", "properties": {}}, {"species": [{"element": "O", "occu": 1}], "abc": [0.11553547, 0.58169377, 0.0314026], "xyz": [0.57511777719762, 6.139691069978269, 1.5453072809858002], "label": "O", "properties": {}}, {"species": [{"element": "O", "occu": 1}], "abc": [0.79479969, 0.15794345, 0.12928559], "xyz": [3.95639045766774, 1.66706958117595, 6.36208350752947], "label": "O", "properties": {}}, {"species": [{"element": "O", "occu": 1}], "abc": [0.2055636, 0.84120647, 0.11911532999999999], "xyz": [1.0232639440056002, 8.87880895108597, 5.86160976244089], "label": "O", "properties": {}}, {"species": [{"element": "O", "occu": 1}], "abc": [0.29452624, 0.34122931, 0.11912383000000001], "xyz": [1.46610626567904, 3.6016245238828097, 5.8620280434713905], "label": "O", "properties": {}}, {"species": [{"element": "O", "occu": 1}], "abc": [0.70530042, 0.65793874, 0.12929272], "xyz": [3.5108768744953207, 6.944445367827739, 6.36243437149976], "label": "O", "properties": {}}, {"species": [{"element": "O", "occu": 1}], "abc": [0.70295503, 0.65883039, 0.18118156], "xyz": [3.4992018842653807, 6.953856600721889, 8.915859955811479], "label": "O", "properties": {}}, {"species": [{"element": "O", "occu": 1}], "abc": [0.29734646, 0.34199358, 0.1925092], "xyz": [1.48014488652516, 3.60969127985658, 9.4732878302036], "label": "O", "properties": {}}, {"species": [{"element": "O", "occu": 1}], "abc": [0.20265043, 0.84195675, 0.19250776], "xyz": [1.00876263237378, 8.88672804469425, 9.47321696847608], "label": "O", "properties": {}}, {"species": [{"element": "O", "occu": 1}], "abc": [0.79700351, 0.15880439, 0.18118222], "xyz": [3.9673607342394606, 1.6761566745958898, 8.91589243410326], "label": "O", "properties": {}}, {"species": [{"element": "O", "occu": 1}], "abc": [0.20351909, 0.04985695, 0.09285827999999999], "xyz": [1.0130866880801401, 0.5262326785644499, 4.569512593983239], "label": "O", "properties": {}}, {"species": [{"element": "O", "occu": 1}], "abc": [0.79565231, 0.9494537, 0.15534], "xyz": [3.9606346687242606, 10.0213423348987, 7.644208856220001], "label": "O", "properties": {}}, {"species": [{"element": "O", "occu": 1}], "abc": [0.70423443, 0.44944703, 0.15534471], "xyz": [3.50557054043778, 4.74384643404253, 7.64444063312043], "label": "O", "properties": {}}, {"species": [{"element": "O", "occu": 1}], "abc": [0.29662645, 0.54987078, 0.09287724], "xyz": [1.4765607876267, 5.80380415215378, 4.57044560672892], "label": "O", "properties": {}}, {"species": [{"element": "O", "occu": 1}], "abc": [0.37912881, 0.08987137, 0.15548154], "xyz": [1.88724483034326, 0.94857891951587, 7.65117397352082], "label": "O", "properties": {}}, {"species": [{"element": "O", "occu": 1}], "abc": [0.61750192, 0.90755838, 0.09203184], "xyz": [3.0738294624643205, 9.579143474701379, 4.52884386753072], "label": "O", "properties": {}}, {"species": [{"element": "O", "occu": 1}], "abc": [0.88255997, 0.40768615, 0.09207328000000001], "xyz": [4.39324761642462, 4.30306656801365, 4.53088311057824], "label": "O", "properties": {}}, {"species": [{"element": "O", "occu": 1}], "abc": [0.12083093, 0.58979813, 0.15549141], "xyz": [0.6014777615767801, 6.22523138222863, 7.6516596716115295], "label": "O", "properties": {}}, {"species": [{"element": "O", "occu": 1}], "abc": [0.79674246, 0.15817824, 0.25531877], "xyz": [3.9660612675411606, 1.66954775464224, 12.564117437834408], "label": "O", "properties": {}}, {"species": [{"element": "O", "occu": 1}], "abc": [0.20417409, 0.84199846, 0.24434959], "xyz": [1.01634717721014, 8.887168287529459, 12.02432921264147], "label": "O", "properties": {}}, {"species": [{"element": "O", "occu": 1}], "abc": [0.29582215, 0.34201742, 0.24434938], "xyz": [1.4725571060889002, 3.60994290750442, 12.02431887863954], "label": "O", "properties": {}}, {"species": [{"element": "O", "occu": 1}], "abc": [0.70328505, 0.65818535, 0.2553242], "xyz": [3.5008446730023, 6.94704829963285, 12.5643846455986], "label": "O", "properties": {}}, {"species": [{"element": "O", "occu": 1}], "abc": [0.70119882, 0.65808824, 0.30718351], "xyz": [3.4904597413417204, 6.946023318052239, 15.11635707240083], "label": "O", "properties": {}}, {"species": [{"element": "O", "occu": 1}], "abc": [0.29708173, 0.34111876, 0.31872107], "xyz": [1.47882710135358, 3.60045768510476, 15.68411501196031], "label": "O", "properties": {}}, {"species": [{"element": "O", "occu": 1}], "abc": [0.20279438, 0.84116681, 0.31872046], "xyz": [1.00947919330548, 8.87839034569531, 15.684084994145179], "label": "O", "properties": {}}, {"species": [{"element": "O", "occu": 1}], "abc": [0.79874732, 0.15808753, 0.30717878], "xyz": [3.9760411518727206, 1.66859032410803, 15.11612431130974], "label": "O", "properties": {}}, {"species": [{"element": "O", "occu": 1}], "abc": [0.20386203, 0.051042, 0.21835833], "xyz": [1.01479379058738, 0.538740704742, 10.74531144595989], "label": "O", "properties": {}}, {"species": [{"element": "O", "occu": 1}], "abc": [0.79741255, 0.94904499, 0.28128519], "xyz": [3.9693968723673003, 10.01702846174649, 13.84191283971627], "label": "O", "properties": {}}, {"species": [{"element": "O", "occu": 1}], "abc": [0.7025856, 0.44904397, 0.28128657], "xyz": [3.4973629186176005, 4.73959219579847, 13.84198074887181], "label": "O", "properties": {}}, {"species": [{"element": "O", "occu": 1}], "abc": [0.29611925, 0.55106231, 0.21836139999999998], "xyz": [1.4740360241355002, 5.8163805737658105, 10.7454625192262], "label": "O", "properties": {}}, {"species": [{"element": "O", "occu": 1}], "abc": [0.38083895, 0.08959696, 0.28141572], "xyz": [1.8957576439017003, 0.9456825628529599, 13.848336160058759], "label": "O", "properties": {}}, {"species": [{"element": "O", "occu": 1}], "abc": [0.62048381, 0.91065528, 0.21832248999999998], "xyz": [3.0886728516732602, 9.611830792763278, 10.743547776297168], "label": "O", "properties": {}}, {"species": [{"element": "O", "occu": 1}], "abc": [0.87950562, 0.41068585, 0.21831961], "xyz": [4.37804353249452, 4.33472795455835, 10.74340605284213], "label": "O", "properties": {}}, {"species": [{"element": "O", "occu": 1}], "abc": [0.11915674, 0.5896193, 0.28141778], "xyz": [0.59314390158204, 6.2233438582242995, 13.84843753169674], "label": "O", "properties": {}}, {"species": [{"element": "O", "occu": 1}], "abc": [0.7947865, 0.15793425, 0.38071817], "xyz": [3.9563247998790003, 1.66697247654675, 18.73496335031461], "label": "O", "properties": {}}, {"species": [{"element": "O", "occu": 1}], "abc": [0.20648801, 0.84182159, 0.37064171], "xyz": [1.0278655146264601, 8.88530145103309, 18.23910545942143], "label": "O", "properties": {}}, {"species": [{"element": "O", "occu": 1}], "abc": [0.29338183, 0.34177222, 0.37064248], "xyz": [1.4604095689381802, 3.60735485803922, 18.23914335076184], "label": "O", "properties": {}}, {"species": [{"element": "O", "occu": 1}], "abc": [0.70511064, 0.65795162, 0.38071341], "xyz": [3.5099321788814404, 6.9445813143086195, 18.73472911293753], "label": "O", "properties": {}}, {"species": [{"element": "O", "occu": 1}], "abc": [0.68906696, 0.65956667, 0.43234672], "xyz": [3.4300692105681603, 6.96162792641617, 21.27558018528176], "label": "O", "properties": {}}, {"species": [{"element": "O", "occu": 1}], "abc": [0.31136926, 0.34701438, 0.44540412], "xyz": [1.54994822541396, 3.6626850757573797, 21.91812874147596], "label": "O", "properties": {}}, {"species": [{"element": "O", "occu": 1}], "abc": [0.18849294, 0.84703267, 0.44541982], "xyz": [0.9382888274072401, 8.94030362398217, 21.91890133114406], "label": "O", "properties": {}}, {"species": [{"element": "O", "occu": 1}], "abc": [0.8107834, 0.15953063, 0.43235283], "xyz": [4.035954904556401, 1.68382202958613, 21.275880855528392], "label": "O", "properties": {}}, {"species": [{"element": "O", "occu": 1}], "abc": [0.2054245, 0.05037849, 0.34458098], "xyz": [1.022571525627, 0.53173745555499, 16.95666910648234], "label": "O", "properties": {}}, {"species": [{"element": "O", "occu": 1}], "abc": [0.79747234, 0.94949326, 0.40705737], "xyz": [3.9696944977796402, 10.02175988480426, 20.03110308190821], "label": "O", "properties": {}}, {"species": [{"element": "O", "occu": 1}], "abc": [0.7023857, 0.4495293, 0.40705731], "xyz": [3.4963678472022, 4.7447147816343, 20.03110012933623], "label": "O", "properties": {}}, {"species": [{"element": "O", "occu": 1}], "abc": [0.29443314, 0.55033604, 0.34458093], "xyz": [1.46564282821644, 5.80871490213004, 16.95666664600569], "label": "O", "properties": {}}, {"species": [{"element": "O", "occu": 1}], "abc": [0.38367681, 0.09191047, 0.4079659], "xyz": [1.9098840739512601, 0.9701013161899699, 20.0758114189247], "label": "O", "properties": {}}, {"species": [{"element": "O", "occu": 1}], "abc": [0.62168585, 0.9097805, 0.34431678], "xyz": [3.0946564216791, 9.602597620205499, 16.94366794786374], "label": "O", "properties": {}}, {"species": [{"element": "O", "occu": 1}], "abc": [0.87819254, 0.40972519, 0.3443171], "xyz": [4.37150722246884, 4.32458833139669, 16.9436836949143], "label": "O", "properties": {}}, {"species": [{"element": "O", "occu": 1}], "abc": [0.11621348, 0.59194325, 0.40796401], "xyz": [0.57849280656408, 6.24787280420575, 20.075718412907328], "label": "O", "properties": {}}, {"species": [{"element": "O", "occu": 1}], "abc": [0.22747367, 0.83811181, 0.49720362999999995], "xyz": [1.13232889831482, 8.84614527589031, 24.467158438204788], "label": "O", "properties": {}}, {"species": [{"element": "O", "occu": 1}], "abc": [0.27215891, 0.33810441, 0.49718588], "xyz": [1.35476514150786, 3.56864166999291, 24.466284968994042], "label": "O", "properties": {}}, {"species": [{"element": "O", "occu": 1}], "abc": [0.19803241, 0.05266089, 0.47311513], "xyz": [0.9857748399888601, 0.55582784747739, 23.28177460253429], "label": "O", "properties": {}}, {"species": [{"element": "O", "occu": 1}], "abc": [0.30183676, 0.5526376, 0.4731083], "xyz": [1.50249690841896, 5.8330075249975994, 23.2814385014239], "label": "O", "properties": {}}, {"species": [{"element": "O", "occu": 1}], "abc": [0.61654504, 0.91888364, 0.46846594999999996], "xyz": [3.06906626118384, 9.69867990653764, 23.052990625901348], "label": "O", "properties": {}}, {"species": [{"element": "O", "occu": 1}], "abc": [0.8832515, 0.41889574, 0.4684274], "xyz": [4.396689946269, 4.42138212023474, 23.0510935984042], "label": "O", "properties": {}}]}, "formula": "(Li3PO4)16.0", "bandgap": 4.2387, "slab_thickness": 24.57912685702101}