{"miller": "010_0.02", "final_energy": -799.35920446, "gamma": 0.05701191898736844, "work_function": "Not calculated", "ionization_potentail": "Not calculated", "electron_affinity": "Not calculated", "is_stochiometric": true, "incar_parameters": {"SYSTEM": "unknown system", "LCOMPAT": false, "PREC": "normal", "ENMAX": 520.0, "ENAUG": 628.945, "EDIFF": 1e-05, "IALGO": 38, "IWAVPR": 11, "NBANDS": 370, "NBANDSLOW": -1, "NBANDSHIGH": -1, "NELECT": 608.0, "TURBO": 0, "IRESTART": 0, "NREBOOT": 0, "NMIN": 0, "EREF": 0.0, "ISMEAR": 0, "SIGMA": 0.05, "KSPACING": 0.5, "KGAMMA": true, "KBLOWUP": true, "LREAL": true, "ROPT": [-0.0005, -0.0005, -0.0005], "LMAXPAW": -100, "LMAXMIX": 2, "NLSPLINE": false, "ISTART": 0, "ICHARG": 2, "INIWAV": 1, "ISPIN": 1, "LNONCOLLINEAR": false, "MAGMOM": [0.6, 0.6, 0.6, 0.6, 0.6, 0.6, 0.6, 0.6, 0.6, 0.6, 0.6, 0.6, 0.6, 0.6, 0.6, 0.6, 0.6, 0.6, 0.6, 0.6, 0.6, 0.6, 0.6, 0.6, 0.6, 0.6, 0.6, 0.6, 0.6, 0.6, 0.6, 0.6, 0.6, 0.6, 0.6, 0.6, 0.6, 0.6, 0.6, 0.6, 0.6, 0.6, 0.6, 0.6, 0.6, 0.6, 0.6, 0.6, 0.6, 0.6, 0.6, 0.6, 0.6, 0.6, 0.6, 0.6, 0.6, 0.6, 0.6, 0.6, 0.6, 0.6, 0.6, 0.6, 0.6, 0.6, 0.6, 0.6, 0.6, 0.6, 0.6, 0.6, 0.6, 0.6, 0.6, 0.6, 0.6, 0.6, 0.6, 0.6, 0.6, 0.6, 0.6, 0.6, 0.6, 0.6, 0.6, 0.6, 0.6, 0.6, 0.6, 0.6, 0.6, 0.6, 0.6, 0.6, 0.6, 0.6, 0.6, 0.6, 0.6, 0.6, 0.6, 0.6, 0.6, 0.6, 0.6, 0.6, 0.6, 0.6, 0.6, 0.6, 0.6, 0.6, 0.6, 0.6, 0.6, 0.6, 0.6, 0.6, 0.6, 0.6, 0.6, 0.6, 0.6, 0.6, 0.6, 0.6], "NUPDOWN": -1.0, "LSORBIT": false, "SAXIS": [0.0, 0.0, 1.0], "LSPIRAL": false, "QSPIRAL": [0.0, 0.0, 0.0], "LZEROZ": false, "LASPH": false, "LMETAGGA": false, "NELM": 100, "NELMDL": -5, "NELMIN": 6, "ENINI": 520.0, "LDIAG": true, "LSUBROT": false, "WEIMIN": 0.001, "EBREAK": 1e-08, "DEPER": 0.3, "NRMM": 4, "TIME": 0.4, "AMIX": 0.4, "BMIX": 1.0, "AMIN": 0.1, "AMIX_MAG": 1.6, "BMIX_MAG": 1.0, "IMIX": 4, "MIXFIRST": false, "MAXMIX": -45, "WC": 100.0, "INIMIX": 1, "MIXPRE": 1, "MREMOVE": 5, "LDIPOL": false, "LMONO": false, "IDIPOL": 0, "EPSILON": 1.0, "DIPOL": [-100.0, -100.0, -100.0], "EFIELD": 0.0, "NGX": 28, "NGY": 60, "NGZ": 280, "NGXF": 56, "NGYF": 120, "NGZF": 560, "ADDGRID": false, "NSW": 150, "IBRION": 2, "MDALGO": 0, "ISIF": 2, "PSTRESS": 0.0, "EDIFFG": -0.01, "NFREE": 1, "POTIM": 0.5, "SMASS": -3.0, "SCALEE": 1.0, "TEBEG": 0.0001, "TEEND": 0.0001, "NBLOCK": 1, "KBLOCK": 150, "NPACO": 256, "APACO": 10.0, "ISYM": 0, "SYMPREC": 1e-05, "LORBIT": 11, "RWIGS": [-1.0, -1.0, -1.0], "NEDOS": 301, "EMIN": 10.0, "EMAX": -10.0, "EFERMI": 0.0, "NWRITE": 2, "LWAVE": false, "LDOWNSAMPLE": false, "LCHARG": false, "LPARD": false, "LVTOT": false, "LVHAR": false, "LELF": false, "LOPTICS": false, "STM": [0.0, 0.0, 0.0, 0.0, 0.0, 0.0, 0.0], "NPAR": 2, "NSIM": 4, "NBLK": -1, "LPLANE": true, "LSCALAPACK": true, "LSCAAWARE": false, "LSCALU": false, "LASYNC": false, "LORBITALREAL": false, "IDIOT": 3, "PHON_NSTRUCT": -1, "LMUSIC": false, "POMASS": [7.01, 30.974, 16.0], "DARWINR": [0.0, 0.0, 0.0], "DARWINV": [1.0, 1.0, 1.0], "LCORR": true, "GGA_COMPAT": true, "LBERRY": false, "ICORELEVEL": 0, "LDAU": false, "I_CONSTRAINED_M": 0, "GGA": "--", "VOSKOWN": 0, "LHFCALC": false, "PRECFOCK": "", "LSYMGRAD": false, "LHFONE": false, "LRHFCALC": false, "LTHOMAS": false, "LMODELHF": false, "LFOCKACE": false, "ENCUT4O": -1.0, "EXXOEP": 0, "FOURORBIT": 0, "AEXX": 0.0, "HFALPHA": 0.0, "MCALPHA": 0.0, "ALDAX": 1.0, "AGGAX": 1.0, "ALDAC": 1.0, "AGGAC": 1.0, "NKREDX": 1, "NKREDY": 1, "NKREDZ": 1, "SHIFTRED": false, "ODDONLY": false, "EVENONLY": false, "LMAXFOCK": 0, "NMAXFOCKAE": 0, "LFOCKAEDFT": false, "HFSCREEN": 0.0, "HFSCREENC": 0.0, "NBANDSGWLOW": 0, "LUSE_VDW": false, "Zab_VDW": -0.8491, "PARAM1": 0.1234, "PARAM2": 1.0, "PARAM3": 0.0, "MODEL_GW": 0, "MODEL_EPS0": 12.11948283, "MODEL_ALPHA": 1.0, "LEPSILON": false, "LRPA": false, "LNABLA": false, "LVEL": false, "CSHIFT": 0.1, "OMEGAMAX": -1.0, "DEG_THRESHOLD": 0.002, "RTIME": -0.1, "WPLASMAI": 0.0, "DFIELD": [0.0, 0.0, 0.0], "WPLASMA": [0.0, 0.0, 0.0, 0.0, 0.0, 0.0, 0.0, 0.0, 0.0], "NUCIND": false, "MAGPOS": [0.0, 0.0, 0.0], "LNICSALL": true, "ORBITALMAG": false, "LMAGBLOCH": false, "LCHIMAG": false, "LGAUGE": true, "MAGATOM": 0, "MAGDIPOL": [0.0, 0.0, 0.0], "AVECCONST": [0.0, 0.0, 0.0], "LFINITE_TEMPERATURE": false, "LADDER": false, "LRPAFORCE": false, "LFXC": false, "LHARTREE": true, "IBSE": 0, "KPOINT": [-1, 0, 0, 0], "LTCTC": false, "LTCTE": false, "LTETE": false, "LTRIPLET": false, "LFXCEPS": false, "LFXHEG": false, "NATURALO": 2, "LHOLEGF": false, "L2ORDER": false, "LDMP1": false, "LMP2LT": false, "LSMP2LT": false, "LGWLF": false, "ENCUTGW": -2.0, "ENCUTGWSOFT": -2.0, "ENCUTLF": -1.0, "LESF_SPLINES": false, "LMAXMP2": -1, "SCISSOR": 0.0, "NOMEGA": 0, "NOMEGAR": 0, "NBANDSGW": -1, "NBANDSO": -1, "NBANDSV": -1, "NELMGW": 1, "NELMHF": 1, "DIM": 3, "IESPILON": 4, "ANTIRES": 0, "OMEGAMIN": -30.0, "OMEGATL": -200.0, "OMEGAGRID": 0, "LSELFENERGY": false, "LSPECTRAL": false, "LSPECTRALGW": false, "LSINGLES": false, "LFERMIGW": false, "ODDONLYGW": false, "EVENONLYGW": false, "NKREDLFX": 1, "NKREDLFY": 1, "NKREDLFZ": 1, "MAXMEM": 2800, "TELESCOPE": 0, "NTAUPAR": -1, "NOMEGAPAR": -1, "DAMP_NEWTON": 0.80000001, "LAMBDA": 1.0, "OFIELD_KAPPA": 0.0, "OFIELD_K": [0.0, 0.0, 0.0], "OFIELD_Q6_NEAR": 0.0, "OFIELD_Q6_FAR": 0.0, "OFIELD_A": 0.0, "KPOINTS_OPT_MODE": 1, "LKPOINTS_OPT": false, "@module": "pymatgen.io.vasp.inputs", "@class": "Incar"}, "relaxed_structures": {"@module": "pymatgen.core.structure", "@class": "Structure", "charge": 0, "lattice": {"matrix": [[4.977846, 0.0, 0.0], [0.0, 10.554851, 0.0], [0.0, 0.0, 49.209533]], "a": 4.977846, "b": 10.554851, "c": 49.209533, "alpha": 90.0, "beta": 90.0, "gamma": 90.0, "volume": 2585.4896711333904}, "sites": [{"species": [{"element": "Li", "occu": 1}], "abc": [0.72857014, 0.83058669, 0.00010000000000000286], "xyz": [3.62670995711844, 8.766718755533189, 0.004920953300000141], "label": "Li", "properties": {}}, {"species": [{"element": "Li", "occu": 1}], "abc": [0.77170216, 0.33059205, 0.00011344000000000631], "xyz": [3.8414145103473603, 3.48934982953455, 0.00558232942352031], "label": "Li", "properties": {}}, {"species": [{"element": "Li", "occu": 1}], "abc": [0.29433406, 0.66540754, 0.06011525], "xyz": [1.4651496232347603, 7.02327743897654, 2.95824337867825], "label": "Li", "properties": {}}, {"species": [{"element": "Li", "occu": 1}], "abc": [0.71122057, 0.33255833, 0.06032563000000001], "xyz": [3.5403464694922206, 3.5101036219588297, 2.9685960802307907], "label": "Li", "properties": {}}, {"species": [{"element": "Li", "occu": 1}], "abc": [0.78871329, 0.83254353, 0.06032734], "xyz": [3.9260932957733403, 8.787372910164029, 2.9686802285322202], "label": "Li", "properties": {}}, {"species": [{"element": "Li", "occu": 1}], "abc": [0.20573161, 0.16541094, 0.0601336], "xyz": [1.0241002719120602, 1.74588782546994, 2.9591463736088], "label": "Li", "properties": {}}, {"species": [{"element": "Li", "occu": 1}], "abc": [0.1765219, 0.9441231, 0.0354051], "xyz": [0.8786988338274001, 9.9650786461581, 1.7422684368183001], "label": "Li", "properties": {}}, {"species": [{"element": "Li", "occu": 1}], "abc": [0.32266806, 0.44385457, 0.0353771], "xyz": [1.60619191179876, 4.6848188520190694, 1.7408905698943], "label": "Li", "properties": {}}, {"species": [{"element": "Li", "occu": 1}], "abc": [0.19644471, 0.16295817, 0.12432735], "xyz": [0.9778715138946601, 1.71999920358267, 6.1180908326275505], "label": "Li", "properties": {}}, {"species": [{"element": "Li", "occu": 1}], "abc": [0.80148673, 0.83603598, 0.12360424], "xyz": [3.9896775129835804, 8.824235199538979, 6.08250692721992], "label": "Li", "properties": {}}, {"species": [{"element": "Li", "occu": 1}], "abc": [0.69847334, 0.3360433, 0.12360542000000002], "xyz": [3.4768927216256404, 3.5468869610483, 6.082564994468861], "label": "Li", "properties": {}}, {"species": [{"element": "Li", "occu": 1}], "abc": [0.30353802, 0.66299681, 0.12431095], "xyz": [1.5109655187049202, 6.99783254302531, 6.11728379628635], "label": "Li", "properties": {}}, {"species": [{"element": "Li", "occu": 1}], "abc": [0.3023543, 0.66399973, 0.18688184000000002], "xyz": [1.5050731428378001, 7.00841821419023, 9.196368072580722], "label": "Li", "properties": {}}, {"species": [{"element": "Li", "occu": 1}], "abc": [0.69839299, 0.33721315, 0.18722153000000002], "xyz": [3.4764927516995403, 3.5592345534906498, 9.21308405884549], "label": "Li", "properties": {}}, {"species": [{"element": "Li", "occu": 1}], "abc": [0.80164196, 0.83721466, 0.18722173], "xyz": [3.99045022401816, 8.83667599131566, 9.21309390075209], "label": "Li", "properties": {}}, {"species": [{"element": "Li", "occu": 1}], "abc": [0.19763935, 0.16400448, 0.18688132000000002], "xyz": [0.9838182478401001, 1.73104284973248, 9.19634248362356], "label": "Li", "properties": {}}, {"species": [{"element": "Li", "occu": 1}], "abc": [0.79633799, 0.07455363, 0.09152239000000001], "xyz": [3.9640478781695405, 0.7869024561591299, 4.50377407094387], "label": "Li", "properties": {}}, {"species": [{"element": "Li", "occu": 1}], "abc": [0.2037425, 0.92531593, 0.15573368], "xyz": [1.0141987886550001, 9.76657176907643, 7.66358166517144], "label": "Li", "properties": {}}, {"species": [{"element": "Li", "occu": 1}], "abc": [0.29628122, 0.42530109, 0.15572802000000002], "xyz": [1.4748422858521202, 4.48898963508759, 7.663303139214661], "label": "Li", "properties": {}}, {"species": [{"element": "Li", "occu": 1}], "abc": [0.70364533, 0.57455077, 0.09152310000000002], "xyz": [3.50263809135918, 6.064297769285269, 4.503809009712302], "label": "Li", "properties": {}}, {"species": [{"element": "Li", "occu": 1}], "abc": [0.19865748, 0.16273108, 0.25069958], "xyz": [0.98888634218808, 1.7176023024690799, 12.336809255096139], "label": "Li", "properties": {}}, {"species": [{"element": "Li", "occu": 1}], "abc": [0.80147359, 0.83680593, 0.25022181], "xyz": [3.98961210408714, 8.83236190706643, 12.31329841651473], "label": "Li", "properties": {}}, {"species": [{"element": "Li", "occu": 1}], "abc": [0.69858491, 0.3367959, 0.25022124], "xyz": [3.47744809990386, 3.5548305419108996, 12.313270367080921], "label": "Li", "properties": {}}, {"species": [{"element": "Li", "occu": 1}], "abc": [0.30164891, 0.66276256, 0.25070962999999996], "xyz": [1.50156182004786, 6.99536006917856, 12.337303810902789], "label": "Li", "properties": {}}, {"species": [{"element": "Li", "occu": 1}], "abc": [0.2971943, 0.6629123, 0.31355666], "xyz": [1.4793874574778003, 6.9969405525673, 15.429976807639779], "label": "Li", "properties": {}}, {"species": [{"element": "Li", "occu": 1}], "abc": [0.69996882, 0.33572431, 0.31394928], "xyz": [3.4843369907617205, 3.54352006912781, 15.44929745448624], "label": "Li", "properties": {}}, {"species": [{"element": "Li", "occu": 1}], "abc": [0.80006156, 0.83571894, 0.31394921], "xyz": [3.98258323619976, 8.82088888957794, 15.44929400981893], "label": "Li", "properties": {}}, {"species": [{"element": "Li", "occu": 1}], "abc": [0.2028409, 0.1629123, 0.31355444], "xyz": [1.0097107627014001, 1.7195150525673, 15.42986756247652], "label": "Li", "properties": {}}, {"species": [{"element": "Li", "occu": 1}], "abc": [0.79698393, 0.07505065, 0.21864213000000002], "xyz": [3.9672632680147806, 0.7921484282031499, 10.759277111425291], "label": "Li", "properties": {}}, {"species": [{"element": "Li", "occu": 1}], "abc": [0.20399821, 0.92434246, 0.28220902], "xyz": [1.0154716736556602, 9.75629693827346, 13.887374082587659], "label": "Li", "properties": {}}, {"species": [{"element": "Li", "occu": 1}], "abc": [0.29602376, 0.42434327, 0.28220881], "xyz": [1.4735606896209603, 4.478879987702769, 13.887363748585729], "label": "Li", "properties": {}}, {"species": [{"element": "Li", "occu": 1}], "abc": [0.70304001, 0.57504814, 0.21864155], "xyz": [3.4996249016184606, 6.06954743552714, 10.75924856989615], "label": "Li", "properties": {}}, {"species": [{"element": "Li", "occu": 1}], "abc": [0.20004314, 0.16391028, 0.37712799999999996], "xyz": [0.9957839442764401, 1.7300485827682799, 18.558292761224], "label": "Li", "properties": {}}, {"species": [{"element": "Li", "occu": 1}], "abc": [0.8036662, 0.83691103, 0.37639444], "xyz": [4.0005265790052, 8.83347122190653, 18.52219461619652], "label": "Li", "properties": {}}, {"species": [{"element": "Li", "occu": 1}], "abc": [0.69636774, 0.33689939, 0.37639288], "xyz": [3.4664113690880405, 3.55592286344089, 18.52211784932504], "label": "Li", "properties": {}}, {"species": [{"element": "Li", "occu": 1}], "abc": [0.29999194, 0.66391395, 0.37712798999999997], "xyz": [1.4933136785612402, 7.007512819071449, 18.558292269128668], "label": "Li", "properties": {}}, {"species": [{"element": "Li", "occu": 1}], "abc": [0.28775388, 0.66760507, 0.44025574], "xyz": [1.4323945005424803, 7.04647204069457, 21.66477936596942], "label": "Li", "properties": {}}, {"species": [{"element": "Li", "occu": 1}], "abc": [0.69966862, 0.33416317, 0.44057857999999994], "xyz": [3.48284264139252, 3.52704246903767, 21.680666171603136], "label": "Li", "properties": {}}, {"species": [{"element": "Li", "occu": 1}], "abc": [0.80035056, 0.83415943, 0.44058105000000003], "xyz": [3.9840218336937605, 8.80442849389493, 21.680787719149652], "label": "Li", "properties": {}}, {"species": [{"element": "Li", "occu": 1}], "abc": [0.21228265, 0.1676077, 0.44025409], "xyz": [1.0567103401719, 1.7690742999526998, 21.66469817023997], "label": "Li", "properties": {}}, {"species": [{"element": "Li", "occu": 1}], "abc": [0.79884267, 0.07493225, 0.34503538], "xyz": [3.97651578948882, 0.79089873384475, 16.97902991827754], "label": "Li", "properties": {}}, {"species": [{"element": "Li", "occu": 1}], "abc": [0.20464945, 0.92542644, 0.40901730999999997], "xyz": [1.0187134460847, 9.76773818566044, 20.127550814016228], "label": "Li", "properties": {}}, {"species": [{"element": "Li", "occu": 1}], "abc": [0.2953856, 0.4254273, 0.40901731999999996], "xyz": [1.4703840274176003, 4.4903217628323, 20.12755130611156], "label": "Li", "properties": {}}, {"species": [{"element": "Li", "occu": 1}], "abc": [0.70119211, 0.57492695, 0.34503572], "xyz": [3.4904263399950604, 6.06826829313445, 16.97904664951876], "label": "Li", "properties": {}}, {"species": [{"element": "Li", "occu": 1}], "abc": [0.27086578, 0.16904013, 0.50072481], "xyz": [1.34832813950988, 1.78419338517063, 24.640434061613732], "label": "Li", "properties": {}}, {"species": [{"element": "Li", "occu": 1}], "abc": [0.22911807, 0.66904713, 0.50072476], "xyz": [1.1405144682772201, 7.06169276912763, 24.64043160113708], "label": "Li", "properties": {}}, {"species": [{"element": "Li", "occu": 1}], "abc": [0.82657041, 0.05707262, 0.46538325999999997], "xyz": [4.114540209136861, 0.60239300027962, 22.90129289061758], "label": "Li", "properties": {}}, {"species": [{"element": "Li", "occu": 1}], "abc": [0.6734323, 0.55706593, 0.46538344], "xyz": [3.3522422808258003, 5.87974788832643, 22.90130174833352], "label": "Li", "properties": {}}, {"species": [{"element": "P", "occu": 1}], "abc": [0.69372685, 0.09008407, 0.02804969000000001], "xyz": [3.4532654253651005, 0.95082393632357, 1.3803121456947705], "label": "P", "properties": {}}, {"species": [{"element": "P", "occu": 1}], "abc": [0.80593162, 0.59011326, 0.028051380000000008], "xyz": [4.01180349089052, 6.22855753242426, 1.3803953098055404], "label": "P", "properties": {}}, {"species": [{"element": "P", "occu": 1}], "abc": [0.69312124, 0.08870324, 0.15535846], "xyz": [3.45025079204904, 0.93624948141724, 7.64511726419918], "label": "P", "properties": {}}, {"species": [{"element": "P", "occu": 1}], "abc": [0.30386076, 0.91131866, 0.09291121000000002], "xyz": [1.5125720687229602, 9.618832669819659, 4.572117254564931], "label": "P", "properties": {}}, {"species": [{"element": "P", "occu": 1}], "abc": [0.19606764, 0.41130854, 0.09291258000000002], "xyz": [0.97599451750344, 4.341300354727539, 4.572184671625141], "label": "P", "properties": {}}, {"species": [{"element": "P", "occu": 1}], "abc": [0.80691835, 0.58869138, 0.15536506], "xyz": [4.0167152808741005, 6.21354980088438, 7.64544204711698], "label": "P", "properties": {}}, {"species": [{"element": "P", "occu": 1}], "abc": [0.69473093, 0.08824147, 0.28201902], "xyz": [3.45826358097678, 0.93137556787097, 13.87802427131766], "label": "P", "properties": {}}, {"species": [{"element": "P", "occu": 1}], "abc": [0.30601272, 0.91160419, 0.21879888], "xyz": [1.5232841942011202, 9.62184639642569, 10.76699070572304], "label": "P", "properties": {}}, {"species": [{"element": "P", "occu": 1}], "abc": [0.19405396, 0.41160755, 0.21880026], "xyz": [0.9659707285701601, 4.34445636072505, 10.76705861487858], "label": "P", "properties": {}}, {"species": [{"element": "P", "occu": 1}], "abc": [0.80540351, 0.58825498, 0.28201526], "xyz": [4.00917464063946, 6.20894366390798, 13.877839243473579], "label": "P", "properties": {}}, {"species": [{"element": "P", "occu": 1}], "abc": [0.69746678, 0.08867593, 0.4078198], "xyz": [3.47188222095588, 0.9359612284364299, 20.0686219061534], "label": "P", "properties": {}}, {"species": [{"element": "P", "occu": 1}], "abc": [0.30763569, 0.91141995, 0.34537749], "xyz": [1.5313630889237402, 9.61990177067745, 16.99586499161217], "label": "P", "properties": {}}, {"species": [{"element": "P", "occu": 1}], "abc": [0.19243246, 0.41140812, 0.34538038], "xyz": [0.9578991512811601, 4.34235140679012, 16.99600720716254], "label": "P", "properties": {}}, {"species": [{"element": "P", "occu": 1}], "abc": [0.80267489, 0.58865804, 0.40782081], "xyz": [3.9955919904869406, 6.213197902152039, 20.068671607781727], "label": "P", "properties": {}}, {"species": [{"element": "P", "occu": 1}], "abc": [0.31014507, 0.91004663, 0.47255229], "xyz": [1.5438543961192202, 9.605406582702129, 23.25407750898057], "label": "P", "properties": {}}, {"species": [{"element": "P", "occu": 1}], "abc": [0.18984541, 0.41003886, 0.47255311], "xyz": [0.9450212147868601, 4.32789907150986, 23.25411786079763], "label": "P", "properties": {}}, {"species": [{"element": "O", "occu": 1}], "abc": [0.775163, 0.16343617, 0.002533660000000007], "xyz": [3.8586420388980005, 1.7250444223606698, 0.12468022538078034], "label": "O", "properties": {}}, {"species": [{"element": "O", "occu": 1}], "abc": [0.72438892, 0.66358452, 0.002556220000000005], "xyz": [3.60589648786632, 7.00403573450652, 0.12579039244526025], "label": "O", "properties": {}}, {"species": [{"element": "O", "occu": 1}], "abc": [0.68746034, 0.65429156, 0.05436958000000001], "xyz": [3.4220717036276405, 6.905949926357559, 2.6755016412061403], "label": "O", "properties": {}}, {"species": [{"element": "O", "occu": 1}], "abc": [0.8124467, 0.15431499, 0.05435156], "xyz": [4.0442345558082, 1.62877172651649, 2.67461488542148], "label": "O", "properties": {}}, {"species": [{"element": "O", "occu": 1}], "abc": [0.80517167, 0.94889038, 0.02659804000000001], "xyz": [4.008020576822821, 10.01539657623338, 1.3088771271153206], "label": "O", "properties": {}}, {"species": [{"element": "O", "occu": 1}], "abc": [0.69430953, 0.44893678, 0.02657286000000001], "xyz": [3.45616591667238, 4.738460821319779, 1.3076380310743805], "label": "O", "properties": {}}, {"species": [{"element": "O", "occu": 1}], "abc": [0.38560732, 0.08234227, 0.031170670000000004], "xyz": [1.91949385543272, 0.8691103908517699, 1.5338941139971103], "label": "O", "properties": {}}, {"species": [{"element": "O", "occu": 1}], "abc": [0.11405354, 0.58232095, 0.031158830000000005], "xyz": [0.56774095787484, 6.146310861428449, 1.5333114731263904], "label": "O", "properties": {}}, {"species": [{"element": "O", "occu": 1}], "abc": [0.79449518, 0.15794468, 0.12927117000000002], "xyz": [3.95487465378228, 1.66708256364268, 6.361373906063611], "label": "O", "properties": {}}, {"species": [{"element": "O", "occu": 1}], "abc": [0.20583074, 0.84197649, 0.11903044000000002], "xyz": [1.0245937257860402, 8.886936397452988, 5.857432365184521], "label": "O", "properties": {}}, {"species": [{"element": "O", "occu": 1}], "abc": [0.29418916, 0.34194762, 0.11902609], "xyz": [1.4644283333493602, 3.60920617890462, 5.85721830371597], "label": "O", "properties": {}}, {"species": [{"element": "O", "occu": 1}], "abc": [0.70549081, 0.65792838, 0.12927834000000002], "xyz": [3.5118246065952605, 6.944336019571379, 6.361726738415221], "label": "O", "properties": {}}, {"species": [{"element": "O", "occu": 1}], "abc": [0.70221669, 0.65879268, 0.18122564000000002], "xyz": [3.49552654144974, 6.95345857729068, 8.91802911202612], "label": "O", "properties": {}}, {"species": [{"element": "O", "occu": 1}], "abc": [0.30917545, 0.3409864, 0.06735058000000002], "xyz": [1.5390277770807002, 3.5990606450264, 3.314290589079141], "label": "O", "properties": {}}, {"species": [{"element": "O", "occu": 1}], "abc": [0.19067047, 0.84101684, 0.06735133000000001], "xyz": [0.9491282364076201, 8.87680743469084, 3.314327496228891], "label": "O", "properties": {}}, {"species": [{"element": "O", "occu": 1}], "abc": [0.7978331, 0.15880861, 0.18121859], "xyz": [3.9714903055026003, 1.6762012160671098, 8.91768218481847], "label": "O", "properties": {}}, {"species": [{"element": "O", "occu": 1}], "abc": [0.20340847, 0.05064896, 0.09271379000000002], "xyz": [1.0125360387556201, 0.5345922261049599, 4.562402308560071], "label": "O", "properties": {}}, {"species": [{"element": "O", "occu": 1}], "abc": [0.79592676, 0.94944053, 0.15538677], "xyz": [3.9620008385589602, 10.021203327511028, 7.64651038607841], "label": "O", "properties": {}}, {"species": [{"element": "O", "occu": 1}], "abc": [0.704179, 0.44941637, 0.15539516], "xyz": [3.505294618434, 4.74352282231087, 7.6469232540602805], "label": "O", "properties": {}}, {"species": [{"element": "O", "occu": 1}], "abc": [0.29644812, 0.55063768, 0.09271264000000001], "xyz": [1.47567308834952, 5.811898667385679, 4.562345717597121], "label": "O", "properties": {}}, {"species": [{"element": "O", "occu": 1}], "abc": [0.37938858, 0.09001124, 0.15559273], "xyz": [1.88853792539868, 0.95005522652524, 7.6566455814950904], "label": "O", "properties": {}}, {"species": [{"element": "O", "occu": 1}], "abc": [0.6173573, 0.90840386, 0.09187308000000002], "xyz": [3.0731095663758, 9.58806739012486, 4.521031362071641], "label": "O", "properties": {}}, {"species": [{"element": "O", "occu": 1}], "abc": [0.88257546, 0.40839084, 0.09186927], "xyz": [4.39332472325916, 4.310504465964839, 4.52084387375091], "label": "O", "properties": {}}, {"species": [{"element": "O", "occu": 1}], "abc": [0.12066185, 0.59002894, 0.15559616], "xyz": [0.6006361073751001, 6.227667547387939, 7.65681437019328], "label": "O", "properties": {}}, {"species": [{"element": "O", "occu": 1}], "abc": [0.79713416, 0.15804361, 0.25604646999999997], "xyz": [3.9680110898193606, 1.66812675505211, 12.599927214998509], "label": "O", "properties": {}}, {"species": [{"element": "O", "occu": 1}], "abc": [0.20362569, 0.8416789, 0.24476318], "xyz": [1.01361732646374, 8.8837953793439, 12.04468178339494], "label": "O", "properties": {}}, {"species": [{"element": "O", "occu": 1}], "abc": [0.29643065, 0.34167942, 0.24476496], "xyz": [1.4755861253799003, 3.60637536786642, 12.04476937636368], "label": "O", "properties": {}}, {"species": [{"element": "O", "occu": 1}], "abc": [0.70300578, 0.65807589, 0.25604406999999996], "xyz": [3.4994545099498806, 6.94589296564239, 12.599809112119308], "label": "O", "properties": {}}, {"species": [{"element": "O", "occu": 1}], "abc": [0.70180363, 0.65810766, 0.30794132999999996], "xyz": [3.4934703923809804, 6.94622829325866, 15.153649040698888], "label": "O", "properties": {}}, {"species": [{"element": "O", "occu": 1}], "abc": [0.29772392, 0.34182916, 0.19286859000000003], "xyz": [1.48202382427632, 3.60795585125516, 9.490973244268472], "label": "O", "properties": {}}, {"species": [{"element": "O", "occu": 1}], "abc": [0.2023, 0.84183734, 0.19286909], "xyz": [1.0070182458, 8.88546768993634, 9.49099784903497], "label": "O", "properties": {}}, {"species": [{"element": "O", "occu": 1}], "abc": [0.79826146, 0.15812584, 0.30794408], "xyz": [3.9736226156151604, 1.6689946804498397, 15.15378436691464], "label": "O", "properties": {}}, {"species": [{"element": "O", "occu": 1}], "abc": [0.20288659, 0.05082464, 0.21877895], "xyz": [1.00993820048514, 0.5364465023286399, 10.76600995973035], "label": "O", "properties": {}}, {"species": [{"element": "O", "occu": 1}], "abc": [0.79758152, 0.9489798, 0.28207262], "xyz": [3.9702379790059203, 10.0163403910098, 13.88066190228646], "label": "O", "properties": {}}, {"species": [{"element": "O", "occu": 1}], "abc": [0.70252395, 0.44899476, 0.28206703], "xyz": [3.4970560344117003, 4.739072791580759, 13.88038682099699], "label": "O", "properties": {}}, {"species": [{"element": "O", "occu": 1}], "abc": [0.2972148, 0.55081692, 0.21878324000000002], "xyz": [1.4794895033208002, 5.81379051887892, 10.76622106862692], "label": "O", "properties": {}}, {"species": [{"element": "O", "occu": 1}], "abc": [0.38086491, 0.08937037, 0.28208054], "xyz": [1.8958868687838601, 0.94329093916487, 13.88105164178782], "label": "O", "properties": {}}, {"species": [{"element": "O", "occu": 1}], "abc": [0.6198546, 0.91044731, 0.21871755], "xyz": [3.0855407411916005, 9.60963570040081, 10.762988494404151], "label": "O", "properties": {}}, {"species": [{"element": "O", "occu": 1}], "abc": [0.88021568, 0.4104545, 0.21871923000000001], "xyz": [4.38157810182528, 4.3322860897795, 10.763071166419591], "label": "O", "properties": {}}, {"species": [{"element": "O", "occu": 1}], "abc": [0.11926495, 0.58939207, 0.28207852], "xyz": [0.5936825542977, 6.22094547943157, 13.88095223853116], "label": "O", "properties": {}}, {"species": [{"element": "O", "occu": 1}], "abc": [0.79559775, 0.15821703, 0.38172523999999997], "xyz": [3.9603630774465004, 1.66995717731253, 18.78452079471292], "label": "O", "properties": {}}, {"species": [{"element": "O", "occu": 1}], "abc": [0.20567163, 0.84209826, 0.37142271], "xyz": [1.0238017007089801, 8.888221661659259, 18.27753810469443], "label": "O", "properties": {}}, {"species": [{"element": "O", "occu": 1}], "abc": [0.29437553, 0.3420712, 0.37142432999999997], "xyz": [1.4653560545083801, 3.6105105473912, 18.277617824137888], "label": "O", "properties": {}}, {"species": [{"element": "O", "occu": 1}], "abc": [0.7045155, 0.6582176, 0.38172995], "xyz": [3.5069696636130003, 6.947388693577599, 18.78475257161335], "label": "O", "properties": {}}, {"species": [{"element": "O", "occu": 1}], "abc": [0.69007318, 0.65907645, 0.43338863], "xyz": [3.43507801877028, 6.95645372735895, 21.32685208980979], "label": "O", "properties": {}}, {"species": [{"element": "O", "occu": 1}], "abc": [0.29711183, 0.34135258, 0.31952190999999996], "xyz": [1.4789769345181802, 3.6029256203655797, 15.723523974368028], "label": "O", "properties": {}}, {"species": [{"element": "O", "occu": 1}], "abc": [0.2029044, 0.84135934, 0.31952164], "xyz": [1.0100268559224002, 8.88042247115834, 15.72351068779412], "label": "O", "properties": {}}, {"species": [{"element": "O", "occu": 1}], "abc": [0.81004403, 0.15914516, 0.43338204999999996], "xyz": [4.032274434559381, 1.67975345117116, 21.32652829108265], "label": "O", "properties": {}}, {"species": [{"element": "O", "occu": 1}], "abc": [0.2051703, 0.05071269, 0.34535551], "xyz": [1.0213061571738, 0.5352648867591899, 16.994783366076827], "label": "O", "properties": {}}, {"species": [{"element": "O", "occu": 1}], "abc": [0.79827733, 0.94944221, 0.4079915], "xyz": [3.9737016140311803, 10.021221059660709, 20.0770711829695], "label": "O", "properties": {}}, {"species": [{"element": "O", "occu": 1}], "abc": [0.70187041, 0.44941877, 0.40798133999999997], "xyz": [3.49380281293686, 4.74354815395327, 20.076571214114217], "label": "O", "properties": {}}, {"species": [{"element": "O", "occu": 1}], "abc": [0.29492414, 0.55069816, 0.34535925], "xyz": [1.46808695060244, 5.81253702477416, 16.99496740973025], "label": "O", "properties": {}}, {"species": [{"element": "O", "occu": 1}], "abc": [0.38394166, 0.09155681, 0.40880067], "xyz": [1.9112024564643602, 0.9663684875853099, 20.11689006078711], "label": "O", "properties": {}}, {"species": [{"element": "O", "occu": 1}], "abc": [0.6213501, 0.91018785, 0.34518772999999997], "xyz": [3.0929851098846, 9.606897138760349, 16.98652699063009], "label": "O", "properties": {}}, {"species": [{"element": "O", "occu": 1}], "abc": [0.87872195, 0.4101894, 0.34519111999999996], "xyz": [4.3741425439197, 4.3294879987794, 16.986693810946957], "label": "O", "properties": {}}, {"species": [{"element": "O", "occu": 1}], "abc": [0.11619367, 0.59157208, 0.40880274], "xyz": [0.5783941954348201, 6.243955160160079, 20.11699192452042], "label": "O", "properties": {}}, {"species": [{"element": "O", "occu": 1}], "abc": [0.22918679, 0.83630761, 0.49805000999999993], "xyz": [1.14085654585434, 8.82710221371611, 24.508808402745327], "label": "O", "properties": {}}, {"species": [{"element": "O", "occu": 1}], "abc": [0.27083403, 0.33629903, 0.49804952999999996], "xyz": [1.34817009289938, 3.5495861530945296, 24.50878478216949], "label": "O", "properties": {}}, {"species": [{"element": "O", "occu": 1}], "abc": [0.30902828, 0.34590553, 0.44625346999999993], "xyz": [1.53829518748488, 3.65098132922603, 21.959924858329508], "label": "O", "properties": {}}, {"species": [{"element": "O", "occu": 1}], "abc": [0.19099966, 0.84589397, 0.44625309999999996], "xyz": [0.95076689353236, 8.92828481514847, 21.9599066508023], "label": "O", "properties": {}}, {"species": [{"element": "O", "occu": 1}], "abc": [0.19782183, 0.05108265, 0.47407716], "xyz": [0.9847266051781801, 0.53916975943515, 23.32911564956628], "label": "O", "properties": {}}, {"species": [{"element": "O", "occu": 1}], "abc": [0.30212927, 0.55107703, 0.47408406999999997], "xyz": [1.5039529781524201, 5.816535941172529, 23.32945568743931], "label": "O", "properties": {}}, {"species": [{"element": "O", "occu": 1}], "abc": [0.61808151, 0.91814668, 0.46940965], "xyz": [3.0767145722274605, 9.690901403544679, 23.09942966219345], "label": "O", "properties": {}}, {"species": [{"element": "O", "occu": 1}], "abc": [0.88190918, 0.41812002, 0.46940797], "xyz": [4.39000808402628, 4.41319451121702, 23.09934699017801], "label": "O", "properties": {}}]}, "formula": "(Li3PO4)16.0", "bandgap": 4.2377, "slab_thickness": 24.63551310831373}