{"miller": "011_0.18", "final_energy": -899.47514502, "gamma": 0.05380280194534533, "work_function": "Not calculated", "ionization_potentail": "Not calculated", "electron_affinity": "Not calculated", "is_stochiometric": true, "incar_parameters": {"SYSTEM": "unknown system", "LCOMPAT": false, "PREC": "normal", "ENMAX": 520.0, "ENAUG": 628.945, "EDIFF": 1e-05, "IALGO": 38, "IWAVPR": 11, "NBANDS": 415, "NBANDSLOW": -1, "NBANDSHIGH": -1, "NELECT": 684.0, "TURBO": 0, "IRESTART": 0, "NREBOOT": 0, "NMIN": 0, "EREF": 0.0, "ISMEAR": 0, "SIGMA": 0.05, "KSPACING": 0.5, "KGAMMA": true, "KBLOWUP": true, "LREAL": true, "ROPT": [-0.0005, -0.0005, -0.0005], "LMAXPAW": -100, "LMAXMIX": 2, "NLSPLINE": false, "ISTART": 0, "ICHARG": 2, "INIWAV": 1, "ISPIN": 1, "LNONCOLLINEAR": false, "MAGMOM": [0.6, 0.6, 0.6, 0.6, 0.6, 0.6, 0.6, 0.6, 0.6, 0.6, 0.6, 0.6, 0.6, 0.6, 0.6, 0.6, 0.6, 0.6, 0.6, 0.6, 0.6, 0.6, 0.6, 0.6, 0.6, 0.6, 0.6, 0.6, 0.6, 0.6, 0.6, 0.6, 0.6, 0.6, 0.6, 0.6, 0.6, 0.6, 0.6, 0.6, 0.6, 0.6, 0.6, 0.6, 0.6, 0.6, 0.6, 0.6, 0.6, 0.6, 0.6, 0.6, 0.6, 0.6, 0.6, 0.6, 0.6, 0.6, 0.6, 0.6, 0.6, 0.6, 0.6, 0.6, 0.6, 0.6, 0.6, 0.6, 0.6, 0.6, 0.6, 0.6, 0.6, 0.6, 0.6, 0.6, 0.6, 0.6, 0.6, 0.6, 0.6, 0.6, 0.6, 0.6, 0.6, 0.6, 0.6, 0.6, 0.6, 0.6, 0.6, 0.6, 0.6, 0.6, 0.6, 0.6, 0.6, 0.6, 0.6, 0.6, 0.6, 0.6, 0.6, 0.6, 0.6, 0.6, 0.6, 0.6, 0.6, 0.6, 0.6, 0.6, 0.6, 0.6, 0.6, 0.6, 0.6, 0.6, 0.6, 0.6, 0.6, 0.6, 0.6, 0.6, 0.6, 0.6, 0.6, 0.6, 0.6, 0.6, 0.6, 0.6, 0.6, 0.6, 0.6, 0.6, 0.6, 0.6, 0.6, 0.6, 0.6, 0.6, 0.6, 0.6], "NUPDOWN": -1.0, "LSORBIT": false, "SAXIS": [0.0, 0.0, 1.0], "LSPIRAL": false, "QSPIRAL": [0.0, 0.0, 0.0], "LZEROZ": false, "LASPH": false, "LMETAGGA": false, "NELM": 100, "NELMDL": -5, "NELMIN": 6, "ENINI": 520.0, "LDIAG": true, "LSUBROT": false, "WEIMIN": 0.001, "EBREAK": 1e-08, "DEPER": 0.3, "NRMM": 4, "TIME": 0.4, "AMIX": 0.4, "BMIX": 1.0, "AMIN": 0.1, "AMIX_MAG": 1.6, "BMIX_MAG": 1.0, "IMIX": 4, "MIXFIRST": false, "MAXMIX": -45, "WC": 100.0, "INIMIX": 1, "MIXPRE": 1, "MREMOVE": 5, "LDIPOL": false, "LMONO": false, "IDIPOL": 0, "EPSILON": 1.0, "DIPOL": [-100.0, -100.0, -100.0], "EFIELD": 0.0, "NGX": 28, "NGY": 70, "NGZ": 240, "NGXF": 56, "NGYF": 140, "NGZF": 480, "ADDGRID": false, "NSW": 150, "IBRION": 2, "MDALGO": 0, "ISIF": 2, "PSTRESS": 0.0, "EDIFFG": -0.01, "NFREE": 1, "POTIM": 0.5, "SMASS": -3.0, "SCALEE": 1.0, "TEBEG": 0.0001, "TEEND": 0.0001, "NBLOCK": 1, "KBLOCK": 150, "NPACO": 256, "APACO": 10.0, "ISYM": 0, "SYMPREC": 1e-05, "LORBIT": 11, "RWIGS": [-1.0, -1.0, -1.0], "NEDOS": 301, "EMIN": 10.0, "EMAX": -10.0, "EFERMI": 0.0, "NWRITE": 2, "LWAVE": false, "LDOWNSAMPLE": false, "LCHARG": false, "LPARD": false, "LVTOT": false, "LVHAR": false, "LELF": false, "LOPTICS": false, "STM": [0.0, 0.0, 0.0, 0.0, 0.0, 0.0, 0.0], "NPAR": 1, "NSIM": 4, "NBLK": -1, "LPLANE": true, "LSCALAPACK": true, "LSCAAWARE": false, "LSCALU": false, "LASYNC": false, "LORBITALREAL": false, "IDIOT": 3, "PHON_NSTRUCT": -1, "LMUSIC": false, "POMASS": [7.01, 30.974, 16.0], "DARWINR": [0.0, 0.0, 0.0], "DARWINV": [1.0, 1.0, 1.0], "LCORR": true, "GGA_COMPAT": true, "LBERRY": false, "ICORELEVEL": 0, "LDAU": false, "I_CONSTRAINED_M": 0, "GGA": "--", "VOSKOWN": 0, "LHFCALC": false, "PRECFOCK": "", "LSYMGRAD": false, "LHFONE": false, "LRHFCALC": false, "LTHOMAS": false, "LMODELHF": false, "LFOCKACE": false, "ENCUT4O": -1.0, "EXXOEP": 0, "FOURORBIT": 0, "AEXX": 0.0, "HFALPHA": 0.0, "MCALPHA": 0.0, "ALDAX": 1.0, "AGGAX": 1.0, "ALDAC": 1.0, "AGGAC": 1.0, "NKREDX": 1, "NKREDY": 1, "NKREDZ": 1, "SHIFTRED": false, "ODDONLY": false, "EVENONLY": false, "LMAXFOCK": 0, "NMAXFOCKAE": 0, "LFOCKAEDFT": false, "HFSCREEN": 0.0, "HFSCREENC": 0.0, "NBANDSGWLOW": 0, "LUSE_VDW": false, "Zab_VDW": -0.8491, "PARAM1": 0.1234, "PARAM2": 1.0, "PARAM3": 0.0, "MODEL_GW": 0, "MODEL_EPS0": 10.77287361, "MODEL_ALPHA": 1.0, "LEPSILON": false, "LRPA": false, "LNABLA": false, "LVEL": false, "CSHIFT": 0.1, "OMEGAMAX": -1.0, "DEG_THRESHOLD": 0.002, "RTIME": -0.1, "WPLASMAI": 0.0, "DFIELD": [0.0, 0.0, 0.0], "WPLASMA": [0.0, 0.0, 0.0, 0.0, 0.0, 0.0, 0.0, 0.0, 0.0], "NUCIND": false, "MAGPOS": [0.0, 0.0, 0.0], "LNICSALL": true, "ORBITALMAG": false, "LMAGBLOCH": false, "LCHIMAG": false, "LGAUGE": true, "MAGATOM": 0, "MAGDIPOL": [0.0, 0.0, 0.0], "AVECCONST": [0.0, 0.0, 0.0], "LFINITE_TEMPERATURE": false, "LADDER": false, "LRPAFORCE": false, "LFXC": false, "LHARTREE": true, "IBSE": 0, "KPOINT": [-1, 0, 0, 0], "LTCTC": false, "LTCTE": false, "LTETE": false, "LTRIPLET": false, "LFXCEPS": false, "LFXHEG": false, "NATURALO": 2, "LHOLEGF": false, "L2ORDER": false, "LDMP1": false, "LMP2LT": false, "LSMP2LT": false, "LGWLF": false, "ENCUTGW": -2.0, "ENCUTGWSOFT": -2.0, "ENCUTLF": -1.0, "LESF_SPLINES": false, "LMAXMP2": -1, "SCISSOR": 0.0, "NOMEGA": 0, "NOMEGAR": 0, "NBANDSGW": -1, "NBANDSO": -1, "NBANDSV": -1, "NELMGW": 1, "NELMHF": 1, "DIM": 3, "IESPILON": 4, "ANTIRES": 0, "OMEGAMIN": -30.0, "OMEGATL": -200.0, "OMEGAGRID": 0, "LSELFENERGY": false, "LSPECTRAL": false, "LSPECTRALGW": false, "LSINGLES": false, "LFERMIGW": false, "ODDONLYGW": false, "EVENONLYGW": false, "NKREDLFX": 1, "NKREDLFY": 1, "NKREDLFZ": 1, "MAXMEM": 2800, "TELESCOPE": 0, "NTAUPAR": -1, "NOMEGAPAR": -1, "DAMP_NEWTON": 0.80000001, "LAMBDA": 1.0, "OFIELD_KAPPA": 0.0, "OFIELD_K": [0.0, 0.0, 0.0], "OFIELD_Q6_NEAR": 0.0, "OFIELD_Q6_FAR": 0.0, "OFIELD_A": 0.0, "KPOINTS_OPT_MODE": 1, "LKPOINTS_OPT": false, "@module": "pymatgen.io.vasp.inputs", "@class": "Incar"}, "relaxed_structures": {"@module": "pymatgen.core.structure", "@class": "Structure", "charge": 0, "lattice": {"matrix": [[4.977846, 0.0, 0.0], [0.0, 12.216466, 0.0], [0.0, 0.0, 42.516329]], "a": 4.977846, "b": 12.216466, "c": 42.516329, "alpha": 90.0, "beta": 90.0, "gamma": 90.0, "volume": 2585.4896665474557}, "sites": [{"species": [{"element": "Li", "occu": 1}], "abc": [0.19500864, 0.04842852, 0.0612259], "xyz": [0.9707229785894401, 0.5916253680103201, 2.6031005077211], "label": "Li", "properties": {}}, {"species": [{"element": "Li", "occu": 1}], "abc": [0.84972032, 0.76666886, 0.01705743], "xyz": [4.22977689603072, 9.36598406144876, 0.7252193057744699], "label": "Li", "properties": {}}, {"species": [{"element": "Li", "occu": 1}], "abc": [0.70040423, 0.17374906, 0.07692991], "xyz": [3.48650439468858, 2.1225994840219604, 3.27077736350039], "label": "Li", "properties": {}}, {"species": [{"element": "Li", "occu": 1}], "abc": [0.29859526, 0.41636168, 0.1224182], "xyz": [1.48636122060996, 5.08646830742288, 5.2047724667878], "label": "Li", "properties": {}}, {"species": [{"element": "Li", "occu": 1}], "abc": [0.28591594, 0.55049269, 0.05920774], "xyz": [1.42324551826524, 6.72507523063354, 2.51729575318646], "label": "Li", "properties": {}}, {"species": [{"element": "Li", "occu": 1}], "abc": [0.18380787, 0.45704006, 0.0016273900000000003], "xyz": [0.9149672704480202, 5.58341435362796, 0.06919064865131001], "label": "Li", "properties": {}}, {"species": [{"element": "Li", "occu": 1}], "abc": [0.79925762, 0.66384114, 0.08075687000000001], "xyz": [3.9785813466865205, 8.10979271621124, 3.43348565393023], "label": "Li", "properties": {}}, {"species": [{"element": "Li", "occu": 1}], "abc": [0.21230657, 0.91376236, 0.12038973], "xyz": [1.05682941024822, 11.16294680301976, 5.11852936890117], "label": "Li", "properties": {}}, {"species": [{"element": "Li", "occu": 1}], "abc": [0.67645521, 0.32996019, 0.018572139999999997], "xyz": [3.3672898612776603, 4.03094744248854, 0.7896192144740599], "label": "Li", "properties": {}}, {"species": [{"element": "Li", "occu": 1}], "abc": [0.21453755, 0.78734736, 0.06432032], "xyz": [1.0679348851173, 9.618602253629762, 2.73466388650528], "label": "Li", "properties": {}}, {"species": [{"element": "Li", "occu": 1}], "abc": [0.3027613, 0.17783944, 0.12109293], "xyz": [1.5070991261598001, 2.17256947221904, 5.14842685145397], "label": "Li", "properties": {}}, {"species": [{"element": "Li", "occu": 1}], "abc": [0.69375446, 0.41447624, 0.07904041], "xyz": [3.45340286369316, 5.06343489376784, 3.36050807585489], "label": "Li", "properties": {}}, {"species": [{"element": "Li", "occu": 1}], "abc": [0.19946273, 0.78700985, 0.18559682], "xyz": [0.9928947526795802, 9.6144790741901, 7.8908954604737795], "label": "Li", "properties": {}}, {"species": [{"element": "Li", "occu": 1}], "abc": [0.80369864, 0.5429824, 0.14414493], "xyz": [4.00068806032944, 6.6333260281984, 6.12851326756197], "label": "Li", "properties": {}}, {"species": [{"element": "Li", "occu": 1}], "abc": [0.69983147, 0.91643964, 0.20515584], "xyz": [3.4836532836136205, 11.19565370311224, 8.72247318971136], "label": "Li", "properties": {}}, {"species": [{"element": "Li", "occu": 1}], "abc": [0.30141146, 0.15905407, 0.24644038000000001], "xyz": [1.5003798305151603, 1.94307863831662, 10.47774027496502], "label": "Li", "properties": {}}, {"species": [{"element": "Li", "occu": 1}], "abc": [0.30201652, 0.28710746, 0.18340249], "xyz": [1.5033917260159202, 3.50743852343636, 7.79760060425921], "label": "Li", "properties": {}}, {"species": [{"element": "Li", "occu": 1}], "abc": [0.70080563, 0.04208438, 0.14136872], "xyz": [3.48850250207298, 0.51412239740108, 6.01047900982888], "label": "Li", "properties": {}}, {"species": [{"element": "Li", "occu": 1}], "abc": [0.79956872, 0.41286915, 0.20637171], "xyz": [3.9801299545771203, 5.0438019334239, 8.77416751865259], "label": "Li", "properties": {}}, {"species": [{"element": "Li", "occu": 1}], "abc": [0.19877096, 0.66067548, 0.24792109], "xyz": [0.98945122815216, 8.07111953845368, 10.54069462847861], "label": "Li", "properties": {}}, {"species": [{"element": "Li", "occu": 1}], "abc": [0.80398139, 0.78480998, 0.14207737], "xyz": [4.002095546285941, 9.58760443713068, 6.04060820637473], "label": "Li", "properties": {}}, {"species": [{"element": "Li", "occu": 1}], "abc": [0.20045599, 0.54578671, 0.18764092], "xyz": [0.9978390479975401, 6.66758478596686, 7.97780308858268], "label": "Li", "properties": {}}, {"species": [{"element": "Li", "occu": 1}], "abc": [0.2975042, 0.91799391, 0.24818202], "xyz": [1.4809300919532, 11.21464138972206, 10.55178841420458], "label": "Li", "properties": {}}, {"species": [{"element": "Li", "occu": 1}], "abc": [0.70052749, 0.15607987, 0.20324954], "xyz": [3.4871179639865404, 1.90674442513942, 8.64142431173866], "label": "Li", "properties": {}}, {"species": [{"element": "Li", "occu": 1}], "abc": [0.19779993, 0.53449245, 0.31051503], "xyz": [0.9846175903507801, 6.5296088426817, 13.201959174924871], "label": "Li", "properties": {}}, {"species": [{"element": "Li", "occu": 1}], "abc": [0.80071727, 0.28804549, 0.26870237], "xyz": [3.9858472596004204, 3.5188979350383405, 11.42423836599973], "label": "Li", "properties": {}}, {"species": [{"element": "Li", "occu": 1}], "abc": [0.70033886, 0.66437809, 0.33256066], "xyz": [3.48617899289556, 8.11635234762994, 14.13925843301714], "label": "Li", "properties": {}}, {"species": [{"element": "Li", "occu": 1}], "abc": [0.29950514, 0.90784331, 0.37376926], "xyz": [1.49089046312844, 11.09063692994246, 15.891296828246539], "label": "Li", "properties": {}}, {"species": [{"element": "Li", "occu": 1}], "abc": [0.29860865, 0.03445459, 0.30916711], "xyz": [1.4864278739679, 0.42091332727894004, 13.144650564739191], "label": "Li", "properties": {}}, {"species": [{"element": "Li", "occu": 1}], "abc": [0.69902216, 0.7888387, 0.26958941000000003], "xyz": [3.47962466306736, 9.6368211580342, 11.46195205047589], "label": "Li", "properties": {}}, {"species": [{"element": "Li", "occu": 1}], "abc": [0.79998408, 0.16273063, 0.33106994], "xyz": [3.98219755269168, 1.9879932085535799, 14.07587849105026], "label": "Li", "properties": {}}, {"species": [{"element": "Li", "occu": 1}], "abc": [0.20030225, 0.41114418, 0.37282046], "xyz": [0.9970737539535001, 5.02272889606788, 15.85095733529134], "label": "Li", "properties": {}}, {"species": [{"element": "Li", "occu": 1}], "abc": [0.79803204, 0.52994524, 0.26758911], "xyz": [3.9724805981858404, 6.47405800632184, 11.376906637577191], "label": "Li", "properties": {}}, {"species": [{"element": "Li", "occu": 1}], "abc": [0.20239355, 0.29365334, 0.31162114], "xyz": [1.0074839232933002, 3.58740604389644, 13.248986911595061], "label": "Li", "properties": {}}, {"species": [{"element": "Li", "occu": 1}], "abc": [0.29867669, 0.66888794, 0.37555754], "xyz": [1.4867665666097403, 8.171446776820039, 15.967327929070661], "label": "Li", "properties": {}}, {"species": [{"element": "Li", "occu": 1}], "abc": [0.70135737, 0.90506831, 0.33072865], "xyz": [3.4912489788250203, 11.05673623679246, 14.06136809312585], "label": "Li", "properties": {}}, {"species": [{"element": "Li", "occu": 1}], "abc": [0.19690478, 0.28144313, 0.43487027], "xyz": [0.9801616715038801, 3.43824042857858, 18.48908747163883], "label": "Li", "properties": {}}, {"species": [{"element": "Li", "occu": 1}], "abc": [0.79931948, 0.03690637, 0.393457], "xyz": [3.9788892762400803, 0.45086541428842003, 16.728347259353], "label": "Li", "properties": {}}, {"species": [{"element": "Li", "occu": 1}], "abc": [0.7045085, 0.40716113, 0.45655532], "xyz": [3.506934818691, 4.97407010116658, 19.41105619182028], "label": "Li", "properties": {}}, {"species": [{"element": "Li", "occu": 1}], "abc": [0.30043454, 0.64948351, 0.50199425], "xyz": [1.4955168732008404, 7.934393217475661, 21.342952689108248], "label": "Li", "properties": {}}, {"species": [{"element": "Li", "occu": 1}], "abc": [0.29480327, 0.78171947, 0.43774238], "xyz": [1.46748527835642, 9.54984932679302, 18.61119904532302], "label": "Li", "properties": {}}, {"species": [{"element": "Li", "occu": 1}], "abc": [0.70077166, 0.53601016, 0.39530114], "xyz": [3.4883334046443606, 6.548149895294561, 16.80675332231506], "label": "Li", "properties": {}}, {"species": [{"element": "Li", "occu": 1}], "abc": [0.78899355, 0.91025756, 0.45869121], "xyz": [3.9274883868933004, 11.12013053298296, 19.50186639376809], "label": "Li", "properties": {}}, {"species": [{"element": "Li", "occu": 1}], "abc": [0.19849097, 0.16006919, 0.49833649], "xyz": [0.9880574810506201, 1.95547981728254, 21.18743816154521], "label": "Li", "properties": {}}, {"species": [{"element": "Li", "occu": 1}], "abc": [0.79795055, 0.27786767, 0.39134065], "xyz": [3.9720749535153006, 3.3945609430542203, 16.63836782647385], "label": "Li", "properties": {}}, {"species": [{"element": "Li", "occu": 1}], "abc": [0.19593825, 0.03985148, 0.43692712], "xyz": [0.9753504340095002, 0.48684425046968005, 18.57653718294248], "label": "Li", "properties": {}}, {"species": [{"element": "Li", "occu": 1}], "abc": [0.31052378, 0.40890747, 0.49975415999999995], "xyz": [1.5457395561778802, 4.99540420440102, 21.247712285678638], "label": "Li", "properties": {}}, {"species": [{"element": "Li", "occu": 1}], "abc": [0.69668306, 0.64559888, 0.45758648], "xyz": [3.4679809834887605, 7.886936767158081, 19.45489732963192], "label": "Li", "properties": {}}, {"species": [{"element": "Li", "occu": 1}], "abc": [0.15846805, 0.0557146, 0.56184988], "xyz": [0.7888295488203001, 0.6806355166036001, 23.88779434669052], "label": "Li", "properties": {}}, {"species": [{"element": "Li", "occu": 1}], "abc": [0.80412152, 0.77507069, 0.51762684], "xyz": [4.002793091845921, 9.46862473198154, 22.00759302867036], "label": "Li", "properties": {}}, {"species": [{"element": "Li", "occu": 1}], "abc": [0.81557007, 0.36683433, 0.57729123], "xyz": [4.059782210669221, 4.48141912007778, 24.544303863494672], "label": "Li", "properties": {}}, {"species": [{"element": "Li", "occu": 1}], "abc": [0.7117943, 0.27201053, 0.51998944], "xyz": [3.5432024090778005, 3.3230073913869798, 22.108042107565762], "label": "Li", "properties": {}}, {"species": [{"element": "Li", "occu": 1}], "abc": [0.78526986, 0.03586601, 0.51467375], "xyz": [3.9089524315215605, 0.43815589172066, 21.882038482663752], "label": "Li", "properties": {}}, {"species": [{"element": "Li", "occu": 1}], "abc": [0.32223421, 0.49301182, 0.56037566], "xyz": [1.6040322733116603, 6.02286213662812, 23.82511592415214], "label": "Li", "properties": {}}, {"species": [{"element": "P", "occu": 1}], "abc": [0.71350509, 0.92185369, 0.07789968], "xyz": [3.5517184582361403, 11.26179426085954, 3.31200842387472], "label": "P", "properties": {}}, {"species": [{"element": "P", "occu": 1}], "abc": [0.31039928, 0.66294925, 0.12371585], "xyz": [1.5451198143508802, 8.0988969723505, 5.25994378111465], "label": "P", "properties": {}}, {"species": [{"element": "P", "occu": 1}], "abc": [0.18715206, 0.30082626, 0.05702668], "xyz": [0.9316141332627601, 3.6750337771971604, 2.42456508865772], "label": "P", "properties": {}}, {"species": [{"element": "P", "occu": 1}], "abc": [0.78177152, 0.56759409, 0.019342759999999997], "xyz": [3.8915382337459206, 6.933993902285941, 0.8223831479280399], "label": "P", "properties": {}}, {"species": [{"element": "P", "occu": 1}], "abc": [0.69408836, 0.6675888, 0.20720633], "xyz": [3.45506496647256, 8.1555758771808, 8.809652497162569], "label": "P", "properties": {}}, {"species": [{"element": "P", "occu": 1}], "abc": [0.30623681, 0.40713113, 0.24717013000000002], "xyz": [1.5243996797112602, 4.9737036071865806, 10.50876656605277], "label": "P", "properties": {}}, {"species": [{"element": "P", "occu": 1}], "abc": [0.194861, 0.03538501, 0.18268735], "xyz": [0.9699880494060001, 0.43227977157466, 7.7671954767381495], "label": "P", "properties": {}}, {"species": [{"element": "P", "occu": 1}], "abc": [0.80639347, 0.29468135, 0.14272177], "xyz": [4.01410250906562, 3.5999646931091003, 6.06800572878233], "label": "P", "properties": {}}, {"species": [{"element": "P", "occu": 1}], "abc": [0.69324151, 0.41613326, 0.33189706], "xyz": [3.4508494775874605, 5.08367782225916, 14.111044597092741], "label": "P", "properties": {}}, {"species": [{"element": "P", "occu": 1}], "abc": [0.30547944, 0.15627481, 0.37182042], "xyz": [1.52062960848624, 1.90912590302146, 15.80843930563818], "label": "P", "properties": {}}, {"species": [{"element": "P", "occu": 1}], "abc": [0.19343736, 0.78312044, 0.3104633], "xyz": [0.9629013887265601, 9.566964229165041, 13.1997598052257], "label": "P", "properties": {}}, {"species": [{"element": "P", "occu": 1}], "abc": [0.8059445, 0.04041248, 0.26839168], "xyz": [4.011867605547, 0.49369768789568, 11.411028967742721], "label": "P", "properties": {}}, {"species": [{"element": "P", "occu": 1}], "abc": [0.68956586, 0.16078371, 0.45534813], "xyz": [3.4325526579375603, 1.9642087265688601, 19.35973090461477], "label": "P", "properties": {}}, {"species": [{"element": "P", "occu": 1}], "abc": [0.28671058, 0.90180101, 0.50099819], "xyz": [1.4272011138106802, 11.016821377430661, 21.30060387444451], "label": "P", "properties": {}}, {"species": [{"element": "P", "occu": 1}], "abc": [0.1948166, 0.52941141, 0.43610034], "xyz": [0.9697670330436001, 6.467536490277061, 18.54138553245186], "label": "P", "properties": {}}, {"species": [{"element": "P", "occu": 1}], "abc": [0.8046048, 0.78872773, 0.39623536], "xyz": [4.0051987852608, 9.63546549680218, 16.84647292719344], "label": "P", "properties": {}}, {"species": [{"element": "P", "occu": 1}], "abc": [0.21814051, 0.25616985, 0.55966481], "xyz": [1.0858698651414602, 3.1294902627501, 23.79489319168249], "label": "P", "properties": {}}, {"species": [{"element": "P", "occu": 1}], "abc": [0.81289253, 0.52253336, 0.52184314], "xyz": [4.04645382889038, 6.38351102630576, 22.18685462663306], "label": "P", "properties": {}}, {"species": [{"element": "O", "occu": 1}], "abc": [0.81761318, 0.02896685, 0.0630624], "xyz": [4.069952497610281, 0.3538725381521, 2.6811817459296003], "label": "O", "properties": {}}, {"species": [{"element": "O", "occu": 1}], "abc": [0.30015788, 0.19230635, 0.07200937], "xyz": [1.49413970232648, 2.3493039863591, 3.06157406600273], "label": "O", "properties": {}}, {"species": [{"element": "O", "occu": 1}], "abc": [0.62783273, 0.66119366, 0.00363447], "xyz": [3.12525464369958, 8.07744986680556, 0.15452432226062998], "label": "O", "properties": {}}, {"species": [{"element": "O", "occu": 1}], "abc": [0.66906998, 0.54633225, 0.05365488], "xyz": [3.33052732366308, 6.6742493568285, 2.28120853053552], "label": "O", "properties": {}}, {"species": [{"element": "O", "occu": 1}], "abc": [0.29652436, 0.31912677, 0.02331258], "xyz": [1.47605259932856, 3.89860133539482, 0.9911653211188199], "label": "O", "properties": {}}, {"species": [{"element": "O", "occu": 1}], "abc": [0.19489731, 0.66228126, 0.08975362], "xyz": [0.97016879499426, 8.09073649522716, 3.81599443686098], "label": "O", "properties": {}}, {"species": [{"element": "O", "occu": 1}], "abc": [0.80342828, 0.91560105, 0.11311184], "xyz": [3.9993422498848803, 11.1854090968893, 4.80910020323536], "label": "O", "properties": {}}, {"species": [{"element": "O", "occu": 1}], "abc": [0.82840058, 0.82078797, 0.05945528], "xyz": [4.123650513550681, 10.02712832871402, 2.52782024526712], "label": "O", "properties": {}}, {"species": [{"element": "O", "occu": 1}], "abc": [0.78375033, 0.45939242, 0.00010000000000000005], "xyz": [3.9013884451891805, 5.612151879587721, 0.004251632900000002], "label": "O", "properties": {}}, {"species": [{"element": "O", "occu": 1}], "abc": [0.27303519, 0.39932363, 0.07795552], "xyz": [1.35912712840074, 4.87832354889158, 3.31438253568608], "label": "O", "properties": {}}, {"species": [{"element": "O", "occu": 1}], "abc": [0.3972054, 0.91942707, 0.07668106], "xyz": [1.9772273115684, 11.232149540134621, 3.2601971750287397], "label": "O", "properties": {}}, {"species": [{"element": "O", "occu": 1}], "abc": [0.62350207, 0.66216904, 0.12203955], "xyz": [3.1036972851412203, 8.08936556341264, 5.1886736588119495], "label": "O", "properties": {}}, {"species": [{"element": "O", "occu": 1}], "abc": [0.87359574, 0.29334462, 0.056250640000000005], "xyz": [4.34862505997604, 3.58363457651292, 2.39157071670056], "label": "O", "properties": {}}, {"species": [{"element": "O", "occu": 1}], "abc": [0.08306361, 0.60278398, 0.02384395], "xyz": [0.41347785878406, 7.36388999701468, 1.01375722285955], "label": "O", "properties": {}}, {"species": [{"element": "O", "occu": 1}], "abc": [0.79802111, 0.77156247, 0.18970328], "xyz": [3.97242619032906, 9.42576668163102, 8.06548706485912], "label": "O", "properties": {}}, {"species": [{"element": "O", "occu": 1}], "abc": [0.2098366, 0.55928133, 0.14138725], "xyz": [1.0445342799636002, 6.832441352379781, 6.011266837405249], "label": "O", "properties": {}}, {"species": [{"element": "O", "occu": 1}], "abc": [0.29861104, 0.93158156, 0.20026187], "xyz": [1.48643977101984, 11.38063445396696, 8.51439955107523], "label": "O", "properties": {}}, {"species": [{"element": "O", "occu": 1}], "abc": [0.70378135, 0.40085377, 0.1263301], "xyz": [3.5033151779721003, 4.89701645217682, 5.3710920942029], "label": "O", "properties": {}}, {"species": [{"element": "O", "occu": 1}], "abc": [0.70251085, 0.29262085, 0.17739633], "xyz": [3.4969908246291004, 3.5747926649161, 7.542240729672569], "label": "O", "properties": {}}, {"species": [{"element": "O", "occu": 1}], "abc": [0.30022729, 0.03586995, 0.14798977], "xyz": [1.49448521461734, 0.4382040245967, 6.29198174995433], "label": "O", "properties": {}}, {"species": [{"element": "O", "occu": 1}], "abc": [0.20311695, 0.40687293, 0.21249471], "xyz": [1.0110848970897, 4.97054931566538, 9.03449500111959], "label": "O", "properties": {}}, {"species": [{"element": "O", "occu": 1}], "abc": [0.79909575, 0.66802873, 0.24179264], "xyz": [3.9777755827545005, 8.16095026706818, 10.28013543201856], "label": "O", "properties": {}}, {"species": [{"element": "O", "occu": 1}], "abc": [0.21348739, 0.76910715, 0.1404626], "xyz": [1.0627073503619402, 9.3957713483319, 5.9719541137954], "label": "O", "properties": {}}, {"species": [{"element": "O", "occu": 1}], "abc": [0.79487477, 0.56308723, 0.19000153], "xyz": [3.95676419434542, 6.878936000329181, 8.07816755998337], "label": "O", "properties": {}}, {"species": [{"element": "O", "occu": 1}], "abc": [0.70368544, 0.19233895, 0.12443296], "xyz": [3.50283775276224, 2.3497022431507, 5.29043266580384], "label": "O", "properties": {}}, {"species": [{"element": "O", "occu": 1}], "abc": [0.29577636, 0.13908445, 0.20028166], "xyz": [1.4723291705205601, 1.6991204545537, 8.51524094922614], "label": "O", "properties": {}}, {"species": [{"element": "O", "occu": 1}], "abc": [0.38062937, 0.66929136, 0.20769507], "xyz": [1.8947143869370202, 8.176375143533761, 8.83043192779803], "label": "O", "properties": {}}, {"species": [{"element": "O", "occu": 1}], "abc": [0.61989298, 0.40687688, 0.24697681], "xyz": [3.0857317909210806, 4.97059757070608, 10.50054730933049], "label": "O", "properties": {}}, {"species": [{"element": "O", "occu": 1}], "abc": [0.8810749, 0.03362202, 0.18215789], "xyz": [4.3858551666654, 0.41074226418132004, 7.74468478118581], "label": "O", "properties": {}}, {"species": [{"element": "O", "occu": 1}], "abc": [0.11991447, 0.29482222, 0.14317752], "xyz": [0.59691576483162, 3.6016856266745205, 6.08738254572408], "label": "O", "properties": {}}, {"species": [{"element": "O", "occu": 1}], "abc": [0.7955872, 0.52107567, 0.31478244], "xyz": [3.9603105611712004, 6.3657032059822205, 13.38339378246276], "label": "O", "properties": {}}, {"species": [{"element": "O", "occu": 1}], "abc": [0.20389383, 0.3021831, 0.26430444000000003], "xyz": [1.0149520860901802, 3.6916095669246, 11.237254527200761], "label": "O", "properties": {}}, {"species": [{"element": "O", "occu": 1}], "abc": [0.29565245, 0.67871889, 0.32792245], "xyz": [1.4717123656227002, 8.29154624324274, 13.94205877068605], "label": "O", "properties": {}}, {"species": [{"element": "O", "occu": 1}], "abc": [0.70369088, 0.1448963, 0.25097833], "xyz": [3.50286483224448, 1.7701207224758002, 10.67067725015057], "label": "O", "properties": {}}, {"species": [{"element": "O", "occu": 1}], "abc": [0.70263906, 0.04119788, 0.30305839], "xyz": [3.4976290342647602, 0.5032925002920801, 12.88493021545031], "label": "O", "properties": {}}, {"species": [{"element": "O", "occu": 1}], "abc": [0.29726274, 0.78230115, 0.27582296], "xyz": [1.4797281412580403, 9.5569554007359, 11.72697971311384], "label": "O", "properties": {}}, {"species": [{"element": "O", "occu": 1}], "abc": [0.20090363, 0.15572756, 0.33721349], "xyz": [1.00006733098098, 1.90244044200296, 14.33707968407821], "label": "O", "properties": {}}, {"species": [{"element": "O", "occu": 1}], "abc": [0.7972382, 0.41646357, 0.36653387], "xyz": [3.9685289849172003, 5.08771304314362, 15.583674606563228], "label": "O", "properties": {}}, {"species": [{"element": "O", "occu": 1}], "abc": [0.20254075, 0.51089456, 0.26457818], "xyz": [1.0082166622245001, 6.24132602182496, 11.24889294710122], "label": "O", "properties": {}}, {"species": [{"element": "O", "occu": 1}], "abc": [0.79652201, 0.31236651, 0.31449073], "xyz": [3.9649639013904605, 3.81601484895366, 13.37099134413017], "label": "O", "properties": {}}, {"species": [{"element": "O", "occu": 1}], "abc": [0.70209999, 0.93643576, 0.25111159], "xyz": [3.4949456268215404, 11.43993562322416, 10.67634297615311], "label": "O", "properties": {}}, {"species": [{"element": "O", "occu": 1}], "abc": [0.29657288, 0.88722179, 0.32775304], "xyz": [1.47629412441648, 10.83871483199414, 13.93485607939016], "label": "O", "properties": {}}, {"species": [{"element": "O", "occu": 1}], "abc": [0.3797552, 0.41651383, 0.33219194], "xyz": [1.8903629032992002, 5.08832704272478, 14.123581812188261], "label": "O", "properties": {}}, {"species": [{"element": "O", "occu": 1}], "abc": [0.61899597, 0.15441324, 0.37133884], "xyz": [3.08126661328062, 1.8863840964098402, 15.78796429191836], "label": "O", "properties": {}}, {"species": [{"element": "O", "occu": 1}], "abc": [0.87976328, 0.78273735, 0.31023993], "xyz": [4.379326124294881, 9.5622842232051, 13.19026293281697], "label": "O", "properties": {}}, {"species": [{"element": "O", "occu": 1}], "abc": [0.11960182, 0.04067094, 0.26854604], "xyz": [0.5953594412797201, 0.49685515569804006, 11.41759178828716], "label": "O", "properties": {}}, {"species": [{"element": "O", "occu": 1}], "abc": [0.79129069, 0.26428188, 0.43767573], "xyz": [3.9389231960537403, 3.2285906014360806, 18.60836533199517], "label": "O", "properties": {}}, {"species": [{"element": "O", "occu": 1}], "abc": [0.20087862, 0.0524712, 0.38933832], "xyz": [0.9999428350525201, 0.6410126307792, 16.55323610542728], "label": "O", "properties": {}}, {"species": [{"element": "O", "occu": 1}], "abc": [0.29829175, 0.42326825, 0.45242578], "xyz": [1.4848503945705003, 5.1708421850045, 19.23548331056162], "label": "O", "properties": {}}, {"species": [{"element": "O", "occu": 1}], "abc": [0.70033491, 0.8923881, 0.37862289], "xyz": [3.4861593304038605, 10.9018288824546, 16.097655358170808], "label": "O", "properties": {}}, {"species": [{"element": "O", "occu": 1}], "abc": [0.69938824, 0.78818386, 0.4309318], "xyz": [3.4814469529310403, 9.628821327438759, 18.321638185362197], "label": "O", "properties": {}}, {"species": [{"element": "O", "occu": 1}], "abc": [0.29836135, 0.53190051, 0.40142143], "xyz": [1.4851968526521002, 6.497944495797661, 17.066965585530472], "label": "O", "properties": {}}, {"species": [{"element": "O", "occu": 1}], "abc": [0.19663387, 0.90875531, 0.46581747], "xyz": [0.97881312324402, 11.101778346934461, 19.80484880846763], "label": "O", "properties": {}}, {"species": [{"element": "O", "occu": 1}], "abc": [0.80478053, 0.16119348, 0.48932298], "xyz": [4.00607354213838, 1.96921466784168, 20.80421680494042], "label": "O", "properties": {}}, {"species": [{"element": "O", "occu": 1}], "abc": [0.20535036, 0.26086566, 0.38901796], "xyz": [1.02220246812456, 3.1868564659575602, 16.53961557426884], "label": "O", "properties": {}}, {"species": [{"element": "O", "occu": 1}], "abc": [0.78603674, 0.05464856, 0.43858744], "xyz": [3.9127698420620405, 0.66761227518896, 18.647127894307758], "label": "O", "properties": {}}, {"species": [{"element": "O", "occu": 1}], "abc": [0.70523943, 0.68485159, 0.37860046], "xyz": [3.51057327566778, 8.36646616428094, 16.09670171691134], "label": "O", "properties": {}}, {"species": [{"element": "O", "occu": 1}], "abc": [0.29695466, 0.63166497, 0.45445777], "xyz": [1.4781945664623601, 7.71671362939602, 19.32187606592633], "label": "O", "properties": {}}, {"species": [{"element": "O", "occu": 1}], "abc": [0.3765168, 0.1619905, 0.45700792], "xyz": [1.8742426468128002, 1.9789514355730002, 19.43029908232568], "label": "O", "properties": {}}, {"species": [{"element": "O", "occu": 1}], "abc": [0.60291385, 0.90406473, 0.50225083], "xyz": [3.0012122965671, 11.04447603584418, 21.353861528803073], "label": "O", "properties": {}}, {"species": [{"element": "O", "occu": 1}], "abc": [0.88133069, 0.52891596, 0.4356706], "xyz": [4.387128449893741, 6.46148384219736, 18.5231145652274], "label": "O", "properties": {}}, {"species": [{"element": "O", "occu": 1}], "abc": [0.11843213, 0.79091975, 0.39677568], "xyz": [0.58953690459198, 9.6622442346035, 16.86944535007872], "label": "O", "properties": {}}, {"species": [{"element": "O", "occu": 1}], "abc": [0.18222426, 0.79455629, 0.51568655], "xyz": [0.9070843037439601, 9.706669901871141, 21.92509902067495], "label": "O", "properties": {}}, {"species": [{"element": "O", "occu": 1}], "abc": [0.37355781, 0.16284445, 0.57531927], "xyz": [1.8595132502772602, 1.9893836867137, 24.460463363359832], "label": "O", "properties": {}}, {"species": [{"element": "O", "occu": 1}], "abc": [0.7001022, 0.63110219, 0.50685394], "xyz": [3.4850009358612004, 7.70983844666054, 21.549568867986256], "label": "O", "properties": {}}, {"species": [{"element": "O", "occu": 1}], "abc": [0.70301139, 0.50439689, 0.55554656], "xyz": [3.49948243566594, 6.16194745719074, 23.61980031977824], "label": "O", "properties": {}}, {"species": [{"element": "O", "occu": 1}], "abc": [0.33041822, 0.27747647, 0.52532724], "xyz": [1.6447710147541201, 3.38978186155502, 22.33498576850196], "label": "O", "properties": {}}, {"species": [{"element": "O", "occu": 1}], "abc": [0.17234748, 0.00269813, 0.51954645], "xyz": [0.85791921392808, 0.032961613408580004, 22.08920779898205], "label": "O", "properties": {}}, {"species": [{"element": "O", "occu": 1}], "abc": [0.72690234, 0.42396782, 0.50093868], "xyz": [3.61840790555964, 5.17938845812412, 21.298073727705717], "label": "O", "properties": {}}, {"species": [{"element": "O", "occu": 1}], "abc": [0.21650271, 0.36421999, 0.57895728], "xyz": [1.07771714896266, 4.44948112435534, 24.61513819342512], "label": "O", "properties": {}}, {"species": [{"element": "O", "occu": 1}], "abc": [0.91708337, 0.22105495, 0.5552105], "xyz": [4.56509978502102, 2.7005102808067, 23.6055122822545], "label": "O", "properties": {}}, {"species": [{"element": "O", "occu": 1}], "abc": [0.12646258, 0.52992625, 0.52261294], "xyz": [0.62951124800268, 6.4738260156325005, 22.21958369669726], "label": "O", "properties": {}}]}, "formula": "(Li3PO4)18.0", "bandgap": 4.0097, "slab_thickness": 24.61088656052512}