{"miller": "100_0.00", "final_energy": -999.52186075, "gamma": 0.05518467483881143, "work_function": "Not calculated", "ionization_potentail": "Not calculated", "electron_affinity": "Not calculated", "is_stochiometric": true, "incar_parameters": {"SYSTEM": "unknown system", "LCOMPAT": false, "PREC": "normal", "ENMAX": 520.0, "ENAUG": 628.945, "EDIFF": 1e-05, "IALGO": 38, "IWAVPR": 11, "NBANDS": 461, "NBANDSLOW": -1, "NBANDSHIGH": -1, "NELECT": 760.0, "TURBO": 0, "IRESTART": 0, "NREBOOT": 0, "NMIN": 0, "EREF": 0.0, "ISMEAR": 0, "SIGMA": 0.05, "KSPACING": 0.5, "KGAMMA": true, "KBLOWUP": true, "LREAL": true, "ROPT": [-0.0005, -0.0005, -0.0005], "LMAXPAW": -100, "LMAXMIX": 2, "NLSPLINE": false, "ISTART": 0, "ICHARG": 2, "INIWAV": 1, "ISPIN": 1, "LNONCOLLINEAR": false, "MAGMOM": [0.6, 0.6, 0.6, 0.6, 0.6, 0.6, 0.6, 0.6, 0.6, 0.6, 0.6, 0.6, 0.6, 0.6, 0.6, 0.6, 0.6, 0.6, 0.6, 0.6, 0.6, 0.6, 0.6, 0.6, 0.6, 0.6, 0.6, 0.6, 0.6, 0.6, 0.6, 0.6, 0.6, 0.6, 0.6, 0.6, 0.6, 0.6, 0.6, 0.6, 0.6, 0.6, 0.6, 0.6, 0.6, 0.6, 0.6, 0.6, 0.6, 0.6, 0.6, 0.6, 0.6, 0.6, 0.6, 0.6, 0.6, 0.6, 0.6, 0.6, 0.6, 0.6, 0.6, 0.6, 0.6, 0.6, 0.6, 0.6, 0.6, 0.6, 0.6, 0.6, 0.6, 0.6, 0.6, 0.6, 0.6, 0.6, 0.6, 0.6, 0.6, 0.6, 0.6, 0.6, 0.6, 0.6, 0.6, 0.6, 0.6, 0.6, 0.6, 0.6, 0.6, 0.6, 0.6, 0.6, 0.6, 0.6, 0.6, 0.6, 0.6, 0.6, 0.6, 0.6, 0.6, 0.6, 0.6, 0.6, 0.6, 0.6, 0.6, 0.6, 0.6, 0.6, 0.6, 0.6, 0.6, 0.6, 0.6, 0.6, 0.6, 0.6, 0.6, 0.6, 0.6, 0.6, 0.6, 0.6, 0.6, 0.6, 0.6, 0.6, 0.6, 0.6, 0.6, 0.6, 0.6, 0.6, 0.6, 0.6, 0.6, 0.6, 0.6, 0.6, 0.6, 0.6, 0.6, 0.6, 0.6, 0.6, 0.6, 0.6, 0.6, 0.6, 0.6, 0.6, 0.6, 0.6, 0.6, 0.6], "NUPDOWN": -1.0, "LSORBIT": false, "SAXIS": [0.0, 0.0, 1.0], "LSPIRAL": false, "QSPIRAL": [0.0, 0.0, 0.0], "LZEROZ": false, "LASPH": false, "LMETAGGA": false, "NELM": 100, "NELMDL": -5, "NELMIN": 6, "ENINI": 520.0, "LDIAG": true, "LSUBROT": false, "WEIMIN": 0.001, "EBREAK": 1e-08, "DEPER": 0.3, "NRMM": 4, "TIME": 0.4, "AMIX": 0.4, "BMIX": 1.0, "AMIN": 0.1, "AMIX_MAG": 1.6, "BMIX_MAG": 1.0, "IMIX": 4, "MIXFIRST": false, "MAXMIX": -45, "WC": 100.0, "INIMIX": 1, "MIXPRE": 1, "MREMOVE": 5, "LDIPOL": false, "LMONO": false, "IDIPOL": 0, "EPSILON": 1.0, "DIPOL": [-100.0, -100.0, -100.0], "EFIELD": 0.0, "NGX": 36, "NGY": 60, "NGZ": 280, "NGXF": 72, "NGYF": 120, "NGZF": 560, "ADDGRID": false, "NSW": 150, "IBRION": 2, "MDALGO": 0, "ISIF": 2, "PSTRESS": 0.0, "EDIFFG": -0.01, "NFREE": 1, "POTIM": 0.5, "SMASS": -3.0, "SCALEE": 1.0, "TEBEG": 0.0001, "TEEND": 0.0001, "NBLOCK": 1, "KBLOCK": 150, "NPACO": 256, "APACO": 10.0, "ISYM": 0, "SYMPREC": 1e-05, "LORBIT": 11, "RWIGS": [-1.0, -1.0, -1.0], "NEDOS": 301, "EMIN": 10.0, "EMAX": -10.0, "EFERMI": 0.0, "NWRITE": 2, "LWAVE": false, "LDOWNSAMPLE": false, "LCHARG": false, "LPARD": false, "LVTOT": false, "LVHAR": false, "LELF": false, "LOPTICS": false, "STM": [0.0, 0.0, 0.0, 0.0, 0.0, 0.0, 0.0], "NPAR": 1, "NSIM": 4, "NBLK": -1, "LPLANE": true, "LSCALAPACK": true, "LSCAAWARE": false, "LSCALU": false, "LASYNC": false, "LORBITALREAL": false, "IDIOT": 3, "PHON_NSTRUCT": -1, "LMUSIC": false, "POMASS": [7.01, 30.974, 16.0], "DARWINR": [0.0, 0.0, 0.0], "DARWINV": [1.0, 1.0, 1.0], "LCORR": true, "GGA_COMPAT": true, "LBERRY": false, "ICORELEVEL": 0, "LDAU": false, "I_CONSTRAINED_M": 0, "GGA": "--", "VOSKOWN": 0, "LHFCALC": false, "PRECFOCK": "", "LSYMGRAD": false, "LHFONE": false, "LRHFCALC": false, "LTHOMAS": false, "LMODELHF": false, "LFOCKACE": false, "ENCUT4O": -1.0, "EXXOEP": 0, "FOURORBIT": 0, "AEXX": 0.0, "HFALPHA": 0.0, "MCALPHA": 0.0, "ALDAX": 1.0, "AGGAX": 1.0, "ALDAC": 1.0, "AGGAC": 1.0, "NKREDX": 1, "NKREDY": 1, "NKREDZ": 1, "SHIFTRED": false, "ODDONLY": false, "EVENONLY": false, "LMAXFOCK": 0, "NMAXFOCKAE": 0, "LFOCKAEDFT": false, "HFSCREEN": 0.0, "HFSCREENC": 0.0, "NBANDSGWLOW": 0, "LUSE_VDW": false, "Zab_VDW": -0.8491, "PARAM1": 0.1234, "PARAM2": 1.0, "PARAM3": 0.0, "MODEL_GW": 0, "MODEL_EPS0": 12.11948455, "MODEL_ALPHA": 1.0, "LEPSILON": false, "LRPA": false, "LNABLA": false, "LVEL": false, "CSHIFT": 0.1, "OMEGAMAX": -1.0, "DEG_THRESHOLD": 0.002, "RTIME": -0.1, "WPLASMAI": 0.0, "DFIELD": [0.0, 0.0, 0.0], "WPLASMA": [0.0, 0.0, 0.0, 0.0, 0.0, 0.0, 0.0, 0.0, 0.0], "NUCIND": false, "MAGPOS": [0.0, 0.0, 0.0], "LNICSALL": true, "ORBITALMAG": false, "LMAGBLOCH": false, "LCHIMAG": false, "LGAUGE": true, "MAGATOM": 0, "MAGDIPOL": [0.0, 0.0, 0.0], "AVECCONST": [0.0, 0.0, 0.0], "LFINITE_TEMPERATURE": false, "LADDER": false, "LRPAFORCE": false, "LFXC": false, "LHARTREE": true, "IBSE": 0, "KPOINT": [-1, 0, 0, 0], "LTCTC": false, "LTCTE": false, "LTETE": false, "LTRIPLET": false, "LFXCEPS": false, "LFXHEG": false, "NATURALO": 2, "LHOLEGF": false, "L2ORDER": false, "LDMP1": false, "LMP2LT": false, "LSMP2LT": false, "LGWLF": false, "ENCUTGW": -2.0, "ENCUTGWSOFT": -2.0, "ENCUTLF": -1.0, "LESF_SPLINES": false, "LMAXMP2": -1, "SCISSOR": 0.0, "NOMEGA": 0, "NOMEGAR": 0, "NBANDSGW": -1, "NBANDSO": -1, "NBANDSV": -1, "NELMGW": 1, "NELMHF": 1, "DIM": 3, "IESPILON": 4, "ANTIRES": 0, "OMEGAMIN": -30.0, "OMEGATL": -200.0, "OMEGAGRID": 0, "LSELFENERGY": false, "LSPECTRAL": false, "LSPECTRALGW": false, "LSINGLES": false, "LFERMIGW": false, "ODDONLYGW": false, "EVENONLYGW": false, "NKREDLFX": 1, "NKREDLFY": 1, "NKREDLFZ": 1, "MAXMEM": 2800, "TELESCOPE": 0, "NTAUPAR": -1, "NOMEGAPAR": -1, "DAMP_NEWTON": 0.80000001, "LAMBDA": 1.0, "OFIELD_KAPPA": 0.0, "OFIELD_K": [0.0, 0.0, 0.0], "OFIELD_Q6_NEAR": 0.0, "OFIELD_Q6_FAR": 0.0, "OFIELD_A": 0.0, "KPOINTS_OPT_MODE": 1, "LKPOINTS_OPT": false, "@module": "pymatgen.io.vasp.inputs", "@class": "Incar"}, "relaxed_structures": {"@module": "pymatgen.core.structure", "@class": "Structure", "charge": 0, "lattice": {"matrix": [[6.151192, 0.0, 0.0], [0.0, 10.554851, 0.0], [0.0, 0.0, 49.778464]], "a": 6.151192, "b": 10.554851, "c": 49.778464, "alpha": 90.0, "beta": 90.0, "gamma": 90.0, "volume": 3231.8625456429836}, "sites": [{"species": [{"element": "Li", "occu": 1}], "abc": [0.49450549, 0.83675047, 0.06169614000000001], "xyz": [3.04179821404408, 8.83177653502997, 3.0711390839289603], "label": "Li", "properties": {}}, {"species": [{"element": "Li", "occu": 1}], "abc": [0.51443591, 0.33799594, 0.056926500000000005], "xyz": [3.16439405410472, 3.5674967853049395, 2.833713730896], "label": "Li", "properties": {}}, {"species": [{"element": "Li", "occu": 1}], "abc": [0.98324151, 0.3378041, 0.061511800000000005], "xyz": [6.04810731037992, 3.5654719426890997, 3.0619629218752], "label": "Li", "properties": {}}, {"species": [{"element": "Li", "occu": 1}], "abc": [0.95192263, 0.71130035, 0.016552849999999997], "xyz": [5.85545886627496, 7.50766921049785, 0.8239754478223998], "label": "Li", "properties": {}}, {"species": [{"element": "Li", "occu": 1}], "abc": [0.98363127, 0.12603715, 0.00032847999999999905], "xyz": [6.05050479897384, 1.3303033387146497, 0.016351229854719953], "label": "Li", "properties": {}}, {"species": [{"element": "Li", "occu": 1}], "abc": [0.0018369, 0.84467802, 0.06417601], "xyz": [0.0112991245848, 8.915450644075019, 3.1945832034486403], "label": "Li", "properties": {}}, {"species": [{"element": "Li", "occu": 1}], "abc": [0.70915669, 0.92765033, 0.004228329999999999], "xyz": [4.36215895827448, 9.791211013250829, 0.21047977268511994], "label": "Li", "properties": {}}, {"species": [{"element": "Li", "occu": 1}], "abc": [0.25299102, 0.08426163, 0.05088618], "xyz": [1.5561963382958401, 0.88936894966713, 2.53303587922752], "label": "Li", "properties": {}}, {"species": [{"element": "Li", "occu": 1}], "abc": [0.25609448, 0.59367198, 0.06033601000000001], "xyz": [1.57528631662016, 6.266119291774979, 3.0034339016886404], "label": "Li", "properties": {}}, {"species": [{"element": "Li", "occu": 1}], "abc": [0.50058417, 0.83368954, 0.1638163], "xyz": [3.0791893418306397, 8.799468874958539, 8.1545237921632], "label": "Li", "properties": {}}, {"species": [{"element": "Li", "occu": 1}], "abc": [0.49854504, 0.15829738, 0.10185803], "xyz": [3.06664626168768, 1.6708052595903797, 5.07033627946592], "label": "Li", "properties": {}}, {"species": [{"element": "Li", "occu": 1}], "abc": [0.5131952, 0.66576927, 0.11329212000000001], "xyz": [3.1567622086784, 7.0270954452287695, 5.6395077169036805], "label": "Li", "properties": {}}, {"species": [{"element": "Li", "occu": 1}], "abc": [0.50247994, 0.33375747, 0.15309366], "xyz": [3.0908505870884797, 3.52276036598697, 7.620767242938239], "label": "Li", "properties": {}}, {"species": [{"element": "Li", "occu": 1}], "abc": [0.00555185, 0.3333408, 0.15286186999999998], "xyz": [0.0341504953052, 3.5183624762208, 7.609229092767679], "label": "Li", "properties": {}}, {"species": [{"element": "Li", "occu": 1}], "abc": [0.00245652, 0.66652446, 0.11413241], "xyz": [0.015110526171839998, 7.035066363155459, 5.68133606241824], "label": "Li", "properties": {}}, {"species": [{"element": "Li", "occu": 1}], "abc": [0.00273571, 0.15679749, 0.10205891], "xyz": [0.01682787746632, 1.65497414412399, 5.08033577731424], "label": "Li", "properties": {}}, {"species": [{"element": "Li", "occu": 1}], "abc": [0.00305665, 0.83405612, 0.16383868999999998], "xyz": [0.0188020410268, 8.80333807223812, 8.15563833197216], "label": "Li", "properties": {}}, {"species": [{"element": "Li", "occu": 1}], "abc": [0.74715608, 0.92574993, 0.10239482], "xyz": [4.59590050204736, 9.77115257441043, 5.09705686115648], "label": "Li", "properties": {}}, {"species": [{"element": "Li", "occu": 1}], "abc": [0.25289844, 0.0719107, 0.16202999999999998], "xyz": [1.55562686094048, 0.7590067238056999, 8.06560452192], "label": "Li", "properties": {}}, {"species": [{"element": "Li", "occu": 1}], "abc": [0.25616323, 0.57401073, 0.15351214], "xyz": [1.57570921107016, 6.05859772755123, 7.641598534552959], "label": "Li", "properties": {}}, {"species": [{"element": "Li", "occu": 1}], "abc": [0.75437832, 0.42746804, 0.11337876000000001], "xyz": [4.640325886957441, 4.51186146946204, 5.64382052302464], "label": "Li", "properties": {}}, {"species": [{"element": "Li", "occu": 1}], "abc": [0.50019181, 0.83372188, 0.26388572], "xyz": [3.07677586013752, 8.79981021883988, 13.13582581313408], "label": "Li", "properties": {}}, {"species": [{"element": "Li", "occu": 1}], "abc": [0.50404787, 0.16104998, 0.20283061], "xyz": [3.1004952255610396, 1.69985854245298, 10.09659621798304], "label": "Li", "properties": {}}, {"species": [{"element": "Li", "occu": 1}], "abc": [0.5062645, 0.66071698, 0.21383536], "xyz": [3.114130142284, 6.973769277069979, 10.64439576968704], "label": "Li", "properties": {}}, {"species": [{"element": "Li", "occu": 1}], "abc": [0.50019458, 0.33372721, 0.25325501], "xyz": [3.0767928989393605, 3.5224409761957096, 12.60664539810464], "label": "Li", "properties": {}}, {"species": [{"element": "Li", "occu": 1}], "abc": [0.00442671, 0.33367116, 0.25324516999999996], "xyz": [0.027229543138320003, 3.52184937679716, 12.606155578018878], "label": "Li", "properties": {}}, {"species": [{"element": "Li", "occu": 1}], "abc": [0.00099967, 0.66160159, 0.21370259], "xyz": [0.00614916210664, 6.983106203813089, 10.63778668302176], "label": "Li", "properties": {}}, {"species": [{"element": "Li", "occu": 1}], "abc": [0.0007918, 0.16119558, 0.20280747], "xyz": [0.0048705138256, 1.70139532875858, 10.09544434432608], "label": "Li", "properties": {}}, {"species": [{"element": "Li", "occu": 1}], "abc": [0.00458957, 0.83366928, 0.26387636], "xyz": [0.02823132626744, 8.799255033677278, 13.135359886711038], "label": "Li", "properties": {}}, {"species": [{"element": "Li", "occu": 1}], "abc": [0.75322057, 0.92330675, 0.20363901999999998], "xyz": [4.63320434441944, 9.745365173544249, 10.13683762606528], "label": "Li", "properties": {}}, {"species": [{"element": "Li", "occu": 1}], "abc": [0.25327377, 0.07200294, 0.26338290999999997], "xyz": [1.5579355878338401, 0.75998030326194, 13.110796703650239], "label": "Li", "properties": {}}, {"species": [{"element": "Li", "occu": 1}], "abc": [0.25327086, 0.57200604, 0.25376642], "xyz": [1.55791768786512, 6.03743852330004, 12.632102602378879], "label": "Li", "properties": {}}, {"species": [{"element": "Li", "occu": 1}], "abc": [0.75361403, 0.42223717, 0.21324456], "xyz": [4.635624592423761, 4.456650416011669, 10.61498665315584], "label": "Li", "properties": {}}, {"species": [{"element": "Li", "occu": 1}], "abc": [0.50242855, 0.83373237, 0.36405437], "xyz": [3.0905344773316, 8.799920939226869, 18.12206735108768], "label": "Li", "properties": {}}, {"species": [{"element": "Li", "occu": 1}], "abc": [0.50626316, 0.16065854, 0.30331167], "xyz": [3.11412189968672, 1.6957269515775397, 15.098389045874878], "label": "Li", "properties": {}}, {"species": [{"element": "Li", "occu": 1}], "abc": [0.50398611, 0.66102475, 0.31431908], "xyz": [3.1001153279431204, 6.97701774356225, 15.646321008293118], "label": "Li", "properties": {}}, {"species": [{"element": "Li", "occu": 1}], "abc": [0.50051983, 0.33367182, 0.35333554], "xyz": [3.07879357413736, 3.5218563429988197, 17.58850045781056], "label": "Li", "properties": {}}, {"species": [{"element": "Li", "occu": 1}], "abc": [0.00303191, 0.33401865, 0.35331034], "xyz": [0.01864986053672, 3.5255170819711497, 17.58724604051776], "label": "Li", "properties": {}}, {"species": [{"element": "Li", "occu": 1}], "abc": [0.00041377, 0.66097367, 0.31440524], "xyz": [0.00254517871384, 6.976478601773169, 15.650609920751359], "label": "Li", "properties": {}}, {"species": [{"element": "Li", "occu": 1}], "abc": [0.00096207, 0.16157152, 0.3034456], "xyz": [0.00591787728744, 1.7053633194435198, 15.1050558755584], "label": "Li", "properties": {}}, {"species": [{"element": "Li", "occu": 1}], "abc": [0.00548161, 0.83330827, 0.36428663], "xyz": [0.03371843557912, 8.795444626917769, 18.13362889713632], "label": "Li", "properties": {}}, {"species": [{"element": "Li", "occu": 1}], "abc": [0.75343243, 0.92187702, 0.30384918], "xyz": [4.63450753595656, 9.73027458642402, 15.12514546805952], "label": "Li", "properties": {}}, {"species": [{"element": "Li", "occu": 1}], "abc": [0.25605279, 0.07389046, 0.36359628], "xyz": [1.5750298734256798, 0.77990279562146, 18.09926433451392], "label": "Li", "properties": {}}, {"species": [{"element": "Li", "occu": 1}], "abc": [0.25287441, 0.57178657, 0.35513679], "xyz": [1.55547904779672, 6.035122050151069, 17.678163916090558], "label": "Li", "properties": {}}, {"species": [{"element": "Li", "occu": 1}], "abc": [0.75319526, 0.42327545, 0.31350742], "xyz": [4.63304865774992, 4.46760930670795, 15.60591782020288], "label": "Li", "properties": {}}, {"species": [{"element": "Li", "occu": 1}], "abc": [0.51408215, 0.83789091, 0.46018902], "xyz": [3.1622180084228, 8.84381370930441, 22.90750256526528], "label": "Li", "properties": {}}, {"species": [{"element": "Li", "occu": 1}], "abc": [0.51282246, 0.16570445, 0.40382967999999997], "xyz": [3.1544694133723197, 1.74898577978695, 20.10202118801152], "label": "Li", "properties": {}}, {"species": [{"element": "Li", "occu": 1}], "abc": [0.49849355, 0.65828853, 0.41528947], "xyz": [3.0663295368116, 6.94813734915903, 20.67247193197408], "label": "Li", "properties": {}}, {"species": [{"element": "Li", "occu": 1}], "abc": [0.49398578, 0.33653383, 0.45559922999999997], "xyz": [3.03860137804976, 3.5520644321093298, 22.679029868982717], "label": "Li", "properties": {}}, {"species": [{"element": "Li", "occu": 1}], "abc": [0.00098204, 0.34414112, 0.45307011999999997], "xyz": [0.00604071659168, 3.63235824457312, 22.55313465789568], "label": "Li", "properties": {}}, {"species": [{"element": "Li", "occu": 1}], "abc": [0.00260998, 0.6567825, 0.41508969], "xyz": [0.01605448809616, 6.9322414269075, 20.662527190436162], "label": "Li", "properties": {}}, {"species": [{"element": "Li", "occu": 1}], "abc": [0.00221032, 0.16656582, 0.40302046999999996], "xyz": [0.01359610270144, 1.75807741179282, 20.06173995715808], "label": "Li", "properties": {}}, {"species": [{"element": "Li", "occu": 1}], "abc": [0.98299442, 0.83775512, 0.45561456], "xyz": [6.04658741234864, 8.84238046608712, 22.67979297283584], "label": "Li", "properties": {}}, {"species": [{"element": "Li", "occu": 1}], "abc": [0.7538681, 0.92747089, 0.40376322], "xyz": [4.6371874257752, 9.789317050787389, 20.09871291129408], "label": "Li", "properties": {}}, {"species": [{"element": "Li", "occu": 1}], "abc": [0.25571298, 0.09343313, 0.45675001], "xyz": [1.5729396368721598, 0.98617276561363, 22.73631392978464], "label": "Li", "properties": {}}, {"species": [{"element": "Li", "occu": 1}], "abc": [0.25172819, 0.58366105, 0.46605297], "xyz": [1.54842842850248, 6.16045541725355, 23.19940098923808], "label": "Li", "properties": {}}, {"species": [{"element": "Li", "occu": 1}], "abc": [0.74684913, 0.42575661, 0.41479815], "xyz": [4.59401239366296, 4.49379758081511, 20.6480147770416], "label": "Li", "properties": {}}, {"species": [{"element": "Li", "occu": 1}], "abc": [0.98340077, 0.6296652, 0.5164512099999999], "xyz": [6.04908694921784, 6.6460223658852, 25.708147964741435], "label": "Li", "properties": {}}, {"species": [{"element": "Li", "occu": 1}], "abc": [0.95636406, 0.21014931, 0.50067893], "xyz": [5.8827789549595195, 2.21809465480281, 24.923028092563516], "label": "Li", "properties": {}}, {"species": [{"element": "Li", "occu": 1}], "abc": [0.7095517, 0.42768264, 0.51303044], "xyz": [4.3645887406264, 4.5141265404866395, 25.537867288444158], "label": "Li", "properties": {}}, {"species": [{"element": "P", "occu": 1}], "abc": [0.23929253, 0.91899825, 0.012826210000000001], "xyz": [1.47193429619576, 9.69988959801075, 0.6384690327414401], "label": "P", "properties": {}}, {"species": [{"element": "P", "occu": 1}], "abc": [0.74789526, 0.09148371, 0.05110172], "xyz": [4.60044734014992, 0.9655969279772099, 2.5437651293580803], "label": "P", "properties": {}}, {"species": [{"element": "P", "occu": 1}], "abc": [0.75094809, 0.58676631, 0.06398975], "xyz": [4.61922588362328, 6.1932309738698095, 3.185311466744], "label": "P", "properties": {}}, {"species": [{"element": "P", "occu": 1}], "abc": [0.25150467, 0.91037419, 0.11424964], "xyz": [1.54705351406664, 9.608863929695689, 5.68717159175296], "label": "P", "properties": {}}, {"species": [{"element": "P", "occu": 1}], "abc": [0.75199588, 0.08681782, 0.15225297], "xyz": [4.625671041088959, 0.91634915424482, 7.5789189860380795], "label": "P", "properties": {}}, {"species": [{"element": "P", "occu": 1}], "abc": [0.7547762, 0.58562861, 0.16399126], "xyz": [4.6427733232304, 6.18122271988711, 8.16323303222464], "label": "P", "properties": {}}, {"species": [{"element": "P", "occu": 1}], "abc": [0.25563367, 0.41231056, 0.10190673], "xyz": [1.5724517858346398, 4.35187652652656, 5.07276049066272], "label": "P", "properties": {}}, {"species": [{"element": "P", "occu": 1}], "abc": [0.25277134, 0.90887464, 0.21409456], "xyz": [1.55484504443728, 9.593036402878639, 10.65729834755584], "label": "P", "properties": {}}, {"species": [{"element": "P", "occu": 1}], "abc": [0.75299752, 0.08612428, 0.25285620999999997], "xyz": [4.63183232104384, 0.9090289428822799, 12.586793746661439], "label": "P", "properties": {}}, {"species": [{"element": "P", "occu": 1}], "abc": [0.75296474, 0.58612736, 0.26428729], "xyz": [4.63163068497008, 6.186486951823359, 13.15581535092256], "label": "P", "properties": {}}, {"species": [{"element": "P", "occu": 1}], "abc": [0.25317616, 0.40900913, 0.20254076], "xyz": [1.5573351699827198, 4.31703042478963, 10.08216793019264], "label": "P", "properties": {}}, {"species": [{"element": "P", "occu": 1}], "abc": [0.253064, 0.90888101, 0.31459501], "xyz": [1.556645252288, 9.593103637279508, 15.66005637986464], "label": "P", "properties": {}}, {"species": [{"element": "P", "occu": 1}], "abc": [0.7546467, 0.08550237, 0.35314342], "xyz": [4.6419767438664, 0.9024647754968699, 17.578937019306878], "label": "P", "properties": {}}, {"species": [{"element": "P", "occu": 1}], "abc": [0.75189876, 0.58676258, 0.36490251], "xyz": [4.62507363732192, 6.19319160427558, 18.16428645754464], "label": "P", "properties": {}}, {"species": [{"element": "P", "occu": 1}], "abc": [0.25274581, 0.40883423, 0.30305256999999997], "xyz": [1.55468800450552, 4.31518438134973, 15.085491445852478], "label": "P", "properties": {}}, {"species": [{"element": "P", "occu": 1}], "abc": [0.25518418, 0.91227381, 0.41523074], "xyz": [1.56968688654256, 9.628914135752309, 20.66954844278336], "label": "P", "properties": {}}, {"species": [{"element": "P", "occu": 1}], "abc": [0.75048485, 0.08664253, 0.45319492], "xyz": [4.6163764054411995, 0.9144989944130298, 22.55934701020288], "label": "P", "properties": {}}, {"species": [{"element": "P", "occu": 1}], "abc": [0.74695644, 0.5914437, 0.46605371], "xyz": [4.594672478076481, 6.2426001283887, 23.19943782530144], "label": "P", "properties": {}}, {"species": [{"element": "P", "occu": 1}], "abc": [0.25135416, 0.41029767, 0.40293794], "xyz": [1.54612769815872, 4.3306307724971695, 20.057631740524158], "label": "P", "properties": {}}, {"species": [{"element": "P", "occu": 1}], "abc": [0.23817784, 0.41949219, 0.50438174], "xyz": [1.46507762398528, 4.42767756111369, 25.107348286847362], "label": "P", "properties": {}}, {"species": [{"element": "O", "occu": 1}], "abc": [0.43685557, 0.85505021, 9.99999999999994e-05], "xyz": [2.6871824873394403, 9.02492756406871, 0.00497784639999997], "label": "O", "properties": {}}, {"species": [{"element": "O", "occu": 1}], "abc": [0.54250975, 0.16205391, 0.062090450000000005], "xyz": [3.337081634122, 1.71045487401741, 3.0907672300688], "label": "O", "properties": {}}, {"species": [{"element": "O", "occu": 1}], "abc": [0.54286831, 0.65598598, 0.05493531], "xyz": [3.3392872055255203, 6.92383427698898, 2.73459535116384], "label": "O", "properties": {}}, {"species": [{"element": "O", "occu": 1}], "abc": [0.95753144, 0.65605367, 0.05225060000000001], "xyz": [5.88995973347648, 6.92454873485317, 2.6009546110784005], "label": "O", "properties": {}}, {"species": [{"element": "O", "occu": 1}], "abc": [0.95669854, 0.16075578, 0.06184767000000001], "xyz": [5.88483640565968, 1.6967533052887798, 3.0786820145788805], "label": "O", "properties": {}}, {"species": [{"element": "O", "occu": 1}], "abc": [0.01626598, 0.86384165, 0.002234670000000001], "xyz": [0.10005516604815999, 9.117719903344149, 0.11123844014688006], "label": "O", "properties": {}}, {"species": [{"element": "O", "occu": 1}], "abc": [0.7462917, 0.95276102, 0.062004500000000004], "xyz": [4.5905835347064, 10.05625060470802, 3.0864887710880002], "label": "O", "properties": {}}, {"species": [{"element": "O", "occu": 1}], "abc": [0.23989344, 0.06572508, 0.00949094], "xyz": [1.47563060898048, 0.69371842636308, 0.47244441511616], "label": "O", "properties": {}}, {"species": [{"element": "O", "occu": 1}], "abc": [0.75272905, 0.44670707, 0.05460867], "xyz": [4.6301809105276, 4.71492656449657, 2.71833571368288], "label": "O", "properties": {}}, {"species": [{"element": "O", "occu": 1}], "abc": [0.243037, 0.89783325, 0.044440339999999995], "xyz": [1.4949672501040001, 9.47649617659575, 2.2121718648377597], "label": "O", "properties": {}}, {"species": [{"element": "O", "occu": 1}], "abc": [0.74660515, 0.09304419, 0.0201554], "xyz": [4.5925116258388, 0.9820675618656899, 1.0033048533056], "label": "O", "properties": {}}, {"species": [{"element": "O", "occu": 1}], "abc": [0.25537887, 0.41449364, 0.07035960000000001], "xyz": [1.5708844621130398, 4.37491861064764, 3.5023928156544004], "label": "O", "properties": {}}, {"species": [{"element": "O", "occu": 1}], "abc": [0.45706695, 0.84069603, 0.10328417000000001], "xyz": [2.8115065663044003, 8.873421332941529, 5.1413273381148805], "label": "O", "properties": {}}, {"species": [{"element": "O", "occu": 1}], "abc": [0.54558258, 0.15713022, 0.16278625], "xyz": [3.35598320143536, 1.6584860596972197, 8.10324948532], "label": "O", "properties": {}}, {"species": [{"element": "O", "occu": 1}], "abc": [0.54884272, 0.65613828, 0.15350649], "xyz": [3.37603694852224, 6.925441780796279, 7.641317286231359], "label": "O", "properties": {}}, {"species": [{"element": "O", "occu": 1}], "abc": [0.46151269, 0.34142017, 0.11200868000000001], "xyz": [2.83885316662648, 3.60363902274467, 5.57562004506752], "label": "O", "properties": {}}, {"species": [{"element": "O", "occu": 1}], "abc": [0.04600373, 0.34151744, 0.11122486], "xyz": [0.28297777594615997, 3.60466569310144, 5.53660268941504], "label": "O", "properties": {}}, {"species": [{"element": "O", "occu": 1}], "abc": [0.96251288, 0.65550472, 0.15386679], "xyz": [5.92060152735296, 6.91875464939672, 7.65925246681056], "label": "O", "properties": {}}, {"species": [{"element": "O", "occu": 1}], "abc": [0.95958445, 0.15693225, 0.16252591], "xyz": [5.902588192164401, 1.6563965158447498, 8.09029016000224], "label": "O", "properties": {}}, {"species": [{"element": "O", "occu": 1}], "abc": [0.04293556, 0.84182793, 0.10357175], "xyz": [0.26410487318751996, 8.885368368788429, 5.155642628792], "label": "O", "properties": {}}, {"species": [{"element": "O", "occu": 1}], "abc": [0.75205561, 0.94825622, 0.16289474999999998], "xyz": [4.62603845178712, 10.00870311192322, 8.108650448664], "label": "O", "properties": {}}, {"species": [{"element": "O", "occu": 1}], "abc": [0.25132266, 0.0509065, 0.10570552], "xyz": [1.5459339356107198, 0.5373105224315, 5.261858421921279], "label": "O", "properties": {}}, {"species": [{"element": "O", "occu": 1}], "abc": [0.25593519, 0.55155067, 0.11211338], "xyz": [1.5743064932464799, 5.82153514080017, 5.58083185024832], "label": "O", "properties": {}}, {"species": [{"element": "O", "occu": 1}], "abc": [0.75472066, 0.44685604, 0.15337793], "xyz": [4.64243168602672, 4.716498920650039, 7.63491776689952], "label": "O", "properties": {}}, {"species": [{"element": "O", "occu": 1}], "abc": [0.25203016, 0.9026016, 0.14566999], "xyz": [1.55028590395072, 9.526825400361599, 7.25122835309536], "label": "O", "properties": {}}, {"species": [{"element": "O", "occu": 1}], "abc": [0.75064254, 0.08831646, 0.12093309000000001], "xyz": [4.61734638690768, 0.93216707614746, 6.01986346697376], "label": "O", "properties": {}}, {"species": [{"element": "O", "occu": 1}], "abc": [0.76475904, 0.59037593, 0.09542086000000001], "xyz": [4.70417968877568, 6.23132997513643, 4.74990384435904], "label": "O", "properties": {}}, {"species": [{"element": "O", "occu": 1}], "abc": [0.2537687, 0.40866487, 0.17112132], "xyz": [1.5609799972904002, 4.3133968117843695, 8.51815646725248], "label": "O", "properties": {}}, {"species": [{"element": "O", "occu": 1}], "abc": [0.45998989, 0.83823041, 0.20393427], "xyz": [2.82948613144888, 8.84739708121891, 10.15153471756128], "label": "O", "properties": {}}, {"species": [{"element": "O", "occu": 1}], "abc": [0.54596679, 0.15622085, 0.26320941999999997], "xyz": [3.35834655091368, 1.6488877948433498, 13.10216063793088], "label": "O", "properties": {}}, {"species": [{"element": "O", "occu": 1}], "abc": [0.54594685, 0.65624906, 0.25393896], "xyz": [3.3582238961452, 6.92661104719006, 12.64069137855744], "label": "O", "properties": {}}, {"species": [{"element": "O", "occu": 1}], "abc": [0.45995814, 0.33861742, 0.21285622999999998], "xyz": [2.82929083110288, 3.5740564141044198, 10.59565618223072], "label": "O", "properties": {}}, {"species": [{"element": "O", "occu": 1}], "abc": [0.04606914, 0.33875708, 0.21280272], "xyz": [0.28338012541488, 3.5755305045950796, 10.59299253662208], "label": "O", "properties": {}}, {"species": [{"element": "O", "occu": 1}], "abc": [0.95999092, 0.65616568, 0.25392253], "xyz": [5.90508846717664, 6.925730983713679, 12.63987351839392], "label": "O", "properties": {}}, {"species": [{"element": "O", "occu": 1}], "abc": [0.96002042, 0.15617642, 0.26321887], "xyz": [5.9052699273406395, 1.64841884281342, 13.102631044415679], "label": "O", "properties": {}}, {"species": [{"element": "O", "occu": 1}], "abc": [0.04537262, 0.83852358, 0.20388881], "xyz": [0.27909569716304, 8.85049144688658, 10.149271788587841], "label": "O", "properties": {}}, {"species": [{"element": "O", "occu": 1}], "abc": [0.75272111, 0.94722079, 0.2633077], "xyz": [4.630132070063119, 9.99777430255229, 13.107052865372799], "label": "O", "properties": {}}, {"species": [{"element": "O", "occu": 1}], "abc": [0.25266678, 0.04735725, 0.20348048999999999], "xyz": [1.55420187580176, 0.4998487175197499, 10.12894624616736], "label": "O", "properties": {}}, {"species": [{"element": "O", "occu": 1}], "abc": [0.25316958, 0.54775854, 0.21303026], "xyz": [1.55729469513936, 5.78150977367754, 10.60431912832064], "label": "O", "properties": {}}, {"species": [{"element": "O", "occu": 1}], "abc": [0.75263855, 0.44724523, 0.25382456999999997], "xyz": [4.6296242276516, 4.720606763110729, 12.634997220060479], "label": "O", "properties": {}}, {"species": [{"element": "O", "occu": 1}], "abc": [0.25258852, 0.90845366, 0.24547339], "xyz": [1.5537204835158398, 9.58859302170466, 12.219288307072961], "label": "O", "properties": {}}, {"species": [{"element": "O", "occu": 1}], "abc": [0.75293814, 0.08720415, 0.22149971], "xyz": [4.63146706326288, 0.9204268098316499, 11.02591534024544], "label": "O", "properties": {}}, {"species": [{"element": "O", "occu": 1}], "abc": [0.75310725, 0.58580303, 0.19531395999999998], "xyz": [4.632507291342, 6.18306369699853, 9.72242892655744], "label": "O", "properties": {}}, {"species": [{"element": "O", "occu": 1}], "abc": [0.25252318, 0.40845235, 0.27167441], "xyz": [1.55331856463056, 4.31115369484985, 13.523534837906238], "label": "O", "properties": {}}, {"species": [{"element": "O", "occu": 1}], "abc": [0.45987119, 0.83853376, 0.30427189], "xyz": [2.82875598495848, 8.85059889526976, 15.14618732257696], "label": "O", "properties": {}}, {"species": [{"element": "O", "occu": 1}], "abc": [0.54861518, 0.1559843, 0.36361965], "xyz": [3.37463730629456, 1.6463910448392998, 18.1004276572176], "label": "O", "properties": {}}, {"species": [{"element": "O", "occu": 1}], "abc": [0.54548374, 0.65708372, 0.35437286], "xyz": [3.35537521761808, 6.93542075912572, 17.64013665408704], "label": "O", "properties": {}}, {"species": [{"element": "O", "occu": 1}], "abc": [0.45995106, 0.33815651, 0.31321014999999996], "xyz": [2.82924728066352, 3.56919157773001, 15.591120176209598], "label": "O", "properties": {}}, {"species": [{"element": "O", "occu": 1}], "abc": [0.04534031, 0.3384817, 0.31325913], "xyz": [0.27889695214952, 3.5726239097267, 15.59355832537632], "label": "O", "properties": {}}, {"species": [{"element": "O", "occu": 1}], "abc": [0.9594982, 0.65686763, 0.35463084], "xyz": [5.9020576518544, 6.93313996137313, 17.65297850222976], "label": "O", "properties": {}}, {"species": [{"element": "O", "occu": 1}], "abc": [0.96230119, 0.15545695, 0.36327085], "xyz": [5.9192993815184805, 1.64082494416445, 18.083064928974398], "label": "O", "properties": {}}, {"species": [{"element": "O", "occu": 1}], "abc": [0.04598242, 0.83858326, 0.30433401], "xyz": [0.28284669404464, 8.85112136039426, 15.14927956076064], "label": "O", "properties": {}}, {"species": [{"element": "O", "occu": 1}], "abc": [0.7546236, 0.9467655, 0.36377893], "xyz": [4.6418346513312, 9.9929687844405, 18.10835637096352], "label": "O", "properties": {}}, {"species": [{"element": "O", "occu": 1}], "abc": [0.25306366, 0.04765214, 0.30411519], "xyz": [1.55664316088272, 0.50296123753114, 15.138387037268158], "label": "O", "properties": {}}, {"species": [{"element": "O", "occu": 1}], "abc": [0.25264729, 0.54728736, 0.31368577999999997], "xyz": [1.5540819890696802, 5.776536538983359, 15.61479630704192], "label": "O", "properties": {}}, {"species": [{"element": "O", "occu": 1}], "abc": [0.75198895, 0.44822319, 0.35424667], "xyz": [4.6256284133284, 4.73092898519469, 17.63385510971488], "label": "O", "properties": {}}, {"species": [{"element": "O", "occu": 1}], "abc": [0.25366905, 0.9084905, 0.3460158], "xyz": [1.5603670310076, 9.5889818624155, 17.2241350437312], "label": "O", "properties": {}}, {"species": [{"element": "O", "occu": 1}], "abc": [0.75306039, 0.08557536, 0.32182181], "xyz": [4.63221904648488, 0.90323517407136, 16.01979538349984], "label": "O", "properties": {}}, {"species": [{"element": "O", "occu": 1}], "abc": [0.75285414, 0.58715773, 0.29564543], "xyz": [4.63095036313488, 6.19736235364823, 14.71677539401952], "label": "O", "properties": {}}, {"species": [{"element": "O", "occu": 1}], "abc": [0.25191266, 0.40254103, 0.37151374], "xyz": [1.54956313889072, 4.24876059303653, 18.49338333209536], "label": "O", "properties": {}}, {"species": [{"element": "O", "occu": 1}], "abc": [0.46115082, 0.84144682, 0.40513824], "xyz": [2.83662723477744, 8.88134580952382, 20.16715929486336], "label": "O", "properties": {}}, {"species": [{"element": "O", "occu": 1}], "abc": [0.54231812, 0.1557547, 0.46224828], "xyz": [3.33590288119904, 1.6439676510496999, 23.01000936504192], "label": "O", "properties": {}}, {"species": [{"element": "O", "occu": 1}], "abc": [0.5416483, 0.66194181, 0.45502412999999997], "xyz": [3.3317826897736, 6.986697175220309, 22.65040227433632], "label": "O", "properties": {}}, {"species": [{"element": "O", "occu": 1}], "abc": [0.45691233, 0.34062476, 0.41389322], "xyz": [2.81055546899736, 3.59524358871076, 20.602968751614082], "label": "O", "properties": {}}, {"species": [{"element": "O", "occu": 1}], "abc": [0.04280488, 0.34176844, 0.41362266999999997], "xyz": [0.26330103541696, 3.60731496070244, 20.58950118817888], "label": "O", "properties": {}}, {"species": [{"element": "O", "occu": 1}], "abc": [0.95573518, 0.66078915, 0.45528652999999997], "xyz": [5.8789105933345605, 6.97453102066665, 22.663464143289918], "label": "O", "properties": {}}, {"species": [{"element": "O", "occu": 1}], "abc": [0.95721656, 0.15576163, 0.46494147999999996], "xyz": [5.88802284613952, 1.64404079616713, 23.14407272428672], "label": "O", "properties": {}}, {"species": [{"element": "O", "occu": 1}], "abc": [0.04562006, 0.84145249, 0.40590893], "xyz": [0.28061774811151996, 8.88140565552899, 20.20552305928352], "label": "O", "properties": {}}, {"species": [{"element": "O", "occu": 1}], "abc": [0.75230908, 0.94654193, 0.46255894999999997], "xyz": [4.62759759442336, 9.990609036402429, 23.0254740404528], "label": "O", "properties": {}}, {"species": [{"element": "O", "occu": 1}], "abc": [0.25547153, 0.05155281, 0.40504519], "xyz": [1.57145443156376, 0.5441322281813099, 20.16252740878816], "label": "O", "properties": {}}, {"species": [{"element": "O", "occu": 1}], "abc": [0.25118806, 0.55084301, 0.41148007], "xyz": [1.54510598516752, 5.81406589494151, 20.482845851212478], "label": "O", "properties": {}}, {"species": [{"element": "O", "occu": 1}], "abc": [0.74578383, 0.45270097, 0.45517385], "xyz": [4.58745952882536, 4.77819128590547, 22.657855105966398], "label": "O", "properties": {}}, {"species": [{"element": "O", "occu": 1}], "abc": [0.25491364, 0.91440067, 0.44678091], "xyz": [1.56802274305888, 9.65136282615017, 22.24006744432224], "label": "O", "properties": {}}, {"species": [{"element": "O", "occu": 1}], "abc": [0.76443629, 0.09039983, 0.42176365], "xyz": [4.70219439155768, 0.9541567360753299, 20.9947466680336], "label": "O", "properties": {}}, {"species": [{"element": "O", "occu": 1}], "abc": [0.75052688, 0.58823662, 0.39622064], "xyz": [4.61663494004096, 6.208749876843619, 19.723254864296962], "label": "O", "properties": {}}, {"species": [{"element": "O", "occu": 1}], "abc": [0.24253395, 0.39795473, 0.47275793], "xyz": [1.4918728929684, 4.200352879895229, 23.53316359921952], "label": "O", "properties": {}}, {"species": [{"element": "O", "occu": 1}], "abc": [0.43611933, 0.35618071, 0.51715533], "xyz": [2.6826537337413603, 3.7594343231242098, 25.74319797681312], "label": "O", "properties": {}}, {"species": [{"element": "O", "occu": 1}], "abc": [0.0157383, 0.36345697, 0.5149218], "xyz": [0.0968093050536, 3.83623416326147, 25.6320162841152], "label": "O", "properties": {}}, {"species": [{"element": "O", "occu": 1}], "abc": [0.23774738, 0.56624247, 0.50760809], "xyz": [1.46242978187696, 5.97660490072197, 25.26795103417376], "label": "O", "properties": {}}, {"species": [{"element": "O", "occu": 1}], "abc": [0.74560453, 0.59332889, 0.49699422000000004], "xyz": [4.58635662009976, 6.26249802794539, 24.73960888847808], "label": "O", "properties": {}}]}, "formula": "(Li3PO4)20.0", "bandgap": 3.979, "slab_thickness": 25.738220130413122}