{"miller": "100_0.16", "final_energy": -1100.17016447, "gamma": 0.05534219849509778, "work_function": 5.0280606276491415, "ionization_potentail": -5.272560627649142, "electron_affinity": -1.3055606276491423, "is_stochiometric": true, "incar_parameters": {"SYSTEM": "unknown system", "LCOMPAT": false, "PREC": "normal", "ENMAX": 520.0, "ENAUG": 628.945, "EDIFF": 1e-05, "IALGO": 38, "IWAVPR": 11, "NBANDS": 508, "NBANDSLOW": -1, "NBANDSHIGH": -1, "NELECT": 836.0, "TURBO": 0, "IRESTART": 0, "NREBOOT": 0, "NMIN": 0, "EREF": 0.0, "ISMEAR": 0, "SIGMA": 0.05, "KSPACING": 0.5, "KGAMMA": true, "KBLOWUP": true, "LREAL": true, "ROPT": [-0.0005, -0.0005, -0.0005], "LMAXPAW": -100, "LMAXMIX": 2, "NLSPLINE": false, "ISTART": 0, "ICHARG": 2, "INIWAV": 1, "ISPIN": 1, "LNONCOLLINEAR": false, "MAGMOM": [0.6, 0.6, 0.6, 0.6, 0.6, 0.6, 0.6, 0.6, 0.6, 0.6, 0.6, 0.6, 0.6, 0.6, 0.6, 0.6, 0.6, 0.6, 0.6, 0.6, 0.6, 0.6, 0.6, 0.6, 0.6, 0.6, 0.6, 0.6, 0.6, 0.6, 0.6, 0.6, 0.6, 0.6, 0.6, 0.6, 0.6, 0.6, 0.6, 0.6, 0.6, 0.6, 0.6, 0.6, 0.6, 0.6, 0.6, 0.6, 0.6, 0.6, 0.6, 0.6, 0.6, 0.6, 0.6, 0.6, 0.6, 0.6, 0.6, 0.6, 0.6, 0.6, 0.6, 0.6, 0.6, 0.6, 0.6, 0.6, 0.6, 0.6, 0.6, 0.6, 0.6, 0.6, 0.6, 0.6, 0.6, 0.6, 0.6, 0.6, 0.6, 0.6, 0.6, 0.6, 0.6, 0.6, 0.6, 0.6, 0.6, 0.6, 0.6, 0.6, 0.6, 0.6, 0.6, 0.6, 0.6, 0.6, 0.6, 0.6, 0.6, 0.6, 0.6, 0.6, 0.6, 0.6, 0.6, 0.6, 0.6, 0.6, 0.6, 0.6, 0.6, 0.6, 0.6, 0.6, 0.6, 0.6, 0.6, 0.6, 0.6, 0.6, 0.6, 0.6, 0.6, 0.6, 0.6, 0.6, 0.6, 0.6, 0.6, 0.6, 0.6, 0.6, 0.6, 0.6, 0.6, 0.6, 0.6, 0.6, 0.6, 0.6, 0.6, 0.6, 0.6, 0.6, 0.6, 0.6, 0.6, 0.6, 0.6, 0.6, 0.6, 0.6, 0.6, 0.6, 0.6, 0.6, 0.6, 0.6, 0.6, 0.6, 0.6, 0.6, 0.6, 0.6, 0.6, 0.6, 0.6, 0.6, 0.6, 0.6, 0.6, 0.6, 0.6, 0.6], "NUPDOWN": -1.0, "LSORBIT": false, "SAXIS": [0.0, 0.0, 1.0], "LSPIRAL": false, "QSPIRAL": [0.0, 0.0, 0.0], "LZEROZ": false, "LASPH": false, "LMETAGGA": false, "NELM": 100, "NELMDL": -5, "NELMIN": 6, "ENINI": 520.0, "LDIAG": true, "LSUBROT": false, "WEIMIN": 0.001, "EBREAK": 0.0, "DEPER": 0.3, "NRMM": 4, "TIME": 0.4, "AMIX": 0.4, "BMIX": 1.0, "AMIN": 0.1, "AMIX_MAG": 1.6, "BMIX_MAG": 1.0, "IMIX": 4, "MIXFIRST": false, "MAXMIX": -45, "WC": 100.0, "INIMIX": 1, "MIXPRE": 1, "MREMOVE": 5, "LDIPOL": false, "LMONO": false, "IDIPOL": 0, "EPSILON": 1.0, "DIPOL": [-100.0, -100.0, -100.0], "EFIELD": 0.0, "NGX": 36, "NGY": 60, "NGZ": 280, "NGXF": 72, "NGYF": 120, "NGZF": 560, "ADDGRID": false, "NSW": 150, "IBRION": 2, "MDALGO": 0, "ISIF": 2, "PSTRESS": 0.0, "EDIFFG": -0.01, "NFREE": 1, "POTIM": 0.5, "SMASS": -3.0, "SCALEE": 1.0, "TEBEG": 0.0001, "TEEND": 0.0001, "NBLOCK": 1, "KBLOCK": 150, "NPACO": 256, "APACO": 10.0, "ISYM": 0, "SYMPREC": 1e-05, "LORBIT": 11, "RWIGS": [-1.0, -1.0, -1.0], "NEDOS": 301, "EMIN": 10.0, "EMAX": -10.0, "EFERMI": 0.0, "NWRITE": 2, "LWAVE": false, "LDOWNSAMPLE": false, "LCHARG": false, "LPARD": false, "LVTOT": false, "LVHAR": false, "LELF": false, "LOPTICS": false, "STM": [0.0, 0.0, 0.0, 0.0, 0.0, 0.0, 0.0], "NPAR": 2, "NSIM": 4, "NBLK": -1, "LPLANE": true, "LSCALAPACK": true, "LSCAAWARE": false, "LSCALU": false, "LASYNC": false, "LORBITALREAL": false, "IDIOT": 3, "PHON_NSTRUCT": -1, "LMUSIC": false, "POMASS": [7.01, 30.974, 16.0], "DARWINR": [0.0, 0.0, 0.0], "DARWINV": [1.0, 1.0, 1.0], "LCORR": true, "GGA_COMPAT": true, "LBERRY": false, "ICORELEVEL": 0, "LDAU": false, "I_CONSTRAINED_M": 0, "GGA": "--", "VOSKOWN": 0, "LHFCALC": false, "PRECFOCK": "", "LSYMGRAD": false, "LHFONE": false, "LRHFCALC": false, "LTHOMAS": false, "LMODELHF": false, "LFOCKACE": false, "ENCUT4O": -1.0, "EXXOEP": 0, "FOURORBIT": 0, "AEXX": 0.0, "HFALPHA": 0.0, "MCALPHA": 0.0, "ALDAX": 1.0, "AGGAX": 1.0, "ALDAC": 1.0, "AGGAC": 1.0, "NKREDX": 1, "NKREDY": 1, "NKREDZ": 1, "SHIFTRED": false, "ODDONLY": false, "EVENONLY": false, "LMAXFOCK": 0, "NMAXFOCKAE": 0, "LFOCKAEDFT": false, "HFSCREEN": 0.0, "HFSCREENC": 0.0, "NBANDSGWLOW": 0, "LUSE_VDW": false, "Zab_VDW": -0.8491, "PARAM1": 0.1234, "PARAM2": 1.0, "PARAM3": 0.0, "MODEL_GW": 0, "MODEL_EPS0": 11.01771322, "MODEL_ALPHA": 1.0, "LEPSILON": false, "LRPA": false, "LNABLA": false, "LVEL": false, "CSHIFT": 0.1, "OMEGAMAX": -1.0, "DEG_THRESHOLD": 0.002, "RTIME": -0.1, "WPLASMAI": 0.0, "DFIELD": [0.0, 0.0, 0.0], "WPLASMA": [0.0, 0.0, 0.0, 0.0, 0.0, 0.0, 0.0, 0.0, 0.0], "NUCIND": false, "MAGPOS": [0.0, 0.0, 0.0], "LNICSALL": true, "ORBITALMAG": false, "LMAGBLOCH": false, "LCHIMAG": false, "LGAUGE": true, "MAGATOM": 0, "MAGDIPOL": [0.0, 0.0, 0.0], "AVECCONST": [0.0, 0.0, 0.0], "LFINITE_TEMPERATURE": false, "LADDER": false, "LRPAFORCE": false, "LFXC": false, "LHARTREE": true, "IBSE": 0, "KPOINT": [-1, 0, 0, 0], "LTCTC": false, "LTCTE": false, "LTETE": false, "LTRIPLET": false, "LFXCEPS": false, "LFXHEG": false, "NATURALO": 2, "LHOLEGF": false, "L2ORDER": false, "LDMP1": false, "LMP2LT": false, "LSMP2LT": false, "LGWLF": false, "ENCUTGW": -2.0, "ENCUTGWSOFT": -2.0, "ENCUTLF": -1.0, "LESF_SPLINES": false, "LMAXMP2": -1, "SCISSOR": 0.0, "NOMEGA": 0, "NOMEGAR": 0, "NBANDSGW": -1, "NBANDSO": -1, "NBANDSV": -1, "NELMGW": 1, "NELMHF": 1, "DIM": 3, "IESPILON": 4, "ANTIRES": 0, "OMEGAMIN": -30.0, "OMEGATL": -200.0, "OMEGAGRID": 0, "LSELFENERGY": false, "LSPECTRAL": false, "LSPECTRALGW": false, "LSINGLES": false, "LFERMIGW": false, "ODDONLYGW": false, "EVENONLYGW": false, "NKREDLFX": 1, "NKREDLFY": 1, "NKREDLFZ": 1, "MAXMEM": 2800, "TELESCOPE": 0, "NTAUPAR": -1, "NOMEGAPAR": -1, "DAMP_NEWTON": 0.80000001, "LAMBDA": 1.0, "OFIELD_KAPPA": 0.0, "OFIELD_K": [0.0, 0.0, 0.0], "OFIELD_Q6_NEAR": 0.0, "OFIELD_Q6_FAR": 0.0, "OFIELD_A": 0.0, "KPOINTS_OPT_MODE": 1, "LKPOINTS_OPT": false, "@module": "pymatgen.io.vasp.inputs", "@class": "Incar"}, "relaxed_structures": {"@module": "pymatgen.core.structure", "@class": "Structure", "charge": 0, "lattice": {"matrix": [[6.151192, 0.0, 0.0], [0.0, 10.554851, 0.0], [0.0, 0.0, 49.778464]], "a": 6.151192, "b": 10.554851, "c": 49.778464, "alpha": 90.0, "beta": 90.0, "gamma": 90.0, "volume": 3231.8625456429836}, "sites": [{"species": [{"element": "Li", "occu": 1}], "abc": [0.49165419, 0.83730108, 0.06172221], "xyz": [3.02425932029448, 8.83758814153908, 3.07243680848544], "label": "Li", "properties": {}}, {"species": [{"element": "Li", "occu": 1}], "abc": [0.51305608, 0.3381865, 0.05701428], "xyz": [3.15590645484736, 3.5695081177114996, 2.83808328446592], "label": "Li", "properties": {}}, {"species": [{"element": "Li", "occu": 1}], "abc": [0.98147254, 0.33778171, 0.06167271], "xyz": [6.03722603626768, 3.5652356195752097, 3.06997277451744], "label": "Li", "properties": {}}, {"species": [{"element": "Li", "occu": 1}], "abc": [0.95112049, 0.71159435, 0.01671662], "xyz": [5.85052474912408, 7.51077233669185, 0.83212766687168], "label": "Li", "properties": {}}, {"species": [{"element": "Li", "occu": 1}], "abc": [0.9777538, 0.12701772, 0.00023662], "xyz": [6.0143513525296, 1.34065310895972, 0.01177858015168], "label": "Li", "properties": {}}, {"species": [{"element": "Li", "occu": 1}], "abc": [0.99945868, 0.84304538, 0.06407218], "xyz": [6.14786223674656, 8.898218372138379, 3.1894147055315205], "label": "Li", "properties": {}}, {"species": [{"element": "Li", "occu": 1}], "abc": [0.70588836, 0.92913112, 0.004481710000000001], "xyz": [4.34205483292512, 9.80684053106312, 0.22309263989344003], "label": "Li", "properties": {}}, {"species": [{"element": "Li", "occu": 1}], "abc": [0.25007042, 0.08425748, 0.05152686], "xyz": [1.53823116694064, 0.8893251470354799, 2.56492794554304], "label": "Li", "properties": {}}, {"species": [{"element": "Li", "occu": 1}], "abc": [0.25348398, 0.59319504, 0.06060845], "xyz": [1.55922862990416, 6.26108526113904, 3.0169955464208003], "label": "Li", "properties": {}}, {"species": [{"element": "Li", "occu": 1}], "abc": [0.49948544, 0.83474095, 0.16361463], "xyz": [3.07243084264448, 8.81056635084845, 8.144484969328321], "label": "Li", "properties": {}}, {"species": [{"element": "Li", "occu": 1}], "abc": [0.49677033, 0.15866091, 0.10246188], "xyz": [3.0557296797333597, 1.6746422645744097, 5.10039500495232], "label": "Li", "properties": {}}, {"species": [{"element": "Li", "occu": 1}], "abc": [0.51075091, 0.6656561, 0.11336888], "xyz": [3.1417269115847195, 7.025900952741099, 5.64332871180032], "label": "Li", "properties": {}}, {"species": [{"element": "Li", "occu": 1}], "abc": [0.4997679, 0.33372422, 0.15327854], "xyz": [3.0741683083368, 3.52240941719122, 7.6299702853625595], "label": "Li", "properties": {}}, {"species": [{"element": "Li", "occu": 1}], "abc": [0.00387041, 0.33371926, 0.15284069], "xyz": [0.02380763502872, 3.52235706513026, 7.60817478490016], "label": "Li", "properties": {}}, {"species": [{"element": "Li", "occu": 1}], "abc": [0.99988971, 0.66682294, 0.11432645], "xyz": [6.150513585034321, 7.038216775081939, 5.6909950755728], "label": "Li", "properties": {}}, {"species": [{"element": "Li", "occu": 1}], "abc": [0.00175746, 0.15531716, 0.10223084], "xyz": [0.01081047389232, 1.63934948154316, 5.0888941886297605], "label": "Li", "properties": {}}, {"species": [{"element": "Li", "occu": 1}], "abc": [0.00103489, 0.83367264, 0.16412403], "xyz": [0.006365807088879999, 8.799290497976639, 8.16984211888992], "label": "Li", "properties": {}}, {"species": [{"element": "Li", "occu": 1}], "abc": [0.74399275, 0.92580277, 0.10266323], "xyz": [4.5764422518579995, 9.77171029273727, 5.11041789867872], "label": "Li", "properties": {}}, {"species": [{"element": "Li", "occu": 1}], "abc": [0.2501648, 0.07097021, 0.16225949], "xyz": [1.5388117164416002, 0.74907999198871, 8.07702818162336], "label": "Li", "properties": {}}, {"species": [{"element": "Li", "occu": 1}], "abc": [0.25331213, 0.57485649, 0.15363231], "xyz": [1.5581715475589601, 6.06752459833299, 7.647580412571839], "label": "Li", "properties": {}}, {"species": [{"element": "Li", "occu": 1}], "abc": [0.75208677, 0.42709646, 0.11347229], "xyz": [4.62623012292984, 4.50793949792746, 5.64847630276256], "label": "Li", "properties": {}}, {"species": [{"element": "Li", "occu": 1}], "abc": [0.49851872, 0.836168, 0.2636852], "xyz": [3.0664843623142404, 8.825628650968, 13.125844235532801], "label": "Li", "properties": {}}, {"species": [{"element": "Li", "occu": 1}], "abc": [0.50251594, 0.16118686, 0.20291696], "xyz": [3.09107203000048, 1.7013032904578598, 10.10089458834944], "label": "Li", "properties": {}}, {"species": [{"element": "Li", "occu": 1}], "abc": [0.50278035, 0.66146735, 0.2136174], "xyz": [3.0926984666772, 6.98168932061485, 10.6335460556736], "label": "Li", "properties": {}}, {"species": [{"element": "Li", "occu": 1}], "abc": [0.49884665, 0.33445441, 0.25347725], "xyz": [3.0685015227068, 3.5301164638429094, 12.617708163944], "label": "Li", "properties": {}}, {"species": [{"element": "Li", "occu": 1}], "abc": [0.00364708, 0.33576639, 0.25335423], "xyz": [0.02243388931936, 3.5439642172578902, 12.611584417302721], "label": "Li", "properties": {}}, {"species": [{"element": "Li", "occu": 1}], "abc": [0.99761295, 0.6613165, 0.21363538], "xyz": [6.1365087971364005, 6.980097121341499, 10.63444107245632], "label": "Li", "properties": {}}, {"species": [{"element": "Li", "occu": 1}], "abc": [0.99877434, 0.16117688, 0.20300353], "xyz": [6.1436527300132795, 1.7011979530448798, 10.10520390997792], "label": "Li", "properties": {}}, {"species": [{"element": "Li", "occu": 1}], "abc": [0.00294004, 0.83544703, 0.26389167], "xyz": [0.01808475052768, 8.81801892004253, 13.13612199499488], "label": "Li", "properties": {}}, {"species": [{"element": "Li", "occu": 1}], "abc": [0.74993302, 0.9243698, 0.20367534], "xyz": [4.612981993159839, 9.7565855078998, 10.13864557987776], "label": "Li", "properties": {}}, {"species": [{"element": "Li", "occu": 1}], "abc": [0.25068072, 0.07419059, 0.26363676], "xyz": [1.54198523941824, 0.78307062305209, 13.12343296673664], "label": "Li", "properties": {}}, {"species": [{"element": "Li", "occu": 1}], "abc": [0.2502733, 0.57433653, 0.2536407], "xyz": [1.5394791207735998, 6.062036498007029, 12.625844453884799], "label": "Li", "properties": {}}, {"species": [{"element": "Li", "occu": 1}], "abc": [0.75065794, 0.42278521, 0.21337063], "xyz": [4.61744111526448, 4.4624348965537095, 10.62126222411232], "label": "Li", "properties": {}}, {"species": [{"element": "Li", "occu": 1}], "abc": [0.49854225, 0.8396784, 0.36460025], "xyz": [3.0666290998620003, 8.8626803999184, 18.149240419016], "label": "Li", "properties": {}}, {"species": [{"element": "Li", "occu": 1}], "abc": [0.5015546, 0.16364664, 0.30401328], "xyz": [3.0851586430832, 1.72726590185064, 15.13331411400192], "label": "Li", "properties": {}}, {"species": [{"element": "Li", "occu": 1}], "abc": [0.50175599, 0.66383439, 0.31390806], "xyz": [3.0863974316400804, 7.00667307512589, 15.625861064019839], "label": "Li", "properties": {}}, {"species": [{"element": "Li", "occu": 1}], "abc": [0.49756777, 0.33953831, 0.35396242], "xyz": [3.06063488628184, 3.5837762708418097, 17.61970558132288], "label": "Li", "properties": {}}, {"species": [{"element": "Li", "occu": 1}], "abc": [0.00199046, 0.33950299, 0.35386366], "xyz": [0.01224370162832, 3.58340347350449, 17.61478946021824], "label": "Li", "properties": {}}, {"species": [{"element": "Li", "occu": 1}], "abc": [0.99624787, 0.6637815, 0.31408477], "xyz": [6.12811192796104, 7.0061148290565, 15.63465741639328], "label": "Li", "properties": {}}, {"species": [{"element": "Li", "occu": 1}], "abc": [0.99676135, 0.1637655, 0.30382432], "xyz": [6.1312704420292, 1.7285204514405, 15.123907975444478], "label": "Li", "properties": {}}, {"species": [{"element": "Li", "occu": 1}], "abc": [0.00145481, 0.83967013, 0.3646187], "xyz": [0.00894881563352, 8.86259311130063, 18.1501588316768], "label": "Li", "properties": {}}, {"species": [{"element": "Li", "occu": 1}], "abc": [0.74875549, 0.92520806, 0.30400348], "xyz": [4.60573878004408, 9.765433217299059, 15.132826285054719], "label": "Li", "properties": {}}, {"species": [{"element": "Li", "occu": 1}], "abc": [0.24998856, 0.07622674, 0.3639233], "xyz": [1.53772763036352, 0.8045618829157399, 18.1155428878112], "label": "Li", "properties": {}}, {"species": [{"element": "Li", "occu": 1}], "abc": [0.24953606, 0.57703238, 0.3541084], "xyz": [1.53494421598352, 6.0904907930753795, 17.6269722414976], "label": "Li", "properties": {}}, {"species": [{"element": "Li", "occu": 1}], "abc": [0.74860238, 0.42523159, 0.3138977], "xyz": [4.6047969710369605, 4.48825607294309, 15.6253453591328], "label": "Li", "properties": {}}, {"species": [{"element": "Li", "occu": 1}], "abc": [0.50351093, 0.84160727, 0.46536625], "xyz": [3.09719240452856, 8.88303933536677, 23.165217122439998], "label": "Li", "properties": {}}, {"species": [{"element": "Li", "occu": 1}], "abc": [0.50029489, 0.16675019, 0.40373543], "xyz": [3.0774099250088804, 1.7600234096716898, 20.09732956777952], "label": "Li", "properties": {}}, {"species": [{"element": "Li", "occu": 1}], "abc": [0.50036581, 0.66681364, 0.4144696], "xyz": [3.07784616754552, 7.038118614967639, 20.6316600626944], "label": "Li", "properties": {}}, {"species": [{"element": "Li", "occu": 1}], "abc": [0.48824024, 0.33337471, 0.45431516], "xyz": [3.00325945836608, 3.51872039121821, 22.61511083671424], "label": "Li", "properties": {}}, {"species": [{"element": "Li", "occu": 1}], "abc": [2.269e-05, 0.33328058, 0.45354608], "xyz": [0.00013957054648, 3.51772686309358, 22.576827215621122], "label": "Li", "properties": {}}, {"species": [{"element": "Li", "occu": 1}], "abc": [0.99758155, 0.6668584, 0.41457587], "xyz": [6.1363156497076, 7.0385910500983995, 20.63695002006368], "label": "Li", "properties": {}}, {"species": [{"element": "Li", "occu": 1}], "abc": [0.99953846, 0.16671101, 0.40370838], "xyz": [6.14835297884432, 1.7596098706095098, 20.09598306032832], "label": "Li", "properties": {}}, {"species": [{"element": "Li", "occu": 1}], "abc": [0.99868493, 0.8434974, 0.46535024], "xyz": [6.14310275193656, 8.9029893758874, 23.16442016923136], "label": "Li", "properties": {}}, {"species": [{"element": "Li", "occu": 1}], "abc": [0.74984576, 0.92966452, 0.40547465], "xyz": [4.61244524014592, 9.81247048858652, 20.1839052679376], "label": "Li", "properties": {}}, {"species": [{"element": "Li", "occu": 1}], "abc": [0.25552418, 0.07400879, 0.4651642], "xyz": [1.57177829182256, 0.78115175114029, 23.155159383788803], "label": "Li", "properties": {}}, {"species": [{"element": "Li", "occu": 1}], "abc": [0.24838113, 0.57340122, 0.45418484], "xyz": [1.52784001980696, 6.05216444031822, 22.60862370728576], "label": "Li", "properties": {}}, {"species": [{"element": "Li", "occu": 1}], "abc": [0.74635992, 0.42570785, 0.41415078], "xyz": [4.591003169024639, 4.49328292628035, 20.61578969280192], "label": "Li", "properties": {}}, {"species": [{"element": "Li", "occu": 1}], "abc": [0.50836075, 0.16260649, 0.50617745], "xyz": [3.1270245785140003, 1.7162872735829897, 25.1967359724368], "label": "Li", "properties": {}}, {"species": [{"element": "Li", "occu": 1}], "abc": [0.48721796, 0.66164835, 0.51078605], "xyz": [2.99697121780832, 6.983599748645849, 25.426145001627198], "label": "Li", "properties": {}}, {"species": [{"element": "Li", "occu": 1}], "abc": [0.04776176, 0.28833646, 0.55104705], "xyz": [0.29379175601792, 3.04334837316746, 27.430275740731197], "label": "Li", "properties": {}}, {"species": [{"element": "Li", "occu": 1}], "abc": [0.01853447, 0.66211351, 0.50618947], "xyz": [0.11400908358824001, 6.988509443137009, 25.19733430957408], "label": "Li", "properties": {}}, {"species": [{"element": "Li", "occu": 1}], "abc": [0.00031939, 0.15727575, 0.50359289], "xyz": [0.00196462921288, 1.6600221071632497, 25.068080545520957], "label": "Li", "properties": {}}, {"species": [{"element": "Li", "occu": 1}], "abc": [0.02041039, 0.86838757, 0.56699909], "xyz": [0.12554822768488, 9.16570141160207, 28.22434378959776], "label": "Li", "properties": {}}, {"species": [{"element": "Li", "occu": 1}], "abc": [0.75031132, 0.91582484, 0.51633454], "xyz": [4.61530898909344, 9.666394728298839, 25.70234031134656], "label": "Li", "properties": {}}, {"species": [{"element": "Li", "occu": 1}], "abc": [0.29372533, 0.07033985, 0.5634274], "xyz": [1.80676090009336, 0.7424266361123499, 28.0465505475136], "label": "Li", "properties": {}}, {"species": [{"element": "Li", "occu": 1}], "abc": [0.7464288, 0.40675545, 0.50717085], "xyz": [4.5914268631296, 4.29324316818795, 25.246185898574396], "label": "Li", "properties": {}}, {"species": [{"element": "P", "occu": 1}], "abc": [0.23528483, 0.92092616, 0.0129811], "xyz": [1.44728216401736, 9.72023840080216, 0.6461792190304], "label": "P", "properties": {}}, {"species": [{"element": "P", "occu": 1}], "abc": [0.7446932, 0.09181584, 0.0514378], "xyz": [4.580750854294401, 0.9691025106398399, 2.5604946755392], "label": "P", "properties": {}}, {"species": [{"element": "P", "occu": 1}], "abc": [0.74842189, 0.58679345, 0.06409328], "xyz": [4.60368674239288, 6.19351743252595, 3.1904650311219203], "label": "P", "properties": {}}, {"species": [{"element": "P", "occu": 1}], "abc": [0.24926883, 0.9099639, 0.11442769], "xyz": [1.53330043294536, 9.6045333798789, 5.69603464726816], "label": "P", "properties": {}}, {"species": [{"element": "P", "occu": 1}], "abc": [0.75038494, 0.08707055, 0.15242944], "xyz": [4.61576183984848, 0.91901668173805, 7.58770339158016], "label": "P", "properties": {}}, {"species": [{"element": "P", "occu": 1}], "abc": [0.75187327, 0.58601449, 0.16407227], "xyz": [4.62491684343784, 6.185295625790991, 8.16726558559328], "label": "P", "properties": {}}, {"species": [{"element": "P", "occu": 1}], "abc": [0.2531023, 0.41254289, 0.10200703], "xyz": [1.5568808429416001, 4.35432873505939, 5.07775327060192], "label": "P", "properties": {}}, {"species": [{"element": "P", "occu": 1}], "abc": [0.25011726, 0.9095229, 0.21414284], "xyz": [1.53851928877392, 9.5998786905879, 10.65970165179776], "label": "P", "properties": {}}, {"species": [{"element": "P", "occu": 1}], "abc": [0.75061281, 0.08794837, 0.25302846], "xyz": [4.61716351196952, 0.9282819410428699, 12.59536808708544], "label": "P", "properties": {}}, {"species": [{"element": "P", "occu": 1}], "abc": [0.75008929, 0.58763369, 0.2642585], "xyz": [4.61394323993368, 6.20238604053019, 13.154382228944], "label": "P", "properties": {}}, {"species": [{"element": "P", "occu": 1}], "abc": [0.25073856, 0.4094002, 0.20260285], "xyz": [1.54234102436352, 4.3211581103702, 10.0852586750224], "label": "P", "properties": {}}, {"species": [{"element": "P", "occu": 1}], "abc": [0.24949694, 0.9116106, 0.31459901], "xyz": [1.53470358135248, 9.6219140530206, 15.66025549372064], "label": "P", "properties": {}}, {"species": [{"element": "P", "occu": 1}], "abc": [0.74997884, 0.09094998, 0.35353193], "xyz": [4.613263840777281, 0.95996348735298, 17.59827645035552], "label": "P", "properties": {}}, {"species": [{"element": "P", "occu": 1}], "abc": [0.74917522, 0.59104088, 0.36497548], "xyz": [4.608320619862241, 6.23834842330888, 18.16791879206272], "label": "P", "properties": {}}, {"species": [{"element": "P", "occu": 1}], "abc": [0.24940488, 0.41176895, 0.30322561], "xyz": [1.53413730261696, 4.34615991367645, 15.094105111263039], "label": "P", "properties": {}}, {"species": [{"element": "P", "occu": 1}], "abc": [0.25015079, 0.91342941, 0.41524096], "xyz": [1.53872553824168, 9.641111321567909, 20.67005717868544], "label": "P", "properties": {}}, {"species": [{"element": "P", "occu": 1}], "abc": [0.75064267, 0.09011521, 0.45325933], "xyz": [4.61734718656264, 0.9511526143837099, 22.56255324106912], "label": "P", "properties": {}}, {"species": [{"element": "P", "occu": 1}], "abc": [0.74679811, 0.58733104, 0.46571086], "xyz": [4.59369855984712, 6.19919161487504, 23.18237127891904], "label": "P", "properties": {}}, {"species": [{"element": "P", "occu": 1}], "abc": [0.2477559, 0.41446114, 0.40361976], "xyz": [1.5239941100328, 4.374575577990139, 20.09157169284864], "label": "P", "properties": {}}, {"species": [{"element": "P", "occu": 1}], "abc": [0.25550308, 0.90802397, 0.51634441], "xyz": [1.57164850167136, 9.58405770777847, 25.70283162478624], "label": "P", "properties": {}}, {"species": [{"element": "P", "occu": 1}], "abc": [0.76535711, 0.07898033, 0.55483202], "xyz": [4.70785853217512, 0.83362561508083, 27.61868573361728], "label": "P", "properties": {}}, {"species": [{"element": "P", "occu": 1}], "abc": [0.25166763, 0.41322793, 0.50370066], "xyz": [1.5480559123149598, 4.36155923018843, 25.07344517058624], "label": "P", "properties": {}}, {"species": [{"element": "O", "occu": 1}], "abc": [0.43293813, 0.85775547, 0.0001], "xyz": [2.6630855617509597, 9.053481180284969, 0.0049778464], "label": "O", "properties": {}}, {"species": [{"element": "O", "occu": 1}], "abc": [0.53959885, 0.1621411, 0.06257675], "xyz": [3.3191761293292, 1.7113751514761, 3.114974497112], "label": "O", "properties": {}}, {"species": [{"element": "O", "occu": 1}], "abc": [0.54018787, 0.65599791, 0.05507429], "xyz": [3.32279930444104, 6.923960196361409, 2.7415135620905597], "label": "O", "properties": {}}, {"species": [{"element": "O", "occu": 1}], "abc": [0.9549557, 0.65627058, 0.05236506], "xyz": [5.8741158621944, 6.92683818758358, 2.60665225406784], "label": "O", "properties": {}}, {"species": [{"element": "O", "occu": 1}], "abc": [0.95355036, 0.16070072, 0.06225849], "xyz": [5.86547134602912, 1.6961721551927198, 3.09913200315936], "label": "O", "properties": {}}, {"species": [{"element": "O", "occu": 1}], "abc": [0.01243127, 0.86505839, 0.00248169], "xyz": [0.07646712857384, 9.130562412749889, 0.12353471632416], "label": "O", "properties": {}}, {"species": [{"element": "O", "occu": 1}], "abc": [0.74336345, 0.95272905, 0.06213048], "xyz": [4.5725713067324, 10.055913166121549, 3.09275986198272], "label": "O", "properties": {}}, {"species": [{"element": "O", "occu": 1}], "abc": [0.23428561, 0.06764342, 0.009781650000000001], "xyz": [1.4411357699471201, 0.7139662192304199, 0.48691551238560005], "label": "O", "properties": {}}, {"species": [{"element": "O", "occu": 1}], "abc": [0.75080172, 0.44685482, 0.05462503], "xyz": [4.61832553365024, 4.71648604373182, 2.7191500893539198], "label": "O", "properties": {}}, {"species": [{"element": "O", "occu": 1}], "abc": [0.24024571, 0.89875292, 0.04457036], "xyz": [1.47779748938632, 9.486203156414918, 2.21864406072704], "label": "O", "properties": {}}, {"species": [{"element": "O", "occu": 1}], "abc": [0.74258418, 0.09457644, 0.02048736], "xyz": [4.56777786734256, 0.9982402323104399, 1.01982931221504], "label": "O", "properties": {}}, {"species": [{"element": "O", "occu": 1}], "abc": [0.76239334, 0.59023954, 0.09553049], "xyz": [4.68962781386128, 6.229890399008539, 4.7553610573673595], "label": "O", "properties": {}}, {"species": [{"element": "O", "occu": 1}], "abc": [0.25340959, 0.41446609, 0.07046841], "xyz": [1.5587710427312802, 4.37462782450259, 3.5078092103222396], "label": "O", "properties": {}}, {"species": [{"element": "O", "occu": 1}], "abc": [0.4551046, 0.84049047, 0.10350632], "xyz": [2.7994357746832, 8.871251677769969, 5.15238562389248], "label": "O", "properties": {}}, {"species": [{"element": "O", "occu": 1}], "abc": [0.54346055, 0.15718064, 0.16285786], "xyz": [3.3429301874756003, 1.65901823528464, 8.106814121127039], "label": "O", "properties": {}}, {"species": [{"element": "O", "occu": 1}], "abc": [0.54597485, 0.65654559, 0.15358876], "xyz": [3.3583961295212, 6.92974087715709, 7.6454125604646395], "label": "O", "properties": {}}, {"species": [{"element": "O", "occu": 1}], "abc": [0.45883202, 0.34186383, 0.11222001], "xyz": [2.82236385076784, 3.6083217879393295, 5.58613972786464], "label": "O", "properties": {}}, {"species": [{"element": "O", "occu": 1}], "abc": [0.04352437, 0.34162267, 0.1112824], "xyz": [0.26772675654904, 3.60577638007217, 5.5394669422336005], "label": "O", "properties": {}}, {"species": [{"element": "O", "occu": 1}], "abc": [0.95963415, 0.65597467, 0.15398545], "xyz": [5.9028939064068, 6.9237149016241695, 7.6651591793488], "label": "O", "properties": {}}, {"species": [{"element": "O", "occu": 1}], "abc": [0.95756858, 0.15745094, 0.16270768], "xyz": [5.89018818874736, 1.66187121150994, 8.099338391403519], "label": "O", "properties": {}}, {"species": [{"element": "O", "occu": 1}], "abc": [0.04091777, 0.84174664, 0.10363847], "xyz": [0.25169305948184, 8.88451036495064, 5.15896384791008], "label": "O", "properties": {}}, {"species": [{"element": "O", "occu": 1}], "abc": [0.7505579, 0.94858156, 0.16313352], "xyz": [4.6168257500168, 10.01213702714756, 8.12053605251328], "label": "O", "properties": {}}, {"species": [{"element": "O", "occu": 1}], "abc": [0.24994716, 0.0506653, 0.10601016], "xyz": [1.53747297101472, 0.5347646923703, 5.277022933194241], "label": "O", "properties": {}}, {"species": [{"element": "O", "occu": 1}], "abc": [0.25310766, 0.55199979, 0.11211219], "xyz": [1.55691381333072, 5.826275535481289, 5.58077261387616], "label": "O", "properties": {}}, {"species": [{"element": "O", "occu": 1}], "abc": [0.75210118, 0.44728682, 0.15347275], "xyz": [4.62631876160656, 4.721045739363819, 7.639637760855999], "label": "O", "properties": {}}, {"species": [{"element": "O", "occu": 1}], "abc": [0.24931435, 0.90203438, 0.14585002], "xyz": [1.5335804352052, 9.52083847777738, 7.26018996996928], "label": "O", "properties": {}}, {"species": [{"element": "O", "occu": 1}], "abc": [0.74941336, 0.08801502, 0.12111843], "xyz": [4.60978546472512, 0.9289854218620199, 6.02908940749152], "label": "O", "properties": {}}, {"species": [{"element": "O", "occu": 1}], "abc": [0.75013899, 0.58621184, 0.19539337], "xyz": [4.614248954176079, 6.18737862563584, 9.72638183438368], "label": "O", "properties": {}}, {"species": [{"element": "O", "occu": 1}], "abc": [0.25107408, 0.40920451, 0.17118609], "xyz": [1.5444048723033599, 4.31909263157801, 8.521380618365761], "label": "O", "properties": {}}, {"species": [{"element": "O", "occu": 1}], "abc": [0.45722283, 0.83890176, 0.20394292], "xyz": [2.81246541411336, 8.85448308043776, 10.15196530127488], "label": "O", "properties": {}}, {"species": [{"element": "O", "occu": 1}], "abc": [0.54363933, 0.15796549, 0.26344053], "xyz": [3.34402989758136, 1.6673022100919896, 13.11366493874592], "label": "O", "properties": {}}, {"species": [{"element": "O", "occu": 1}], "abc": [0.54327711, 0.65788555, 0.25388246], "xyz": [3.34180181281512, 6.94388395530305, 12.637878895341439], "label": "O", "properties": {}}, {"species": [{"element": "O", "occu": 1}], "abc": [0.45762849, 0.33915727, 0.21292546], "xyz": [2.81496070666008, 3.57975445041677, 10.59910234529344], "label": "O", "properties": {}}, {"species": [{"element": "O", "occu": 1}], "abc": [0.04379088, 0.33919364, 0.21290517], "xyz": [0.26936611072896, 3.58013833034764, 10.59809234025888], "label": "O", "properties": {}}, {"species": [{"element": "O", "occu": 1}], "abc": [0.95724823, 0.6577373, 0.25394394], "xyz": [5.88821765439016, 6.942319198642299, 12.640939275308158], "label": "O", "properties": {}}, {"species": [{"element": "O", "occu": 1}], "abc": [0.95748266, 0.15840132, 0.26330496], "xyz": [5.8896596783307205, 1.67190233080332, 13.106916472381439], "label": "O", "properties": {}}, {"species": [{"element": "O", "occu": 1}], "abc": [0.04254686, 0.83895436, 0.20406595], "xyz": [0.26171390485712, 8.85503826560036, 10.1580895457008], "label": "O", "properties": {}}, {"species": [{"element": "O", "occu": 1}], "abc": [0.75085147, 0.94916442, 0.2635366], "xyz": [4.6186315554522395, 10.01828902760142, 13.1184471557824], "label": "O", "properties": {}}, {"species": [{"element": "O", "occu": 1}], "abc": [0.25015989, 0.0478425, 0.20341424], "xyz": [1.5387815140888799, 0.5049704589675, 10.125648422927359], "label": "O", "properties": {}}, {"species": [{"element": "O", "occu": 1}], "abc": [0.25051425, 0.54824295, 0.2130782], "xyz": [1.540961250486, 5.786622649050449, 10.606705507884799], "label": "O", "properties": {}}, {"species": [{"element": "O", "occu": 1}], "abc": [0.75044, 0.44878628, 0.25378981], "xyz": [4.61610052448, 4.73687231624428, 12.63326692065184], "label": "O", "properties": {}}, {"species": [{"element": "O", "occu": 1}], "abc": [0.25038671, 0.91012499, 0.24551510000000001], "xyz": [1.54017672745832, 9.60623366082649, 12.2213645668064], "label": "O", "properties": {}}, {"species": [{"element": "O", "occu": 1}], "abc": [0.75018407, 0.08817356, 0.22165612], "xyz": [4.61452624991144, 0.9306587879395599, 11.03370118979968], "label": "O", "properties": {}}, {"species": [{"element": "O", "occu": 1}], "abc": [0.74954137, 0.58857561, 0.29562738], "xyz": [4.61057287881304, 6.2123278657841094, 14.715876892744319], "label": "O", "properties": {}}, {"species": [{"element": "O", "occu": 1}], "abc": [0.25077536, 0.41082069, 0.2718631], "xyz": [1.54256738822912, 4.33615117066719, 13.5329275362784], "label": "O", "properties": {}}, {"species": [{"element": "O", "occu": 1}], "abc": [0.45621526, 0.84124605, 0.30421563], "xyz": [2.80626765758992, 8.879226712088549, 15.143386786192321], "label": "O", "properties": {}}, {"species": [{"element": "O", "occu": 1}], "abc": [0.54268833, 0.16182183, 0.36361482], "xyz": [3.33818011398936, 1.70800530419733, 18.10018722723648], "label": "O", "properties": {}}, {"species": [{"element": "O", "occu": 1}], "abc": [0.54235732, 0.66113723, 0.35459396], "xyz": [3.3361440079254403, 6.97820495320273, 17.651142672477437], "label": "O", "properties": {}}, {"species": [{"element": "O", "occu": 1}], "abc": [0.456051, 0.34166545, 0.31369467], "xyz": [2.805257262792, 3.6062279165979496, 15.61523883758688], "label": "O", "properties": {}}, {"species": [{"element": "O", "occu": 1}], "abc": [0.04199894, 0.34187604, 0.31351059], "xyz": [0.25834354373648, 3.6084506626700397, 15.606075617933758], "label": "O", "properties": {}}, {"species": [{"element": "O", "occu": 1}], "abc": [0.95630444, 0.6611435, 0.35469094], "xyz": [5.88241222089248, 6.9782711321185, 17.65597018791616], "label": "O", "properties": {}}, {"species": [{"element": "O", "occu": 1}], "abc": [0.95738052, 0.16180085, 0.36356409], "xyz": [5.88903139557984, 1.7077838634233498, 18.09766196575776], "label": "O", "properties": {}}, {"species": [{"element": "O", "occu": 1}], "abc": [0.04249162, 0.84111914, 0.30436428], "xyz": [0.26137411301104, 8.877887195948139, 15.15078635486592], "label": "O", "properties": {}}, {"species": [{"element": "O", "occu": 1}], "abc": [0.75006149, 0.95287155, 0.36437794], "xyz": [4.61377223679608, 10.05741723238905, 18.13817416868416], "label": "O", "properties": {}}, {"species": [{"element": "O", "occu": 1}], "abc": [0.24945702, 0.0502573, 0.30402438], "xyz": [1.53445802576784, 0.5304583131623, 15.13386665495232], "label": "O", "properties": {}}, {"species": [{"element": "O", "occu": 1}], "abc": [0.24925151, 0.55062387, 0.31372408], "xyz": [1.5331938942999201, 5.811752904893369, 15.61670282221312], "label": "O", "properties": {}}, {"species": [{"element": "O", "occu": 1}], "abc": [0.74938456, 0.45218157, 0.35446897], "xyz": [4.60960831039552, 4.77270909629607, 17.64492086226208], "label": "O", "properties": {}}, {"species": [{"element": "O", "occu": 1}], "abc": [0.2500499, 0.9121265, 0.3459638], "xyz": [1.5381049444808, 9.627359300651499, 17.221546563603198], "label": "O", "properties": {}}, {"species": [{"element": "O", "occu": 1}], "abc": [0.74960122, 0.08939827, 0.32215734], "xyz": [4.610941027654239, 0.94358541950777, 16.03649755152576], "label": "O", "properties": {}}, {"species": [{"element": "O", "occu": 1}], "abc": [0.74869842, 0.59114914, 0.39639578], "xyz": [4.60538773151664, 6.239491091478139, 19.73197306448192], "label": "O", "properties": {}}, {"species": [{"element": "O", "occu": 1}], "abc": [0.24936326, 0.41405508, 0.37229227], "xyz": [1.53388129000592, 4.37028967519308, 18.53213735967328], "label": "O", "properties": {}}, {"species": [{"element": "O", "occu": 1}], "abc": [0.45693264, 0.84332436, 0.40476885], "xyz": [2.81068039970688, 8.901162964470359, 20.1487716280464], "label": "O", "properties": {}}, {"species": [{"element": "O", "occu": 1}], "abc": [0.54490507, 0.15903143, 0.46437074], "xyz": [3.35181570734344, 1.67855304796693, 23.11566216374336], "label": "O", "properties": {}}, {"species": [{"element": "O", "occu": 1}], "abc": [0.54114301, 0.65828385, 0.45554789], "xyz": [3.32867455396792, 6.9480879524563495, 22.67647424264096], "label": "O", "properties": {}}, {"species": [{"element": "O", "occu": 1}], "abc": [0.45367044, 0.34393262, 0.41410033], "xyz": [2.79061398116448, 3.63015755813962, 20.61327836929312], "label": "O", "properties": {}}, {"species": [{"element": "O", "occu": 1}], "abc": [0.04012381, 0.34465205, 0.41377714], "xyz": [0.24680925908152002, 3.6377510345945496, 20.59719046751296], "label": "O", "properties": {}}, {"species": [{"element": "O", "occu": 1}], "abc": [0.95642054, 0.65795499, 0.45634849], "xyz": [5.88312637428368, 6.94461688415649, 22.71632688091936], "label": "O", "properties": {}}, {"species": [{"element": "O", "occu": 1}], "abc": [0.95907042, 0.15817054, 0.46411044], "xyz": [5.89942629494064, 1.66946648228954, 23.10270482956416], "label": "O", "properties": {}}, {"species": [{"element": "O", "occu": 1}], "abc": [0.04277679, 0.84320493, 0.40495546], "xyz": [0.26312824843368, 8.89990239861543, 20.15806078721344], "label": "O", "properties": {}}, {"species": [{"element": "O", "occu": 1}], "abc": [0.75083609, 0.94908325, 0.46142982], "xyz": [4.61853695011928, 10.01743229034575, 22.96926768339648], "label": "O", "properties": {}}, {"species": [{"element": "O", "occu": 1}], "abc": [0.24983374, 0.05196732, 0.40455059], "xyz": [1.53677530281808, 0.54850731946932, 20.13790698049376], "label": "O", "properties": {}}, {"species": [{"element": "O", "occu": 1}], "abc": [0.24817869, 0.55321604, 0.41420619], "xyz": [1.52659477249848, 5.8391128730100395, 20.618547917492158], "label": "O", "properties": {}}, {"species": [{"element": "O", "occu": 1}], "abc": [0.74615838, 0.44783557, 0.45563564], "xyz": [4.58976345778896, 4.7268377138500695, 22.68084230285696], "label": "O", "properties": {}}, {"species": [{"element": "O", "occu": 1}], "abc": [0.25111528, 0.9121815, 0.44655608], "xyz": [1.54465830141376, 9.627939817456499, 22.22887575226112], "label": "O", "properties": {}}, {"species": [{"element": "O", "occu": 1}], "abc": [0.75003621, 0.09925943, 0.42184791], "xyz": [4.61361673466232, 1.04766849399493, 20.99894100141024], "label": "O", "properties": {}}, {"species": [{"element": "O", "occu": 1}], "abc": [0.74678067, 0.58554444, 0.49725737], "xyz": [4.5935912830586405, 6.18033431807844, 24.75270809127968], "label": "O", "properties": {}}, {"species": [{"element": "O", "occu": 1}], "abc": [0.23806535, 0.40992294, 0.47226169], "xyz": [1.4643856763972, 4.32667555318194, 23.50846153424416], "label": "O", "properties": {}}, {"species": [{"element": "O", "occu": 1}], "abc": [0.46082981, 0.83787815, 0.50520301], "xyz": [2.83465264063352, 8.84367902940565, 25.14822984597664], "label": "O", "properties": {}}, {"species": [{"element": "O", "occu": 1}], "abc": [0.56721668, 0.14156332, 0.56772749], "xyz": [3.4890587042825603, 1.4941797496653197, 28.26060242277536], "label": "O", "properties": {}}, {"species": [{"element": "O", "occu": 1}], "abc": [0.45969786, 0.34402601, 0.51278995], "xyz": [2.82768979884912, 3.6311432756745097, 25.525896065636804], "label": "O", "properties": {}}, {"species": [{"element": "O", "occu": 1}], "abc": [0.04483543, 0.34380318, 0.51537155], "xyz": [0.27579133833256003, 3.6287913382261796, 25.6544041482992], "label": "O", "properties": {}}, {"species": [{"element": "O", "occu": 1}], "abc": [0.98760286, 0.13515395, 0.56536977], "xyz": [6.07493481160912, 1.4265298043114498, 28.14323874263328], "label": "O", "properties": {}}, {"species": [{"element": "O", "occu": 1}], "abc": [0.04670494, 0.8390088, 0.50549757], "xyz": [0.28729105328848, 8.8556128716888, 25.16289259033248], "label": "O", "properties": {}}, {"species": [{"element": "O", "occu": 1}], "abc": [0.76651973, 0.93213696, 0.55789826], "xyz": [4.71501003101816, 9.83856672439296, 27.771318451072638], "label": "O", "properties": {}}, {"species": [{"element": "O", "occu": 1}], "abc": [0.25648685, 0.04716809, 0.50571095], "xyz": [1.5776998598252, 0.49785216190459, 25.1735143189808], "label": "O", "properties": {}}, {"species": [{"element": "O", "occu": 1}], "abc": [0.24919107, 0.553133, 0.51320836], "xyz": [1.5328221162554398, 5.838236398183, 25.546723872759042], "label": "O", "properties": {}}, {"species": [{"element": "O", "occu": 1}], "abc": [0.25733945, 0.90478826, 0.54729804], "xyz": [1.5829443661244003, 9.54990527084926, 27.243655781410563], "label": "O", "properties": {}}, {"species": [{"element": "O", "occu": 1}], "abc": [0.76034686, 0.10144445, 0.5232371], "xyz": [4.67703952245712, 1.07073105452695, 26.0459391458144], "label": "O", "properties": {}}]}, "formula": "(Li3PO4)22.0", "bandgap": 3.9669999999999996, "slab_thickness": 28.25562457637536}