{"miller": "101_0.09", "final_energy": -1098.89007608, "gamma": 0.05897116668483642, "work_function": "Not calculated", "ionization_potentail": "Not calculated", "electron_affinity": "Not calculated", "is_stochiometric": true, "incar_parameters": {"SYSTEM": "unknown system", "LCOMPAT": false, "PREC": "normal", "ENMAX": 520.0, "ENAUG": 628.945, "EDIFF": 1e-05, "IALGO": 38, "IWAVPR": 11, "NBANDS": 508, "NBANDSLOW": -1, "NBANDSHIGH": -1, "NELECT": 836.0, "TURBO": 0, "IRESTART": 0, "NREBOOT": 0, "NMIN": 0, "EREF": 0.0, "ISMEAR": 0, "SIGMA": 0.05, "KSPACING": 0.5, "KGAMMA": true, "KBLOWUP": true, "LREAL": true, "ROPT": [-0.0005, -0.0005, -0.0005], "LMAXPAW": -100, "LMAXMIX": 2, "NLSPLINE": false, "ISTART": 0, "ICHARG": 2, "INIWAV": 1, "ISPIN": 1, "LNONCOLLINEAR": false, "MAGMOM": [0.6, 0.6, 0.6, 0.6, 0.6, 0.6, 0.6, 0.6, 0.6, 0.6, 0.6, 0.6, 0.6, 0.6, 0.6, 0.6, 0.6, 0.6, 0.6, 0.6, 0.6, 0.6, 0.6, 0.6, 0.6, 0.6, 0.6, 0.6, 0.6, 0.6, 0.6, 0.6, 0.6, 0.6, 0.6, 0.6, 0.6, 0.6, 0.6, 0.6, 0.6, 0.6, 0.6, 0.6, 0.6, 0.6, 0.6, 0.6, 0.6, 0.6, 0.6, 0.6, 0.6, 0.6, 0.6, 0.6, 0.6, 0.6, 0.6, 0.6, 0.6, 0.6, 0.6, 0.6, 0.6, 0.6, 0.6, 0.6, 0.6, 0.6, 0.6, 0.6, 0.6, 0.6, 0.6, 0.6, 0.6, 0.6, 0.6, 0.6, 0.6, 0.6, 0.6, 0.6, 0.6, 0.6, 0.6, 0.6, 0.6, 0.6, 0.6, 0.6, 0.6, 0.6, 0.6, 0.6, 0.6, 0.6, 0.6, 0.6, 0.6, 0.6, 0.6, 0.6, 0.6, 0.6, 0.6, 0.6, 0.6, 0.6, 0.6, 0.6, 0.6, 0.6, 0.6, 0.6, 0.6, 0.6, 0.6, 0.6, 0.6, 0.6, 0.6, 0.6, 0.6, 0.6, 0.6, 0.6, 0.6, 0.6, 0.6, 0.6, 0.6, 0.6, 0.6, 0.6, 0.6, 0.6, 0.6, 0.6, 0.6, 0.6, 0.6, 0.6, 0.6, 0.6, 0.6, 0.6, 0.6, 0.6, 0.6, 0.6, 0.6, 0.6, 0.6, 0.6, 0.6, 0.6, 0.6, 0.6, 0.6, 0.6, 0.6, 0.6, 0.6, 0.6, 0.6, 0.6, 0.6, 0.6, 0.6, 0.6, 0.6, 0.6, 0.6, 0.6], "NUPDOWN": -1.0, "LSORBIT": false, "SAXIS": [0.0, 0.0, 1.0], "LSPIRAL": false, "QSPIRAL": [0.0, 0.0, 0.0], "LZEROZ": false, "LASPH": false, "LMETAGGA": false, "NELM": 100, "NELMDL": -5, "NELMIN": 6, "ENINI": 520.0, "LDIAG": true, "LSUBROT": false, "WEIMIN": 0.001, "EBREAK": 0.0, "DEPER": 0.3, "NRMM": 4, "TIME": 0.4, "AMIX": 0.4, "BMIX": 1.0, "AMIN": 0.1, "AMIX_MAG": 1.6, "BMIX_MAG": 1.0, "IMIX": 4, "MIXFIRST": false, "MAXMIX": -45, "WC": 100.0, "INIMIX": 1, "MIXPRE": 1, "MREMOVE": 5, "LDIPOL": false, "LMONO": false, "IDIPOL": 0, "EPSILON": 1.0, "DIPOL": [-100.0, -100.0, -100.0], "EFIELD": 0.0, "NGX": 36, "NGY": 70, "NGZ": 252, "NGXF": 72, "NGYF": 140, "NGZF": 504, "ADDGRID": false, "NSW": 150, "IBRION": 2, "MDALGO": 0, "ISIF": 2, "PSTRESS": 0.0, "EDIFFG": -0.01, "NFREE": 1, "POTIM": 0.5, "SMASS": -3.0, "SCALEE": 1.0, "TEBEG": 0.0001, "TEEND": 0.0001, "NBLOCK": 1, "KBLOCK": 150, "NPACO": 256, "APACO": 10.0, "ISYM": 0, "SYMPREC": 1e-05, "LORBIT": 11, "RWIGS": [-1.0, -1.0, -1.0], "NEDOS": 301, "EMIN": 10.0, "EMAX": -10.0, "EFERMI": 0.0, "NWRITE": 2, "LWAVE": false, "LDOWNSAMPLE": false, "LCHARG": false, "LPARD": false, "LVTOT": false, "LVHAR": false, "LELF": false, "LOPTICS": false, "STM": [0.0, 0.0, 0.0, 0.0, 0.0, 0.0, 0.0], "NPAR": 2, "NSIM": 4, "NBLK": -1, "LPLANE": true, "LSCALAPACK": true, "LSCAAWARE": false, "LSCALU": false, "LASYNC": false, "LORBITALREAL": false, "IDIOT": 3, "PHON_NSTRUCT": -1, "LMUSIC": false, "POMASS": [7.01, 30.974, 16.0], "DARWINR": [0.0, 0.0, 0.0], "DARWINV": [1.0, 1.0, 1.0], "LCORR": true, "GGA_COMPAT": true, "LBERRY": false, "ICORELEVEL": 0, "LDAU": false, "I_CONSTRAINED_M": 0, "GGA": "--", "VOSKOWN": 0, "LHFCALC": false, "PRECFOCK": "", "LSYMGRAD": false, "LHFONE": false, "LRHFCALC": false, "LTHOMAS": false, "LMODELHF": false, "LFOCKACE": false, "ENCUT4O": -1.0, "EXXOEP": 0, "FOURORBIT": 0, "AEXX": 0.0, "HFALPHA": 0.0, "MCALPHA": 0.0, "ALDAX": 1.0, "AGGAX": 1.0, "ALDAC": 1.0, "AGGAC": 1.0, "NKREDX": 1, "NKREDY": 1, "NKREDZ": 1, "SHIFTRED": false, "ODDONLY": false, "EVENONLY": false, "LMAXFOCK": 0, "NMAXFOCKAE": 0, "LFOCKAEDFT": false, "HFSCREEN": 0.0, "HFSCREENC": 0.0, "NBANDSGWLOW": 0, "LUSE_VDW": false, "Zab_VDW": -0.8491, "PARAM1": 0.1234, "PARAM2": 1.0, "PARAM3": 0.0, "MODEL_GW": 0, "MODEL_EPS0": 11.01771333, "MODEL_ALPHA": 1.0, "LEPSILON": false, "LRPA": false, "LNABLA": false, "LVEL": false, "CSHIFT": 0.1, "OMEGAMAX": -1.0, "DEG_THRESHOLD": 0.002, "RTIME": -0.1, "WPLASMAI": 0.0, "DFIELD": [0.0, 0.0, 0.0], "WPLASMA": [0.0, 0.0, 0.0, 0.0, 0.0, 0.0, 0.0, 0.0, 0.0], "NUCIND": false, "MAGPOS": [0.0, 0.0, 0.0], "LNICSALL": true, "ORBITALMAG": false, "LMAGBLOCH": false, "LCHIMAG": false, "LGAUGE": true, "MAGATOM": 0, "MAGDIPOL": [0.0, 0.0, 0.0], "AVECCONST": [0.0, 0.0, 0.0], "LFINITE_TEMPERATURE": false, "LADDER": false, "LRPAFORCE": false, "LFXC": false, "LHARTREE": true, "IBSE": 0, "KPOINT": [-1, 0, 0, 0], "LTCTC": false, "LTCTE": false, "LTETE": false, "LTRIPLET": false, "LFXCEPS": false, "LFXHEG": false, "NATURALO": 2, "LHOLEGF": false, "L2ORDER": false, "LDMP1": false, "LMP2LT": false, "LSMP2LT": false, "LGWLF": false, "ENCUTGW": -2.0, "ENCUTGWSOFT": -2.0, "ENCUTLF": -1.0, "LESF_SPLINES": false, "LMAXMP2": -1, "SCISSOR": 0.0, "NOMEGA": 0, "NOMEGAR": 0, "NBANDSGW": -1, "NBANDSO": -1, "NBANDSV": -1, "NELMGW": 1, "NELMHF": 1, "DIM": 3, "IESPILON": 4, "ANTIRES": 0, "OMEGAMIN": -30.0, "OMEGATL": -200.0, "OMEGAGRID": 0, "LSELFENERGY": false, "LSPECTRAL": false, "LSPECTRALGW": false, "LSINGLES": false, "LFERMIGW": false, "ODDONLYGW": false, "EVENONLYGW": false, "NKREDLFX": 1, "NKREDLFY": 1, "NKREDLFZ": 1, "MAXMEM": 2800, "TELESCOPE": 0, "NTAUPAR": -1, "NOMEGAPAR": -1, "DAMP_NEWTON": 0.80000001, "LAMBDA": 1.0, "OFIELD_KAPPA": 0.0, "OFIELD_K": [0.0, 0.0, 0.0], "OFIELD_Q6_NEAR": 0.0, "OFIELD_Q6_FAR": 0.0, "OFIELD_A": 0.0, "KPOINTS_OPT_MODE": 1, "LKPOINTS_OPT": false, "@module": "pymatgen.io.vasp.inputs", "@class": "Incar"}, "relaxed_structures": {"@module": "pymatgen.core.structure", "@class": "Structure", "charge": 0, "lattice": {"matrix": [[6.151192, 0.0, 0.0], [0.0, 11.669783, 0.0], [0.0, 0.0, 45.022626]], "a": 6.151192, "b": 11.669783, "c": 45.022626, "alpha": 90.0, "beta": 90.0, "gamma": 90.0, "volume": 3231.86257628388}, "sites": [{"species": [{"element": "Li", "occu": 1}], "abc": [0.53601477, 0.72178634, 0.04172758], "xyz": [3.29712976510584, 8.42308996016422, 1.87868522822508], "label": "Li", "properties": {}}, {"species": [{"element": "Li", "occu": 1}], "abc": [0.52106465, 0.30829417, 0.0026532099999999996], "xyz": [3.2051687065628003, 3.59772606406511, 0.11945448152945999], "label": "Li", "properties": {}}, {"species": [{"element": "Li", "occu": 1}], "abc": [0.50408652, 0.50995179, 0.07770484000000001], "xyz": [3.10073296913184, 5.951026729761571, 3.4984759497098405], "label": "Li", "properties": {}}, {"species": [{"element": "Li", "occu": 1}], "abc": [0.50309006, 0.16247339, 0.08102263], "xyz": [3.09460355235152, 1.89602920457437, 3.6478515680263803], "label": "Li", "properties": {}}, {"species": [{"element": "Li", "occu": 1}], "abc": [0.99691435, 0.16246903, 0.0810238], "xyz": [6.1322115744052, 1.89597832432049, 3.6479042444988004], "label": "Li", "properties": {}}, {"species": [{"element": "Li", "occu": 1}], "abc": [0.99592502, 0.50991899, 0.07767715], "xyz": [6.12612601562384, 5.9506439608791695, 3.4972292731959], "label": "Li", "properties": {}}, {"species": [{"element": "Li", "occu": 1}], "abc": [0.97894338, 0.30829205, 0.00265346], "xyz": [6.02166868750896, 3.59770132412515, 0.11946573718596], "label": "Li", "properties": {}}, {"species": [{"element": "Li", "occu": 1}], "abc": [0.96398375, 0.72178304, 0.041729499999999996], "xyz": [5.929649131130001, 8.42305144988032, 1.878771671667], "label": "Li", "properties": {}}, {"species": [{"element": "Li", "occu": 1}], "abc": [0.25000408, 0.95678354, 0.07018935000000001], "xyz": [1.5378230968633602, 11.16545628977182, 3.160108854233101], "label": "Li", "properties": {}}, {"species": [{"element": "Li", "occu": 1}], "abc": [0.25000115, 0.53939137, 0.0079979], "xyz": [1.5378050738708, 6.294580239972711, 0.36008646048540005], "label": "Li", "properties": {}}, {"species": [{"element": "Li", "occu": 1}], "abc": [0.75011403, 0.3172137, 0.05564871], "xyz": [4.61409542042376, 3.7018150436271, 2.50545105771246], "label": "Li", "properties": {}}, {"species": [{"element": "Li", "occu": 1}], "abc": [0.49647392, 0.55673507, 0.14364254999999998], "xyz": [3.05390640491264, 6.4969774553898105, 6.467164806336299], "label": "Li", "properties": {}}, {"species": [{"element": "Li", "occu": 1}], "abc": [0.51009784, 0.93572501, 0.11459252000000002], "xyz": [3.13770975262528, 10.91970781437283, 5.159256170357521], "label": "Li", "properties": {}}, {"species": [{"element": "Li", "occu": 1}], "abc": [0.50067051, 0.32279372, 0.17640899999999998], "xyz": [3.0797204357479195, 3.7669326661627602, 7.942396430034], "label": "Li", "properties": {}}, {"species": [{"element": "Li", "occu": 1}], "abc": [0.49841992, 0.98291236, 0.1828109], "xyz": [3.0658766245446403, 11.470373949217882, 8.2306267794234], "label": "Li", "properties": {}}, {"species": [{"element": "Li", "occu": 1}], "abc": [0.00150457, 0.9829102, 0.18289], "xyz": [0.00925489894744, 11.4703487424866, 8.23418806914], "label": "Li", "properties": {}}, {"species": [{"element": "Li", "occu": 1}], "abc": [0.99949932, 0.32280421, 0.1764088], "xyz": [6.1481122211894395, 3.76705508218643, 7.942387425508801], "label": "Li", "properties": {}}, {"species": [{"element": "Li", "occu": 1}], "abc": [0.98992382, 0.9357336, 0.11459584000000002], "xyz": [6.08921148219344, 10.919808057808801, 5.159405645475841], "label": "Li", "properties": {}}, {"species": [{"element": "Li", "occu": 1}], "abc": [0.00358435, 0.55685861, 0.14359459], "xyz": [0.0220480250452, 6.498419140381631, 6.46500552119334], "label": "Li", "properties": {}}, {"species": [{"element": "Li", "occu": 1}], "abc": [0.74999846, 0.74712598, 0.09132979000000001], "xyz": [4.61338452716432, 8.71879806026234, 4.11190697782854], "label": "Li", "properties": {}}, {"species": [{"element": "Li", "occu": 1}], "abc": [0.25001024, 0.7529937, 0.16663883], "xyz": [1.5378609882060799, 8.7872730793671, 7.50251772016758], "label": "Li", "properties": {}}, {"species": [{"element": "Li", "occu": 1}], "abc": [0.25000986, 0.35929743, 0.10807794000000001], "xyz": [1.5378586507531198, 4.19292304055769, 4.865952671470441], "label": "Li", "properties": {}}, {"species": [{"element": "Li", "occu": 1}], "abc": [0.75002096, 0.12770456, 0.15150302999999998], "xyz": [4.613522928984319, 1.4902845033104801, 6.821064257556779], "label": "Li", "properties": {}}, {"species": [{"element": "Li", "occu": 1}], "abc": [0.49747091, 0.37308922, 0.24354914999999996], "xyz": [3.06003908182472, 4.35387023703926, 10.9652222930679], "label": "Li", "properties": {}}, {"species": [{"element": "Li", "occu": 1}], "abc": [0.5023709, 0.7516509, 0.21588822], "xyz": [3.0901798611127997, 8.7716028947547, 9.71985458686572], "label": "Li", "properties": {}}, {"species": [{"element": "Li", "occu": 1}], "abc": [0.5015811, 0.14082299, 0.27649545000000003], "xyz": [3.0853216496712, 1.64337373471117, 12.448551236051703], "label": "Li", "properties": {}}, {"species": [{"element": "Li", "occu": 1}], "abc": [0.4979633, 0.8000262, 0.28385593000000003], "xyz": [3.0630678672536, 9.3361321483146, 12.779939374272182], "label": "Li", "properties": {}}, {"species": [{"element": "Li", "occu": 1}], "abc": [0.00201434, 0.80001945, 0.28385716], "xyz": [0.012390592093279999, 9.33605337727935, 12.77999475210216], "label": "Li", "properties": {}}, {"species": [{"element": "Li", "occu": 1}], "abc": [0.99842364, 0.14083111, 0.27649444], "xyz": [6.141495506978879, 1.6434684933491301, 12.44850576319944], "label": "Li", "properties": {}}, {"species": [{"element": "Li", "occu": 1}], "abc": [0.99821701, 0.7513496, 0.21595013], "xyz": [6.14022448617592, 8.7680867891368, 9.72264193764138], "label": "Li", "properties": {}}, {"species": [{"element": "Li", "occu": 1}], "abc": [0.00252648, 0.37307593, 0.24355074000000002], "xyz": [0.015540863564159998, 4.35371514562319, 10.96529387904324], "label": "Li", "properties": {}}, {"species": [{"element": "Li", "occu": 1}], "abc": [0.75001326, 0.55522617, 0.19267064], "xyz": [4.6134755648059205, 6.47936891982111, 8.67453816590064], "label": "Li", "properties": {}}, {"species": [{"element": "Li", "occu": 1}], "abc": [0.25000099, 0.56806285, 0.26719169000000004], "xyz": [1.5378040896800798, 6.629170189861551, 12.029671529177943], "label": "Li", "properties": {}}, {"species": [{"element": "Li", "occu": 1}], "abc": [0.25055858, 0.17521922, 0.20707800999999998], "xyz": [1.5412339328273599, 2.0447702748292604, 9.32319579705426], "label": "Li", "properties": {}}, {"species": [{"element": "Li", "occu": 1}], "abc": [0.75015349, 0.94557754, 0.25252850000000004], "xyz": [4.61433814646008, 11.034684701473822, 11.369496209841003], "label": "Li", "properties": {}}, {"species": [{"element": "Li", "occu": 1}], "abc": [0.4980508, 0.18827866, 0.34410172], "xyz": [3.0636060965536003, 2.19717110573078, 15.49236304551672], "label": "Li", "properties": {}}, {"species": [{"element": "Li", "occu": 1}], "abc": [0.50136798, 0.56824086, 0.31623519], "xyz": [3.08401070763216, 6.63124752793338, 14.23773868740894], "label": "Li", "properties": {}}, {"species": [{"element": "Li", "occu": 1}], "abc": [0.50269553, 0.9555203, 0.37727710000000003], "xyz": [3.09217672257176, 11.1507145530949, 16.9860057716646], "label": "Li", "properties": {}}, {"species": [{"element": "Li", "occu": 1}], "abc": [0.49925592, 0.61593634, 0.38381694], "xyz": [3.07101902105664, 7.18784342961422, 17.28044654208444], "label": "Li", "properties": {}}, {"species": [{"element": "Li", "occu": 1}], "abc": [0.00072054, 0.61592487, 0.38381779], "xyz": [0.0044321798836799995, 7.18770957720321, 17.28048481131654], "label": "Li", "properties": {}}, {"species": [{"element": "Li", "occu": 1}], "abc": [0.99728531, 0.95552984, 0.37727455000000004], "xyz": [6.13449342058952, 11.150825882824721, 16.985890963968302], "label": "Li", "properties": {}}, {"species": [{"element": "Li", "occu": 1}], "abc": [0.9985992, 0.56823507, 0.31623654], "xyz": [6.1425754102464, 6.63117995988981, 14.23779946795404], "label": "Li", "properties": {}}, {"species": [{"element": "Li", "occu": 1}], "abc": [0.00125948, 0.18852066, 0.34406938000000004], "xyz": [0.007747303300160001, 2.1999951932167803, 15.490907013791883], "label": "Li", "properties": {}}, {"species": [{"element": "Li", "occu": 1}], "abc": [0.74988241, 0.37192059, 0.29247887], "xyz": [4.61267068133272, 4.34023257853197, 13.16816677691262], "label": "Li", "properties": {}}, {"species": [{"element": "Li", "occu": 1}], "abc": [0.24996591, 0.38526146, 0.36761900000000003], "xyz": [1.5375883058647202, 4.49591763646318, 16.551172747494004], "label": "Li", "properties": {}}, {"species": [{"element": "Li", "occu": 1}], "abc": [0.24977209, 0.99398781, 0.30758267], "xyz": [1.53639608183128, 11.599622047345232, 13.84817951549142], "label": "Li", "properties": {}}, {"species": [{"element": "Li", "occu": 1}], "abc": [0.74998876, 0.76219371, 0.35317790000000004], "xyz": [4.61332486060192, 8.89463519966493, 15.900996503165404], "label": "Li", "properties": {}}, {"species": [{"element": "Li", "occu": 1}], "abc": [0.48903792, 0.00406652, 0.44551588000000003], "xyz": [3.00816614120064, 0.04745540596516, 20.05829484230088], "label": "Li", "properties": {}}, {"species": [{"element": "Li", "occu": 1}], "abc": [0.50257464, 0.38308184, 0.41664662], "xyz": [3.09143310497088, 4.470481944040721, 18.75852494642412], "label": "Li", "properties": {}}, {"species": [{"element": "Li", "occu": 1}], "abc": [0.49635272, 0.77688256, 0.47933494000000004], "xyz": [3.05316088044224, 9.06605089168448, 21.580917732352443], "label": "Li", "properties": {}}, {"species": [{"element": "Li", "occu": 1}], "abc": [0.49725753, 0.42986891, 0.4826181], "xyz": [3.05872654047576, 5.01647689814653, 21.7287342171306], "label": "Li", "properties": {}}, {"species": [{"element": "Li", "occu": 1}], "abc": [0.0027219, 0.4298707, 0.48261762], "xyz": [0.0167429295048, 5.0164977870581, 21.728712606270122], "label": "Li", "properties": {}}, {"species": [{"element": "Li", "occu": 1}], "abc": [0.00374482, 0.77695279, 0.47933035], "xyz": [0.023035106825439997, 9.06687046054457, 21.580711078499103], "label": "Li", "properties": {}}, {"species": [{"element": "Li", "occu": 1}], "abc": [0.99739718, 0.38308271, 0.41664568], "xyz": [6.13518155443856, 4.47049209675193, 18.758482625155683], "label": "Li", "properties": {}}, {"species": [{"element": "Li", "occu": 1}], "abc": [0.0109317, 0.00403701, 0.44550598], "xyz": [0.0672429855864, 0.047111030668829997, 20.057849118303483], "label": "Li", "properties": {}}, {"species": [{"element": "Li", "occu": 1}], "abc": [0.74998876, 0.18816624, 0.39363214], "xyz": [4.61332486060192, 2.1958591887259202, 17.722352620799644], "label": "Li", "properties": {}}, {"species": [{"element": "Li", "occu": 1}], "abc": [0.24978707, 0.1931185, 0.46891678000000003], "xyz": [1.53648822668744, 2.2536509882855, 21.111864811064283], "label": "Li", "properties": {}}, {"species": [{"element": "Li", "occu": 1}], "abc": [0.24999381, 0.81045826, 0.40875699000000004], "xyz": [1.53775992412152, 9.457872024757581, 18.403313085655743], "label": "Li", "properties": {}}, {"species": [{"element": "Li", "occu": 1}], "abc": [0.74999581, 0.58163578, 0.45231447], "xyz": [4.6133682265055205, 6.787563337635741, 20.364385217198222], "label": "Li", "properties": {}}, {"species": [{"element": "Li", "occu": 1}], "abc": [0.47748517, 0.63154131, 0.55778997], "xyz": [2.93710295782264, 7.369950043235731, 25.11316920586122], "label": "Li", "properties": {}}, {"species": [{"element": "Li", "occu": 1}], "abc": [0.46577149, 0.21747349, 0.5184597], "xyz": [2.86504986311608, 2.53786843655267, 23.3424171691722], "label": "Li", "properties": {}}, {"species": [{"element": "Li", "occu": 1}], "abc": [0.03421699, 0.21746971, 0.51846234], "xyz": [0.21047527515208, 2.5378243247729304, 23.342536028904842], "label": "Li", "properties": {}}, {"species": [{"element": "Li", "occu": 1}], "abc": [0.02250625, 0.63154914, 0.55778966], "xyz": [0.13844026495, 7.37004141763662, 25.11315524884716], "label": "Li", "properties": {}}, {"species": [{"element": "Li", "occu": 1}], "abc": [0.74999096, 0.98243754, 0.48947703], "xyz": [4.6133383932243195, 11.464832902853821, 22.03754125728078], "label": "Li", "properties": {}}, {"species": [{"element": "Li", "occu": 1}], "abc": [0.24999107, 0.62351889, 0.5048424], "xyz": [1.53774306985544, 7.276330142700871, 22.7293305641424], "label": "Li", "properties": {}}, {"species": [{"element": "Li", "occu": 1}], "abc": [0.74999033, 0.39916295, 0.55228177], "xyz": [4.61333451797336, 4.658145008139851, 24.86517557732802], "label": "Li", "properties": {}}, {"species": [{"element": "P", "occu": 1}], "abc": [0.75002149, 0.96658258, 0.05401163], "xyz": [4.6135261891160795, 11.27980896018014, 2.43174541714038], "label": "P", "properties": {}}, {"species": [{"element": "P", "occu": 1}], "abc": [0.74999779, 0.52320566, 0.019548370000000002], "xyz": [4.61338040586568, 6.105696516571781, 0.8801189514196202], "label": "P", "properties": {}}, {"species": [{"element": "P", "occu": 1}], "abc": [0.25002143, 0.32790322, 0.04220877], "xyz": [1.53792982004456, 3.8265594224012602, 1.90034966563002], "label": "P", "properties": {}}, {"species": [{"element": "P", "occu": 1}], "abc": [0.25000243, 0.71248686, 0.10019472], "xyz": [1.53781294739656, 8.314567046551382, 4.51102940573472], "label": "P", "properties": {}}, {"species": [{"element": "P", "occu": 1}], "abc": [0.75003996, 0.78172616, 0.15783260999999998], "xyz": [4.61363980163232, 9.12257465262328, 7.10603857063386], "label": "P", "properties": {}}, {"species": [{"element": "P", "occu": 1}], "abc": [0.75004353, 0.35145166, 0.12006506000000002], "xyz": [4.61366176138776, 4.1013646071897805, 5.405644292047561], "label": "P", "properties": {}}, {"species": [{"element": "P", "occu": 1}], "abc": [0.24999701, 0.13564957, 0.13934681], "xyz": [1.53777960793592, 1.5830010459433101, 6.27375931092306], "label": "P", "properties": {}}, {"species": [{"element": "P", "occu": 1}], "abc": [0.2500583, 0.52564481, 0.20150039], "xyz": [1.5381566144936, 6.13416086777623, 9.07207669782414], "label": "P", "properties": {}}, {"species": [{"element": "P", "occu": 1}], "abc": [0.74998923, 0.59888582, 0.25808010000000003], "xyz": [4.61332775166216, 6.98886756117706, 11.619443820342601], "label": "P", "properties": {}}, {"species": [{"element": "P", "occu": 1}], "abc": [0.75014573, 0.16890751, 0.21926631], "xyz": [4.61429041321016, 1.9711139887703302, 9.87194506953006], "label": "P", "properties": {}}, {"species": [{"element": "P", "occu": 1}], "abc": [0.25004096, 0.95361005, 0.24038407999999997], "xyz": [1.5380499528243199, 11.12842235011915, 10.82272253019408], "label": "P", "properties": {}}, {"species": [{"element": "P", "occu": 1}], "abc": [0.24996667, 0.34170064, 0.30182987], "xyz": [1.53759298077064, 3.9875723197611204, 13.589173352638621], "label": "P", "properties": {}}, {"species": [{"element": "P", "occu": 1}], "abc": [0.7498749, 0.41459391, 0.35845686000000004], "xyz": [4.6126244858808, 4.838220962821531, 16.138669144914363], "label": "P", "properties": {}}, {"species": [{"element": "P", "occu": 1}], "abc": [0.7499464, 0.98591254, 0.31979617000000005], "xyz": [4.6130642961088, 11.50538539877882, 14.398063358142423], "label": "P", "properties": {}}, {"species": [{"element": "P", "occu": 1}], "abc": [0.2499719, 0.77033577, 0.34104611], "xyz": [1.5376251515048, 8.98965127303791, 15.354791459284861], "label": "P", "properties": {}}, {"species": [{"element": "P", "occu": 1}], "abc": [0.24995302, 0.15819276, 0.40226709], "xyz": [1.53750901699984, 1.84607518137108, 18.11112074517834], "label": "P", "properties": {}}, {"species": [{"element": "P", "occu": 1}], "abc": [0.74995587, 0.22714945, 0.46000854], "xyz": [4.6131225478970395, 2.65078479006935, 20.71079245322604], "label": "P", "properties": {}}, {"species": [{"element": "P", "occu": 1}], "abc": [0.74997286, 0.80386128, 0.42091578], "xyz": [4.613227056649119, 9.380886699702241, 18.95073374043828], "label": "P", "properties": {}}, {"species": [{"element": "P", "occu": 1}], "abc": [0.24999145, 0.5877943, 0.44026272], "xyz": [1.5377454073084, 6.859431929636901, 19.82178378430272], "label": "P", "properties": {}}, {"species": [{"element": "P", "occu": 1}], "abc": [0.24998728, 0.97332272, 0.5062365400000001], "xyz": [1.53771975683776, 11.35846493136976, 22.792098407954043], "label": "P", "properties": {}}, {"species": [{"element": "P", "occu": 1}], "abc": [0.75000258, 0.61247295, 0.51832213], "xyz": [4.61340987007536, 7.14742641986985, 23.336223406513383], "label": "P", "properties": {}}, {"species": [{"element": "P", "occu": 1}], "abc": [0.24996924, 0.41646063, 0.54059788], "xyz": [1.53760878933408, 4.860005180143291, 24.33913616763288], "label": "P", "properties": {}}, {"species": [{"element": "O", "occu": 1}], "abc": [0.45630654, 0.67477195, 0.08246514], "xyz": [2.80682913839568, 7.87444223098685, 3.7127971562576403], "label": "O", "properties": {}}, {"species": [{"element": "O", "occu": 1}], "abc": [0.54487624, 0.9993154, 0.07380325], "xyz": [3.35163836847808, 11.6617938665582, 3.3228161223345003], "label": "O", "properties": {}}, {"species": [{"element": "O", "occu": 1}], "abc": [0.54200107, 0.59673727, 0.014607859999999999], "xyz": [3.33395264577544, 6.96379444891241, 0.65768421744036], "label": "O", "properties": {}}, {"species": [{"element": "O", "occu": 1}], "abc": [0.46104864, 0.25594762, 0.044421499999999996], "xyz": [2.8359987059788803, 2.98685318476646, 1.9999725808589999], "label": "O", "properties": {}}, {"species": [{"element": "O", "occu": 1}], "abc": [0.03898339, 0.25594889, 0.04442653], "xyz": [0.23979431670088, 2.98686800539087, 2.00019904466778], "label": "O", "properties": {}}, {"species": [{"element": "O", "occu": 1}], "abc": [0.9580051, 0.5967354, 0.014611149999999998], "xyz": [5.8928733070792, 6.9637726264182005, 0.6578323418798999], "label": "O", "properties": {}}, {"species": [{"element": "O", "occu": 1}], "abc": [0.95514583, 0.99930518, 0.07380773], "xyz": [5.87528538832936, 11.66167460137594, 3.3230178236989802], "label": "O", "properties": {}}, {"species": [{"element": "O", "occu": 1}], "abc": [0.04364758, 0.67475042, 0.08247503], "xyz": [0.26848464491536, 7.87419098055886, 3.7132424300287803], "label": "O", "properties": {}}, {"species": [{"element": "O", "occu": 1}], "abc": [0.75001199, 0.83016592, 0.05206357999999999], "xyz": [4.613467752792079, 9.687856140395361, 2.34403909056108], "label": "O", "properties": {}}, {"species": [{"element": "O", "occu": 1}], "abc": [0.25003238, 0.4250403, 0.06559319000000001], "xyz": [1.53799717559696, 4.9601280672549, 2.9531776615169405], "label": "O", "properties": {}}, {"species": [{"element": "O", "occu": 1}], "abc": [0.75000953, 0.41221105, 9.99999999999994e-05], "xyz": [4.613452620859761, 4.810413503702151, 0.004502262599999973], "label": "O", "properties": {}}, {"species": [{"element": "O", "occu": 1}], "abc": [0.7500735, 0.02396278, 0.024240789999999998], "xyz": [4.613846112611999, 0.27964044267674, 1.0913840221145399], "label": "O", "properties": {}}, {"species": [{"element": "O", "occu": 1}], "abc": [0.7499766, 0.48324017, 0.053005199999999995], "xyz": [4.6132500621072, 5.639307920783111, 2.3864332956552], "label": "O", "properties": {}}, {"species": [{"element": "O", "occu": 1}], "abc": [0.25000487, 0.37670934, 0.009440099999999998], "xyz": [1.5378279563050399, 4.39611625187322, 0.42501809170259996], "label": "O", "properties": {}}, {"species": [{"element": "O", "occu": 1}], "abc": [0.45688799, 0.48671134, 0.18418495999999998], "xyz": [2.81040574898408, 5.67981572143922, 8.29249056890496], "label": "O", "properties": {}}, {"species": [{"element": "O", "occu": 1}], "abc": [0.54299986, 0.82014443, 0.17515981], "xyz": [3.34009639483312, 9.570907526758692, 7.88615461586106], "label": "O", "properties": {}}, {"species": [{"element": "O", "occu": 1}], "abc": [0.54326286, 0.42808552, 0.11666714000000002], "xyz": [3.34171415832912, 4.99566512384216, 5.252661010709641], "label": "O", "properties": {}}, {"species": [{"element": "O", "occu": 1}], "abc": [0.45714287, 0.05967006, 0.14300832], "xyz": [2.8119735648010398, 0.69633665179698, 6.43861010624832], "label": "O", "properties": {}}, {"species": [{"element": "O", "occu": 1}], "abc": [0.04288492, 0.05966959, 0.14302408], "xyz": [0.26379337682464, 0.69633116699897, 6.43931966283408], "label": "O", "properties": {}}, {"species": [{"element": "O", "occu": 1}], "abc": [0.95678814, 0.42809853, 0.11665856000000001], "xyz": [5.8853875524628805, 4.99581694771899, 5.252274716578561], "label": "O", "properties": {}}, {"species": [{"element": "O", "occu": 1}], "abc": [0.95703482, 0.82007412, 0.17517893999999998], "xyz": [5.88690492850544, 9.57008702431596, 7.88701589869644], "label": "O", "properties": {}}, {"species": [{"element": "O", "occu": 1}], "abc": [0.04320679, 0.48682702, 0.18417129999999998], "xyz": [0.26577326099368004, 5.68116568193666, 8.2918755598338], "label": "O", "properties": {}}, {"species": [{"element": "O", "occu": 1}], "abc": [0.74996231, 0.64919048, 0.15432983], "xyz": [4.61316216157352, 7.575912027265841, 6.94833421673358], "label": "O", "properties": {}}, {"species": [{"element": "O", "occu": 1}], "abc": [0.24999889, 0.84460102, 0.10398731], "xyz": [1.53779117217688, 9.856310624978661, 4.68178176687606], "label": "O", "properties": {}}, {"species": [{"element": "O", "occu": 1}], "abc": [0.25007789, 0.23130984, 0.16348569], "xyz": [1.53827711634488, 2.69933563856472, 7.36055507722194], "label": "O", "properties": {}}, {"species": [{"element": "O", "occu": 1}], "abc": [0.75003291, 0.25584034, 0.09608481], "xyz": [4.61359643572872, 2.98560125044622, 4.325990464911061], "label": "O", "properties": {}}, {"species": [{"element": "O", "occu": 1}], "abc": [0.2500747, 0.65269618, 0.13121069999999999], "xyz": [1.5382574940423999, 7.61682278552894, 5.9074502732982], "label": "O", "properties": {}}, {"species": [{"element": "O", "occu": 1}], "abc": [0.75005351, 0.83959321, 0.12660032999999998], "xyz": [4.61372315028392, 9.79787056897343, 5.69987930906658], "label": "O", "properties": {}}, {"species": [{"element": "O", "occu": 1}], "abc": [0.75007818, 0.29546551, 0.15148244], "xyz": [4.61387490019056, 3.44801838568433, 6.820137241687441], "label": "O", "properties": {}}, {"species": [{"element": "O", "occu": 1}], "abc": [0.24998561, 0.18999503, 0.10762784], "xyz": [1.53770948434712, 2.21720077117849, 4.845687987507841], "label": "O", "properties": {}}, {"species": [{"element": "O", "occu": 1}], "abc": [0.45683094, 0.30348202, 0.28438475], "xyz": [2.8100548234804803, 3.5415693178016605, 12.803748239353501], "label": "O", "properties": {}}, {"species": [{"element": "O", "occu": 1}], "abc": [0.54302887, 0.63708869, 0.27549744000000004], "xyz": [3.34027484091304, 7.434686764054271, 12.403618205077443], "label": "O", "properties": {}}, {"species": [{"element": "O", "occu": 1}], "abc": [0.54270968, 0.24502298, 0.21599401999999998], "xyz": [3.33831144193856, 2.85936500661334, 9.72461798069652], "label": "O", "properties": {}}, {"species": [{"element": "O", "occu": 1}], "abc": [0.45704811, 0.87752752, 0.2438115], "xyz": [2.81139067784712, 10.240555734928162, 10.977033978999], "label": "O", "properties": {}}, {"species": [{"element": "O", "occu": 1}], "abc": [0.0430296, 0.87751256, 0.24381071], "xyz": [0.2646833312832, 10.24038115497448, 10.97699841112446], "label": "O", "properties": {}}, {"species": [{"element": "O", "occu": 1}], "abc": [0.95773008, 0.24491104, 0.21600835999999998], "xyz": [5.89118160625536, 2.85805869110432, 9.72526360515336], "label": "O", "properties": {}}, {"species": [{"element": "O", "occu": 1}], "abc": [0.95696338, 0.63708899, 0.27549609], "xyz": [5.886465487348961, 7.43469026498917, 12.403557424532341], "label": "O", "properties": {}}, {"species": [{"element": "O", "occu": 1}], "abc": [0.04308598, 0.30348518, 0.28438698], "xyz": [0.26503013548816, 3.5416061943159405, 12.80384863980948], "label": "O", "properties": {}}, {"species": [{"element": "O", "occu": 1}], "abc": [0.74998205, 0.46635593, 0.25446135000000003], "xyz": [4.6132835861035995, 5.44227250386319, 11.456518192505103], "label": "O", "properties": {}}, {"species": [{"element": "O", "occu": 1}], "abc": [0.25025288, 0.65826585, 0.20473016], "xyz": [1.5393535134329601, 7.681819625810551, 9.21748942460016], "label": "O", "properties": {}}, {"species": [{"element": "O", "occu": 1}], "abc": [0.24998888, 0.04848833, 0.26464741], "xyz": [1.53772959874496, 0.56584828913239, 11.915121362298661], "label": "O", "properties": {}}, {"species": [{"element": "O", "occu": 1}], "abc": [0.75000415, 0.07449972, 0.19489768999999998], "xyz": [4.6134195274467995, 0.8693955659607601, 8.77480580513394], "label": "O", "properties": {}}, {"species": [{"element": "O", "occu": 1}], "abc": [0.24996092, 0.46806473, 0.23279270999999999], "xyz": [1.53755761141664, 5.46221382905359, 10.48093911785646], "label": "O", "properties": {}}, {"species": [{"element": "O", "occu": 1}], "abc": [0.75004991, 0.6570032, 0.22686001], "xyz": [4.61370100599272, 7.667084774305601, 10.21383338458626], "label": "O", "properties": {}}, {"species": [{"element": "O", "occu": 1}], "abc": [0.75003723, 0.11258346, 0.25072309000000004], "xyz": [4.61362300887816, 1.31382454758918, 11.288211910634342], "label": "O", "properties": {}}, {"species": [{"element": "O", "occu": 1}], "abc": [0.25004189, 0.00928614, 0.20884482999999998], "xyz": [1.5380556734328799, 0.10836723870762001, 9.40274267312358], "label": "O", "properties": {}}, {"species": [{"element": "O", "occu": 1}], "abc": [0.45707335, 0.11971006, 0.38495733000000004], "xyz": [2.8115459339332, 1.39699042311698, 17.33178989454858], "label": "O", "properties": {}}, {"species": [{"element": "O", "occu": 1}], "abc": [0.54328484, 0.45306008, 0.37591491], "xyz": [3.34184936152928, 5.2871128195626405, 16.92467640075366], "label": "O", "properties": {}}, {"species": [{"element": "O", "occu": 1}], "abc": [0.54300399, 0.06210793, 0.31640065], "xyz": [3.34012179925608, 0.72478606567919, 14.2451881311069], "label": "O", "properties": {}}, {"species": [{"element": "O", "occu": 1}], "abc": [0.45734185, 0.69419802, 0.34422693000000004], "xyz": [2.8131975289852, 8.10114025242966, 15.498000328518183], "label": "O", "properties": {}}, {"species": [{"element": "O", "occu": 1}], "abc": [0.04261087, 0.69418823, 0.34423313], "xyz": [0.26210764265704, 8.10102600525409, 15.49827946879938], "label": "O", "properties": {}}, {"species": [{"element": "O", "occu": 1}], "abc": [0.95686975, 0.06212435, 0.31640478], "xyz": [5.885889551242, 0.7249776835160501, 14.24537407455228], "label": "O", "properties": {}}, {"species": [{"element": "O", "occu": 1}], "abc": [0.956479, 0.45302295, 0.37591723], "xyz": [5.883485972968, 5.28667952051985, 16.92478085324598], "label": "O", "properties": {}}, {"species": [{"element": "O", "occu": 1}], "abc": [0.04287228, 0.11973216, 0.38494608], "xyz": [0.26371562575776, 1.3972483253212802, 17.33128339000608], "label": "O", "properties": {}}, {"species": [{"element": "O", "occu": 1}], "abc": [0.74983642, 0.28197548, 0.35514346], "xyz": [4.61238778801264, 3.29059266292084, 15.989491175925961], "label": "O", "properties": {}}, {"species": [{"element": "O", "occu": 1}], "abc": [0.24997764, 0.47428433, 0.30540234], "xyz": [1.53766045934688, 5.53479521140039, 13.750015333344841], "label": "O", "properties": {}}, {"species": [{"element": "O", "occu": 1}], "abc": [0.24997612, 0.86441819, 0.36546864], "xyz": [1.53765110953504, 10.087572698552771, 16.45435789344864], "label": "O", "properties": {}}, {"species": [{"element": "O", "occu": 1}], "abc": [0.74999102, 0.89137614, 0.29545238], "xyz": [4.6133387622958395, 10.40216612517762, 13.30204200554988], "label": "O", "properties": {}}, {"species": [{"element": "O", "occu": 1}], "abc": [0.24993839, 0.28354027, 0.33306071000000004], "xyz": [1.5374190250608801, 3.30885342266141, 14.995267781624463], "label": "O", "properties": {}}, {"species": [{"element": "O", "occu": 1}], "abc": [0.74991321, 0.47252332, 0.32720715], "xyz": [4.61286013804632, 5.5142446068395605, 14.7317251389759], "label": "O", "properties": {}}, {"species": [{"element": "O", "occu": 1}], "abc": [0.74996708, 0.92925017, 0.35121785], "xyz": [4.61319150275936, 10.84414783661311, 15.812749905074101], "label": "O", "properties": {}}, {"species": [{"element": "O", "occu": 1}], "abc": [0.2499392, 0.82700605, 0.30962982], "xyz": [1.5374240075264, 9.65098114318715, 13.94034758430732], "label": "O", "properties": {}}, {"species": [{"element": "O", "occu": 1}], "abc": [0.45498679, 0.94056201, 0.48640754], "xyz": [2.7987111027536797, 10.97615455474383, 21.899344757000044], "label": "O", "properties": {}}, {"species": [{"element": "O", "occu": 1}], "abc": [0.54379802, 0.26466601, 0.47778794], "xyz": [3.34500603023984, 3.0885949041758303, 21.51126772993044], "label": "O", "properties": {}}, {"species": [{"element": "O", "occu": 1}], "abc": [0.54269524, 0.8796494, 0.41718172000000003], "xyz": [3.33822261872608, 10.265317614080201, 18.78261655359672], "label": "O", "properties": {}}, {"species": [{"element": "O", "occu": 1}], "abc": [0.45697411, 0.51143966, 0.44366714], "xyz": [2.81093548963912, 5.9683898497937795, 19.97505971270964], "label": "O", "properties": {}}, {"species": [{"element": "O", "occu": 1}], "abc": [0.04299812, 0.51144441, 0.44366474], "xyz": [0.26448969175904, 5.96844528126303, 19.974951658407242], "label": "O", "properties": {}}, {"species": [{"element": "O", "occu": 1}], "abc": [0.95725853, 0.8796364, 0.41717383], "xyz": [5.88828101166776, 10.265165906901201, 18.78226132507758], "label": "O", "properties": {}}, {"species": [{"element": "O", "occu": 1}], "abc": [0.95610192, 0.26467756, 0.47779152], "xyz": [5.88116648148864, 3.08872969016948, 21.51142891093152], "label": "O", "properties": {}}, {"species": [{"element": "O", "occu": 1}], "abc": [0.04499165, 0.94058844, 0.48640239], "xyz": [0.2767522775468, 10.97646298710852, 21.899112890476143], "label": "O", "properties": {}}, {"species": [{"element": "O", "occu": 1}], "abc": [0.74998063, 0.09512084, 0.4560262], "xyz": [4.61327485141096, 1.11003956157772, 20.5314970488012], "label": "O", "properties": {}}, {"species": [{"element": "O", "occu": 1}], "abc": [0.24997687, 0.29080957, 0.40573107], "xyz": [1.53765572292904, 3.3936845762233103, 18.267078221189823], "label": "O", "properties": {}}, {"species": [{"element": "O", "occu": 1}], "abc": [0.24999873, 0.6835643, 0.46421407000000003], "xyz": [1.53779018798616, 7.9770470475469, 20.900136457547823], "label": "O", "properties": {}}, {"species": [{"element": "O", "occu": 1}], "abc": [0.74995208, 0.70784005, 0.39684871], "xyz": [4.6130992348793605, 8.26033978220915, 17.86717104891246], "label": "O", "properties": {}}, {"species": [{"element": "O", "occu": 1}], "abc": [0.24990529, 0.10073289, 0.43356035000000004], "xyz": [1.53721542060568, 1.1755309672628702, 19.520025486479103], "label": "O", "properties": {}}, {"species": [{"element": "O", "occu": 1}], "abc": [0.74997991, 0.28761869, 0.42907675], "xyz": [4.61327042255272, 3.35644769904427, 19.318162040545502], "label": "O", "properties": {}}, {"species": [{"element": "O", "occu": 1}], "abc": [0.74999504, 0.75010303, 0.45271465], "xyz": [4.613363490087679, 8.753539587742491, 20.3824023716709], "label": "O", "properties": {}}, {"species": [{"element": "O", "occu": 1}], "abc": [0.24998901, 0.64348024, 0.40879958], "xyz": [1.53773039839992, 7.509274765587921, 18.40523059929708], "label": "O", "properties": {}}, {"species": [{"element": "O", "occu": 1}], "abc": [0.53884064, 0.6843933, 0.51611079], "xyz": [3.31451223404288, 7.9867212976539, 23.236663072734544], "label": "O", "properties": {}}, {"species": [{"element": "O", "occu": 1}], "abc": [0.45805861, 0.34291037, 0.545459], "xyz": [2.81760645736312, 4.001689606349711, 24.557996555334004], "label": "O", "properties": {}}, {"species": [{"element": "O", "occu": 1}], "abc": [0.04188378, 0.34290553, 0.54545709], "xyz": [0.25763517246576, 4.001633124599991, 24.55791056211834], "label": "O", "properties": {}}, {"species": [{"element": "O", "occu": 1}], "abc": [0.96113589, 0.6844111, 0.51610835], "xyz": [5.91213139748088, 7.986929019791301, 23.2365532175271], "label": "O", "properties": {}}, {"species": [{"element": "O", "occu": 1}], "abc": [0.24999309, 0.10974949, 0.50821191], "xyz": [1.53775549526328, 1.28075273266067, 22.88103475267566], "label": "O", "properties": {}}, {"species": [{"element": "O", "occu": 1}], "abc": [0.24997486, 0.52701775, 0.56021088], "xyz": [1.53764335903312, 6.15018277964825, 25.22216493137088], "label": "O", "properties": {}}, {"species": [{"element": "O", "occu": 1}], "abc": [0.74999131, 0.51577547, 0.4947893], "xyz": [4.61334054614152, 6.018987811623011, 22.2767136027018], "label": "O", "properties": {}}, {"species": [{"element": "O", "occu": 1}], "abc": [0.24996356, 0.91596808, 0.53601219], "xyz": [1.53757385056352, 10.68914872852664, 24.13267636181094], "label": "O", "properties": {}}, {"species": [{"element": "O", "occu": 1}], "abc": [0.75000565, 0.56311639, 0.55102624], "xyz": [4.6134287542348, 6.5714460750433705, 24.80864831970624], "label": "O", "properties": {}}, {"species": [{"element": "O", "occu": 1}], "abc": [0.24997601, 0.4570221, 0.50719943], "xyz": [1.53765043290392, 5.3333487332043, 22.835450244303182], "label": "O", "properties": {}}]}, "formula": "(Li3PO4)22.0", "bandgap": 3.8419, "slab_thickness": 25.21766266877088}