{"miller": "101_0.33", "final_energy": -895.63808579, "gamma": 0.07230630165800449, "work_function": "Not calculated", "ionization_potentail": "Not calculated", "electron_affinity": "Not calculated", "is_stochiometric": true, "incar_parameters": {"SYSTEM": "unknown system", "LCOMPAT": false, "PREC": "normal", "ENMAX": 520.0, "ENAUG": 628.945, "EDIFF": 1e-05, "IALGO": 38, "IWAVPR": 11, "NBANDS": 416, "NBANDSLOW": -1, "NBANDSHIGH": -1, "NELECT": 684.0, "TURBO": 0, "IRESTART": 0, "NREBOOT": 0, "NMIN": 0, "EREF": 0.0, "ISMEAR": 0, "SIGMA": 0.05, "KSPACING": 0.5, "KGAMMA": true, "KBLOWUP": true, "LREAL": true, "ROPT": [-0.0005, -0.0005, -0.0005], "LMAXPAW": -100, "LMAXMIX": 2, "NLSPLINE": false, "ISTART": 0, "ICHARG": 2, "INIWAV": 1, "ISPIN": 1, "LNONCOLLINEAR": false, "MAGMOM": [0.6, 0.6, 0.6, 0.6, 0.6, 0.6, 0.6, 0.6, 0.6, 0.6, 0.6, 0.6, 0.6, 0.6, 0.6, 0.6, 0.6, 0.6, 0.6, 0.6, 0.6, 0.6, 0.6, 0.6, 0.6, 0.6, 0.6, 0.6, 0.6, 0.6, 0.6, 0.6, 0.6, 0.6, 0.6, 0.6, 0.6, 0.6, 0.6, 0.6, 0.6, 0.6, 0.6, 0.6, 0.6, 0.6, 0.6, 0.6, 0.6, 0.6, 0.6, 0.6, 0.6, 0.6, 0.6, 0.6, 0.6, 0.6, 0.6, 0.6, 0.6, 0.6, 0.6, 0.6, 0.6, 0.6, 0.6, 0.6, 0.6, 0.6, 0.6, 0.6, 0.6, 0.6, 0.6, 0.6, 0.6, 0.6, 0.6, 0.6, 0.6, 0.6, 0.6, 0.6, 0.6, 0.6, 0.6, 0.6, 0.6, 0.6, 0.6, 0.6, 0.6, 0.6, 0.6, 0.6, 0.6, 0.6, 0.6, 0.6, 0.6, 0.6, 0.6, 0.6, 0.6, 0.6, 0.6, 0.6, 0.6, 0.6, 0.6, 0.6, 0.6, 0.6, 0.6, 0.6, 0.6, 0.6, 0.6, 0.6, 0.6, 0.6, 0.6, 0.6, 0.6, 0.6, 0.6, 0.6, 0.6, 0.6, 0.6, 0.6, 0.6, 0.6, 0.6, 0.6, 0.6, 0.6, 0.6, 0.6, 0.6, 0.6, 0.6, 0.6], "NUPDOWN": -1.0, "LSORBIT": false, "SAXIS": [0.0, 0.0, 1.0], "LSPIRAL": false, "QSPIRAL": [0.0, 0.0, 0.0], "LZEROZ": false, "LASPH": false, "LMETAGGA": false, "NELM": 100, "NELMDL": -5, "NELMIN": 6, "ENINI": 520.0, "LDIAG": true, "LSUBROT": false, "WEIMIN": 0.001, "EBREAK": 1e-08, "DEPER": 0.3, "NRMM": 4, "TIME": 0.4, "AMIX": 0.4, "BMIX": 1.0, "AMIN": 0.1, "AMIX_MAG": 1.6, "BMIX_MAG": 1.0, "IMIX": 4, "MIXFIRST": false, "MAXMIX": -45, "WC": 100.0, "INIMIX": 1, "MIXPRE": 1, "MREMOVE": 5, "LDIPOL": false, "LMONO": false, "IDIPOL": 0, "EPSILON": 1.0, "DIPOL": [-100.0, -100.0, -100.0], "EFIELD": 0.0, "NGX": 36, "NGY": 70, "NGZ": 252, "NGXF": 72, "NGYF": 140, "NGZF": 504, "ADDGRID": false, "NSW": 150, "IBRION": 2, "MDALGO": 0, "ISIF": 2, "PSTRESS": 0.0, "EDIFFG": -0.01, "NFREE": 1, "POTIM": 0.5, "SMASS": -3.0, "SCALEE": 1.0, "TEBEG": 0.0001, "TEEND": 0.0001, "NBLOCK": 1, "KBLOCK": 150, "NPACO": 256, "APACO": 10.0, "ISYM": 0, "SYMPREC": 1e-05, "LORBIT": 11, "RWIGS": [-1.0, -1.0, -1.0], "NEDOS": 301, "EMIN": 10.0, "EMAX": -10.0, "EFERMI": 0.0, "NWRITE": 2, "LWAVE": false, "LDOWNSAMPLE": false, "LCHARG": false, "LPARD": false, "LVTOT": false, "LVHAR": false, "LELF": false, "LOPTICS": false, "STM": [0.0, 0.0, 0.0, 0.0, 0.0, 0.0, 0.0], "NPAR": 2, "NSIM": 4, "NBLK": -1, "LPLANE": true, "LSCALAPACK": true, "LSCAAWARE": false, "LSCALU": false, "LASYNC": false, "LORBITALREAL": false, "IDIOT": 3, "PHON_NSTRUCT": -1, "LMUSIC": false, "POMASS": [7.01, 30.974, 16.0], "DARWINR": [0.0, 0.0, 0.0], "DARWINV": [1.0, 1.0, 1.0], "LCORR": true, "GGA_COMPAT": true, "LBERRY": false, "ICORELEVEL": 0, "LDAU": false, "I_CONSTRAINED_M": 0, "GGA": "--", "VOSKOWN": 0, "LHFCALC": false, "PRECFOCK": "", "LSYMGRAD": false, "LHFONE": false, "LRHFCALC": false, "LTHOMAS": false, "LMODELHF": false, "LFOCKACE": false, "ENCUT4O": -1.0, "EXXOEP": 0, "FOURORBIT": 0, "AEXX": 0.0, "HFALPHA": 0.0, "MCALPHA": 0.0, "ALDAX": 1.0, "AGGAX": 1.0, "ALDAC": 1.0, "AGGAC": 1.0, "NKREDX": 1, "NKREDY": 1, "NKREDZ": 1, "SHIFTRED": false, "ODDONLY": false, "EVENONLY": false, "LMAXFOCK": 0, "NMAXFOCKAE": 0, "LFOCKAEDFT": false, "HFSCREEN": 0.0, "HFSCREENC": 0.0, "NBANDSGWLOW": 0, "LUSE_VDW": false, "Zab_VDW": -0.8491, "PARAM1": 0.1234, "PARAM2": 1.0, "PARAM3": 0.0, "MODEL_GW": 0, "MODEL_EPS0": 13.46609407, "MODEL_ALPHA": 1.0, "LEPSILON": false, "LRPA": false, "LNABLA": false, "LVEL": false, "CSHIFT": 0.1, "OMEGAMAX": -1.0, "DEG_THRESHOLD": 0.002, "RTIME": -0.1, "WPLASMAI": 0.0, "DFIELD": [0.0, 0.0, 0.0], "WPLASMA": [0.0, 0.0, 0.0, 0.0, 0.0, 0.0, 0.0, 0.0, 0.0], "NUCIND": false, "MAGPOS": [0.0, 0.0, 0.0], "LNICSALL": true, "ORBITALMAG": false, "LMAGBLOCH": false, "LCHIMAG": false, "LGAUGE": true, "MAGATOM": 0, "MAGDIPOL": [0.0, 0.0, 0.0], "AVECCONST": [0.0, 0.0, 0.0], "LFINITE_TEMPERATURE": false, "LADDER": false, "LRPAFORCE": false, "LFXC": false, "LHARTREE": true, "IBSE": 0, "KPOINT": [-1, 0, 0, 0], "LTCTC": false, "LTCTE": false, "LTETE": false, "LTRIPLET": false, "LFXCEPS": false, "LFXHEG": false, "NATURALO": 2, "LHOLEGF": false, "L2ORDER": false, "LDMP1": false, "LMP2LT": false, "LSMP2LT": false, "LGWLF": false, "ENCUTGW": -2.0, "ENCUTGWSOFT": -2.0, "ENCUTLF": -1.0, "LESF_SPLINES": false, "LMAXMP2": -1, "SCISSOR": 0.0, "NOMEGA": 0, "NOMEGAR": 0, "NBANDSGW": -1, "NBANDSO": -1, "NBANDSV": -1, "NELMGW": 1, "NELMHF": 1, "DIM": 3, "IESPILON": 4, "ANTIRES": 0, "OMEGAMIN": -30.0, "OMEGATL": -200.0, "OMEGAGRID": 0, "LSELFENERGY": false, "LSPECTRAL": false, "LSPECTRALGW": false, "LSINGLES": false, "LFERMIGW": false, "ODDONLYGW": false, "EVENONLYGW": false, "NKREDLFX": 1, "NKREDLFY": 1, "NKREDLFZ": 1, "MAXMEM": 2800, "TELESCOPE": 0, "NTAUPAR": -1, "NOMEGAPAR": -1, "DAMP_NEWTON": 0.80000001, "LAMBDA": 1.0, "OFIELD_KAPPA": 0.0, "OFIELD_K": [0.0, 0.0, 0.0], "OFIELD_Q6_NEAR": 0.0, "OFIELD_Q6_FAR": 0.0, "OFIELD_A": 0.0, "KPOINTS_OPT_MODE": 1, "LKPOINTS_OPT": false, "@module": "pymatgen.io.vasp.inputs", "@class": "Incar"}, "relaxed_structures": {"@module": "pymatgen.core.structure", "@class": "Structure", "charge": 0, "lattice": {"matrix": [[6.151192, 0.0, 0.0], [0.0, 11.669783, 0.0], [0.0, 0.0, 45.022626]], "a": 6.151192, "b": 11.669783, "c": 45.022626, "alpha": 90.0, "beta": 90.0, "gamma": 90.0, "volume": 3231.86257628388}, "sites": [{"species": [{"element": "Li", "occu": 1}], "abc": [0.50945389, 0.57036294, 0.040985930000000004], "xyz": [3.1337486925368796, 6.65601174104202, 1.8452941976521802], "label": "Li", "properties": {}}, {"species": [{"element": "Li", "occu": 1}], "abc": [0.52968975, 0.20076016, 0.035227419999999995], "xyz": [3.2582233526819997, 2.3428275022452802, 1.58603095560492], "label": "Li", "properties": {}}, {"species": [{"element": "Li", "occu": 1}], "abc": [0.97027172, 0.20076273, 0.035223660000000004], "xyz": [5.96832764189024, 2.3428574935875903, 1.5858616705311603], "label": "Li", "properties": {}}, {"species": [{"element": "Li", "occu": 1}], "abc": [0.99050412, 0.57035385, 0.04099245], "xyz": [6.09278101891104, 6.655905662714551, 1.8455877451737002], "label": "Li", "properties": {}}, {"species": [{"element": "Li", "occu": 1}], "abc": [0.74999841, 0.8116503, 0.03311314], "xyz": [4.61338421960472, 9.471782872884901, 1.49084051790564], "label": "Li", "properties": {}}, {"species": [{"element": "Li", "occu": 1}], "abc": [0.24998345, 0.98113308, 0.02883455], "xyz": [1.5376961977724, 11.44961013772164, 1.2982071605283], "label": "Li", "properties": {}}, {"species": [{"element": "Li", "occu": 1}], "abc": [0.25000203, 0.38896723, 0.07904065], "xyz": [1.53781048691976, 4.539163168211091, 3.5586176237469003], "label": "Li", "properties": {}}, {"species": [{"element": "Li", "occu": 1}], "abc": [0.50004053, 0.60191029, 0.10253409000000001], "xyz": [3.0758453078117602, 7.02416246976707, 4.61635398632034], "label": "Li", "properties": {}}, {"species": [{"element": "Li", "occu": 1}], "abc": [0.5067544, 0.97457226, 0.0745658], "xyz": [3.1171436112448, 11.373046792019581, 3.3571481257908005], "label": "Li", "properties": {}}, {"species": [{"element": "Li", "occu": 1}], "abc": [0.50664434, 0.36553476, 0.13391034000000002], "xyz": [3.1164666110532804, 4.265711328157081, 6.028995155352841], "label": "Li", "properties": {}}, {"species": [{"element": "Li", "occu": 1}], "abc": [0.49653656, 0.02645331, 0.14010161999999998], "xyz": [3.05429171557952, 0.30870438733173, 6.30774283925412], "label": "Li", "properties": {}}, {"species": [{"element": "Li", "occu": 1}], "abc": [0.00360872, 0.02649464, 0.14009555], "xyz": [0.022197929594240003, 0.30918669946312, 6.307469551914301], "label": "Li", "properties": {}}, {"species": [{"element": "Li", "occu": 1}], "abc": [0.99334307, 0.36551453, 0.13391071999999998], "xyz": [6.11024394543944, 4.26547524844699, 6.02901226395072], "label": "Li", "properties": {}}, {"species": [{"element": "Li", "occu": 1}], "abc": [0.99323129, 0.97457145, 0.07456439], "xyz": [6.10955636519768, 11.373037339495351, 3.35708464388814], "label": "Li", "properties": {}}, {"species": [{"element": "Li", "occu": 1}], "abc": [0.99997228, 0.6016999, 0.10256839999999999], "xyz": [6.151021488957761, 7.0217072641217, 4.6178987126184], "label": "Li", "properties": {}}, {"species": [{"element": "Li", "occu": 1}], "abc": [0.74999594, 0.59972804, 0.15059327], "xyz": [4.6133690261604805, 6.998696085815321, 6.780104473327021], "label": "Li", "properties": {}}, {"species": [{"element": "Li", "occu": 1}], "abc": [0.24998211, 0.79723726, 0.12261292], "xyz": [1.5376879551751201, 9.30358582371458, 5.52035563992792], "label": "Li", "properties": {}}, {"species": [{"element": "Li", "occu": 1}], "abc": [0.25000214, 0.22120844, 0.16474819000000002], "xyz": [1.53781116355088, 2.58145449256852, 7.4173961425469415], "label": "Li", "properties": {}}, {"species": [{"element": "Li", "occu": 1}], "abc": [0.74999415, 0.1717848, 0.10761157], "xyz": [4.6133580155268, 2.0046913386983998, 4.84495546938282], "label": "Li", "properties": {}}, {"species": [{"element": "Li", "occu": 1}], "abc": [0.49913241, 0.41683745, 0.20074303999999998], "xyz": [3.0702592873327204, 4.86440258777335, 9.03797881202304], "label": "Li", "properties": {}}, {"species": [{"element": "Li", "occu": 1}], "abc": [0.50121257, 0.79568211, 0.17300105999999998], "xyz": [3.0830547508834396, 9.28543756068213, 7.78896202198356], "label": "Li", "properties": {}}, {"species": [{"element": "Li", "occu": 1}], "abc": [0.50245891, 0.18430228, 0.23410553], "xyz": [3.09072122752072, 2.15076761400524, 10.54004572172178], "label": "Li", "properties": {}}, {"species": [{"element": "Li", "occu": 1}], "abc": [0.49729728, 0.84475853, 0.24071028], "xyz": [3.05897105035776, 9.858148732498991, 10.837408910795281], "label": "Li", "properties": {}}, {"species": [{"element": "Li", "occu": 1}], "abc": [0.00269016, 0.84474651, 0.24071212000000003], "xyz": [0.01654769067072, 9.85800846170733, 10.837491752427121], "label": "Li", "properties": {}}, {"species": [{"element": "Li", "occu": 1}], "abc": [0.99753092, 0.18430504, 0.23410574], "xyz": [6.13600421485664, 2.15079982260632, 10.54005517647324], "label": "Li", "properties": {}}, {"species": [{"element": "Li", "occu": 1}], "abc": [0.99878047, 0.79568373, 0.17299944], "xyz": [6.14369043682024, 9.285456465730592, 7.788889085329441], "label": "Li", "properties": {}}, {"species": [{"element": "Li", "occu": 1}], "abc": [0.00088072, 0.41684651, 0.20074171000000002], "xyz": [0.00541747781824, 4.86450831600733, 9.037918931930461], "label": "Li", "properties": {}}, {"species": [{"element": "Li", "occu": 1}], "abc": [0.74998347, 0.41547547, 0.24992607], "xyz": [4.61329232079624, 4.8485085767230105, 11.25232797725982], "label": "Li", "properties": {}}, {"species": [{"element": "Li", "occu": 1}], "abc": [0.24999771, 0.61119972, 0.2246264], "xyz": [1.53778391377032, 7.132568102060761, 10.113270396926401], "label": "Li", "properties": {}}, {"species": [{"element": "Li", "occu": 1}], "abc": [0.24999208, 0.03872366, 0.26533153000000004], "xyz": [1.53774928255936, 0.45189670916578, 11.945922241197783], "label": "Li", "properties": {}}, {"species": [{"element": "Li", "occu": 1}], "abc": [0.74999712, 0.99007294, 0.20926484], "xyz": [4.61337628456704, 11.55393636397202, 9.421652626269841], "label": "Li", "properties": {}}, {"species": [{"element": "Li", "occu": 1}], "abc": [0.49896871, 0.23259689, 0.30213456], "xyz": [3.06925233720232, 2.7143552327748703, 13.60289129655456], "label": "Li", "properties": {}}, {"species": [{"element": "Li", "occu": 1}], "abc": [0.5013479, 0.61232253, 0.27363084], "xyz": [3.0838871916967996, 7.145671051110991, 12.31957897138584], "label": "Li", "properties": {}}, {"species": [{"element": "Li", "occu": 1}], "abc": [0.50469733, 0.00013968, 0.33464545], "xyz": [3.10449017871736, 0.00163003528944, 15.066616937951702], "label": "Li", "properties": {}}, {"species": [{"element": "Li", "occu": 1}], "abc": [0.4940397, 0.66089074, 0.34075964000000003], "xyz": [3.0389330503224, 7.712451522509421, 15.341893827614642], "label": "Li", "properties": {}}, {"species": [{"element": "Li", "occu": 1}], "abc": [0.00598021, 0.66094367, 0.34079307000000003], "xyz": [0.03678541991032, 7.71306920412361, 15.343398934001822], "label": "Li", "properties": {}}, {"species": [{"element": "Li", "occu": 1}], "abc": [0.99528676, 0.00013937, 0.33464508000000004], "xyz": [6.12219995581792, 0.00162641765671, 15.066600279580083], "label": "Li", "properties": {}}, {"species": [{"element": "Li", "occu": 1}], "abc": [0.99897137, 0.61192744, 0.27363542], "xyz": [6.1448646993730405, 7.14106043654552, 12.319785175012921], "label": "Li", "properties": {}}, {"species": [{"element": "Li", "occu": 1}], "abc": [0.00101291, 0.23259437, 0.302136], "xyz": [0.006230603888719999, 2.71432582492171, 13.602956129136002], "label": "Li", "properties": {}}, {"species": [{"element": "Li", "occu": 1}], "abc": [0.74987147, 0.22904913, 0.35277652000000004], "xyz": [4.61260338729224, 2.67295364343879, 15.882925321541522], "label": "Li", "properties": {}}, {"species": [{"element": "Li", "occu": 1}], "abc": [0.24999977, 0.42830755, 0.32429004], "xyz": [1.53779658522584, 4.99825616576165, 14.60038918644504], "label": "Li", "properties": {}}, {"species": [{"element": "Li", "occu": 1}], "abc": [0.25000095, 0.85424674, 0.36665019], "xyz": [1.5378038436324, 9.96887408425742, 16.50755437719894], "label": "Li", "properties": {}}, {"species": [{"element": "Li", "occu": 1}], "abc": [0.75014395, 0.80577138, 0.3101953], "xyz": [4.6142794640884, 9.40317715221054, 13.9658069788578], "label": "Li", "properties": {}}, {"species": [{"element": "Li", "occu": 1}], "abc": [0.49216418, 0.05181575, 0.40028821000000003], "xyz": [3.02739636670256, 0.60467855848225, 18.022026371039463], "label": "Li", "properties": {}}, {"species": [{"element": "Li", "occu": 1}], "abc": [0.50012093, 0.42477554, 0.37242161], "xyz": [3.07633986364856, 4.95703837550782, 16.76739886134786], "label": "Li", "properties": {}}, {"species": [{"element": "Li", "occu": 1}], "abc": [0.46942696, 0.82477385, 0.43989415000000004], "xyz": [2.88753536093632, 9.624931853574552, 19.805189795037904], "label": "Li", "properties": {}}, {"species": [{"element": "Li", "occu": 1}], "abc": [0.49124621, 0.45624405, 0.43374347], "xyz": [3.02174975698232, 5.324269058541151, 19.52827002975222], "label": "Li", "properties": {}}, {"species": [{"element": "Li", "occu": 1}], "abc": [0.00874679, 0.45624445, 0.43374148], "xyz": [0.053803184673680005, 5.324273726454351, 19.528180434726483], "label": "Li", "properties": {}}, {"species": [{"element": "Li", "occu": 1}], "abc": [0.03056854, 0.82477843, 0.43989432], "xyz": [0.18803295869968, 9.62498530118069, 19.80519744888432], "label": "Li", "properties": {}}, {"species": [{"element": "Li", "occu": 1}], "abc": [0.99986664, 0.42476196, 0.37242087], "xyz": [6.15037167703488, 4.95687989985468, 16.767365544604623], "label": "Li", "properties": {}}, {"species": [{"element": "Li", "occu": 1}], "abc": [0.00781895, 0.05181297, 0.40029066], "xyz": [0.0480958626884, 0.60464611648551, 18.022136676473163], "label": "Li", "properties": {}}, {"species": [{"element": "Li", "occu": 1}], "abc": [0.74998322, 0.04565717, 0.44606916], "xyz": [4.61329078299824, 0.53280926629411, 20.08320496081416], "label": "Li", "properties": {}}, {"species": [{"element": "Li", "occu": 1}], "abc": [0.24999703, 0.21560603, 0.44222994], "xyz": [1.53777973095976, 2.51607558359149, 19.91035319462244], "label": "Li", "properties": {}}, {"species": [{"element": "Li", "occu": 1}], "abc": [0.74998205, 0.63675718, 0.39577437], "xyz": [4.6132835861035995, 7.430818114291941, 17.81880144089562], "label": "Li", "properties": {}}, {"species": [{"element": "P", "occu": 1}], "abc": [0.24997214, 0.75336637, 0.05863391], "xyz": [1.53762662779088, 8.79162205739771, 2.63985260084766], "label": "P", "properties": {}}, {"species": [{"element": "P", "occu": 1}], "abc": [0.74998848, 0.03309281, 0.01620494], "xyz": [4.61332313826816, 0.38618591156023, 0.7295889529724401], "label": "P", "properties": {}}, {"species": [{"element": "P", "occu": 1}], "abc": [0.25003633, 0.56761022, 0.15900082], "xyz": [1.5380214728053598, 6.623888095982261, 7.158634452553319], "label": "P", "properties": {}}, {"species": [{"element": "P", "occu": 1}], "abc": [0.75003701, 0.82464955, 0.11525445999999999], "xyz": [4.61362165561592, 9.62348129954765, 5.18905844741196], "label": "P", "properties": {}}, {"species": [{"element": "P", "occu": 1}], "abc": [0.74998809, 0.39385486, 0.07570746], "xyz": [4.61332073930328, 4.59620074969538, 3.4085486569899603], "label": "P", "properties": {}}, {"species": [{"element": "P", "occu": 1}], "abc": [0.25000728, 0.18224437, 0.09528962], "xyz": [1.53784278067776, 2.12675225087171, 4.290188922942121], "label": "P", "properties": {}}, {"species": [{"element": "P", "occu": 1}], "abc": [0.2500131, 0.38505088, 0.25898365], "xyz": [1.5378785806152, 4.4934602135590405, 11.660124014064902], "label": "P", "properties": {}}, {"species": [{"element": "P", "occu": 1}], "abc": [0.74999809, 0.6431246, 0.21561234], "xyz": [4.61338225122328, 7.505124523961801, 9.707433744804842], "label": "P", "properties": {}}, {"species": [{"element": "P", "occu": 1}], "abc": [0.74999104, 0.21196597, 0.17622961999999998], "xyz": [4.61333888531968, 2.47359687328451, 7.934320271382119], "label": "P", "properties": {}}, {"species": [{"element": "P", "occu": 1}], "abc": [0.24999335, 0.99858764, 0.19779054000000001], "xyz": [1.5377570945732, 11.65330106528212, 8.905049508758042], "label": "P", "properties": {}}, {"species": [{"element": "P", "occu": 1}], "abc": [0.24996003, 0.20235339, 0.35966488], "xyz": [1.53755213685576, 2.36142015061437, 16.19305737757488], "label": "P", "properties": {}}, {"species": [{"element": "P", "occu": 1}], "abc": [0.74996821, 0.45989087, 0.31571045000000003], "xyz": [4.61319845360632, 5.36682665658121, 14.214113514641703], "label": "P", "properties": {}}, {"species": [{"element": "P", "occu": 1}], "abc": [0.75000256, 0.02945103, 0.27709216000000003], "xyz": [4.61340974705152, 0.34368712922649003, 12.475416687212162], "label": "P", "properties": {}}, {"species": [{"element": "P", "occu": 1}], "abc": [0.24996971, 0.81548853, 0.29847515], "xyz": [1.53761168039432, 9.51657418408899, 13.438135048743902], "label": "P", "properties": {}}, {"species": [{"element": "P", "occu": 1}], "abc": [0.25000738, 0.99291645, 0.45862032], "xyz": [1.53784339579696, 11.58711950863035, 20.64829114336032], "label": "P", "properties": {}}, {"species": [{"element": "P", "occu": 1}], "abc": [0.74999672, 0.27296068, 0.41646549], "xyz": [4.61337382409024, 3.1853919031324405, 18.75036999817674], "label": "P", "properties": {}}, {"species": [{"element": "P", "occu": 1}], "abc": [0.74999042, 0.84418993, 0.3795606], "xyz": [4.61333507158064, 9.85151329388519, 17.088814938135602], "label": "P", "properties": {}}, {"species": [{"element": "P", "occu": 1}], "abc": [0.25001611, 0.63233657, 0.39907892], "xyz": [1.5378970957031202, 7.379230554864311, 17.96758095964392], "label": "P", "properties": {}}, {"species": [{"element": "O", "occu": 1}], "abc": [0.45763381, 0.7191764, 0.040841779999999994], "xyz": [2.8149934310015197, 8.3926325267212, 1.8388041861142799], "label": "O", "properties": {}}, {"species": [{"element": "O", "occu": 1}], "abc": [0.53872949, 0.03750419, 0.03696871], "xyz": [3.3138285290520804, 0.43766575889077003, 1.6644284040324602], "label": "O", "properties": {}}, {"species": [{"element": "O", "occu": 1}], "abc": [0.96124022, 0.0375213, 0.03697393], "xyz": [5.91277315134224, 0.43786542887790003, 1.6646634221401801], "label": "O", "properties": {}}, {"species": [{"element": "O", "occu": 1}], "abc": [0.04239899, 0.71917429, 0.04082266], "xyz": [0.26080432809608, 8.392607903479071, 1.83794335350516], "label": "O", "properties": {}}, {"species": [{"element": "O", "occu": 1}], "abc": [0.75001296, 0.91860153, 9.99999999999994e-05], "xyz": [4.6134737194483195, 10.71988051856799, 0.004502262599999973], "label": "O", "properties": {}}, {"species": [{"element": "O", "occu": 1}], "abc": [0.24995935, 0.88233393, 0.06592745], "xyz": [1.5375479540452, 10.296645496637192, 2.9682269244837003], "label": "O", "properties": {}}, {"species": [{"element": "O", "occu": 1}], "abc": [0.74997099, 0.30214022, 0.05168971], "xyz": [4.61321555392008, 3.5259108029722603, 2.32720648137846], "label": "O", "properties": {}}, {"species": [{"element": "O", "occu": 1}], "abc": [0.74996573, 0.15107835, 0.0008652399999999998], "xyz": [4.61318319865016, 1.7630515604980501, 0.03895537692023999], "label": "O", "properties": {}}, {"species": [{"element": "O", "occu": 1}], "abc": [0.24999557, 0.23379419, 0.06328422], "xyz": [1.53777075021944, 2.7283274639607704, 2.84922176876172], "label": "O", "properties": {}}, {"species": [{"element": "O", "occu": 1}], "abc": [0.45707188, 0.52777404, 0.14175558], "xyz": [2.81153689168096, 6.159008519833321, 6.38220846175308], "label": "O", "properties": {}}, {"species": [{"element": "O", "occu": 1}], "abc": [0.54243485, 0.86332831, 0.13280638], "xyz": [3.3366209098412, 10.074854035456731, 5.97929197715388], "label": "O", "properties": {}}, {"species": [{"element": "O", "occu": 1}], "abc": [0.54191467, 0.47241552, 0.07234561], "xyz": [3.3334211827866405, 5.51298660423216, 3.2571893417718605], "label": "O", "properties": {}}, {"species": [{"element": "O", "occu": 1}], "abc": [0.45576841, 0.10877749, 0.10137031], "xyz": [2.80351899744472, 1.26940970358467, 4.563957554634061], "label": "O", "properties": {}}, {"species": [{"element": "O", "occu": 1}], "abc": [0.04424543, 0.1087796, 0.10136817999999999], "xyz": [0.27216213505256004, 1.2694343268268, 4.56386165644068], "label": "O", "properties": {}}, {"species": [{"element": "O", "occu": 1}], "abc": [0.95810359, 0.47239494, 0.07234397], "xyz": [5.89347913797928, 5.51274644009802, 3.25711550466522], "label": "O", "properties": {}}, {"species": [{"element": "O", "occu": 1}], "abc": [0.95761613, 0.86336948, 0.13280535], "xyz": [5.89048067792696, 10.07533448042284, 5.9792456038491], "label": "O", "properties": {}}, {"species": [{"element": "O", "occu": 1}], "abc": [0.04293328, 0.52773743, 0.14177408000000002], "xyz": [0.26409084846976, 6.15858128907769, 6.383041380334081], "label": "O", "properties": {}}, {"species": [{"element": "O", "occu": 1}], "abc": [0.75007597, 0.69106912, 0.11321969], "xyz": [4.61386130605624, 8.06462666840096, 5.097447758705941], "label": "O", "properties": {}}, {"species": [{"element": "O", "occu": 1}], "abc": [0.24999927, 0.69996041, 0.16199026], "xyz": [1.53779350962984, 8.16838609329103, 7.29322689162276], "label": "O", "properties": {}}, {"species": [{"element": "O", "occu": 1}], "abc": [0.25000483, 0.28886814, 0.11713534999999999], "xyz": [1.53782771025736, 3.37102850941362, 5.2737410544291], "label": "O", "properties": {}}, {"species": [{"element": "O", "occu": 1}], "abc": [0.75000072, 0.11727571, 0.15211208999999998], "xyz": [4.61339842885824, 1.3685820868709302, 6.848485738148339], "label": "O", "properties": {}}, {"species": [{"element": "O", "occu": 1}], "abc": [0.24992194, 0.68454375, 0.08889815], "xyz": [1.5373178379524801, 7.98847701650625, 4.0024281595419], "label": "O", "properties": {}}, {"species": [{"element": "O", "occu": 1}], "abc": [0.74999714, 0.88052022, 0.08430862], "xyz": [4.61337640759088, 10.27547989451226, 3.7957954668361205], "label": "O", "properties": {}}, {"species": [{"element": "O", "occu": 1}], "abc": [0.74998585, 0.34252656, 0.10755309], "xyz": [4.613306960633199, 3.99721062693648, 4.842322546214341], "label": "O", "properties": {}}, {"species": [{"element": "O", "occu": 1}], "abc": [0.2500119, 0.05558993, 0.16641247999999997], "xyz": [1.5378711991848, 0.6487224200851901, 7.492326848772479], "label": "O", "properties": {}}, {"species": [{"element": "O", "occu": 1}], "abc": [0.45694251, 0.34730766, 0.24147399000000003], "xyz": [2.8107411119719203, 4.053005026437781, 10.871793140497742], "label": "O", "properties": {}}, {"species": [{"element": "O", "occu": 1}], "abc": [0.54289366, 0.68098336, 0.23306182000000003], "xyz": [3.3394431382427197, 7.946928037810881, 10.493055156739322], "label": "O", "properties": {}}, {"species": [{"element": "O", "occu": 1}], "abc": [0.54283961, 0.28859182, 0.17270528000000002], "xyz": [3.33911066631512, 3.36780391497506, 7.775645229665281], "label": "O", "properties": {}}, {"species": [{"element": "O", "occu": 1}], "abc": [0.45667474, 0.92216278, 0.20105807999999997], "xyz": [2.80909400729008, 10.76143953327674, 9.05216274011808], "label": "O", "properties": {}}, {"species": [{"element": "O", "occu": 1}], "abc": [0.04331363, 0.92216072, 0.20105826], "xyz": [0.26643045434696, 10.761415493523762, 9.05217084419076], "label": "O", "properties": {}}, {"species": [{"element": "O", "occu": 1}], "abc": [0.95715228, 0.28858116, 0.17270548000000002], "xyz": [5.88762744751776, 3.3676795150882803, 7.7756542341904815], "label": "O", "properties": {}}, {"species": [{"element": "O", "occu": 1}], "abc": [0.95709456, 0.68097161, 0.23306369], "xyz": [5.887272400715521, 7.94679091786063, 10.49313934904994], "label": "O", "properties": {}}, {"species": [{"element": "O", "occu": 1}], "abc": [0.04306465, 0.34732625, 0.24147354], "xyz": [0.2648989305628, 4.053221967703751, 10.87177288031604], "label": "O", "properties": {}}, {"species": [{"element": "O", "occu": 1}], "abc": [0.74999335, 0.51055323, 0.21179599], "xyz": [4.6133530945732, 5.9580454040490896, 9.53561164606974], "label": "O", "properties": {}}, {"species": [{"element": "O", "occu": 1}], "abc": [0.25003607, 0.51764384, 0.26280114], "xyz": [1.53801987349544, 6.04079128408672, 11.83199743859364], "label": "O", "properties": {}}, {"species": [{"element": "O", "occu": 1}], "abc": [0.24999408, 0.0928181, 0.22222315000000004], "xyz": [1.5377615849433601, 1.0831670854723001, 10.005069770991902], "label": "O", "properties": {}}, {"species": [{"element": "O", "occu": 1}], "abc": [0.74998051, 0.93565243, 0.25253802000000003], "xyz": [4.61327411326792, 10.91886082152269, 11.369924825240522], "label": "O", "properties": {}}, {"species": [{"element": "O", "occu": 1}], "abc": [0.25007537, 0.51042614, 0.19033158], "xyz": [1.5382616153410402, 5.95656229132762, 8.569227542329081], "label": "O", "properties": {}}, {"species": [{"element": "O", "occu": 1}], "abc": [0.74999967, 0.70173328, 0.18449383000000003], "xyz": [4.61339197010664, 8.18907510147824, 8.306396707397582], "label": "O", "properties": {}}, {"species": [{"element": "O", "occu": 1}], "abc": [0.74998758, 0.15757301, 0.20787943999999997], "xyz": [4.61331760219536, 1.8388428333568303, 9.35927828020944], "label": "O", "properties": {}}, {"species": [{"element": "O", "occu": 1}], "abc": [0.24997975, 0.87055943, 0.26691629], "xyz": [1.537673438362, 10.15923963670369, 12.017272297977541], "label": "O", "properties": {}}, {"species": [{"element": "O", "occu": 1}], "abc": [0.45766069, 0.16373489, 0.34212256], "xyz": [2.81515877504248, 1.91075063582887, 15.403256065042562], "label": "O", "properties": {}}, {"species": [{"element": "O", "occu": 1}], "abc": [0.54308499, 0.49940359, 0.33304886], "xyz": [3.34062004580808, 5.82793152472097, 14.994734263506361], "label": "O", "properties": {}}, {"species": [{"element": "O", "occu": 1}], "abc": [0.54329599, 0.10589536, 0.27389386], "xyz": [3.3419179473200797, 1.23577587190688, 12.33142082247636], "label": "O", "properties": {}}, {"species": [{"element": "O", "occu": 1}], "abc": [0.4571901, 0.73887111, 0.30194505], "xyz": [2.8122640855992, 8.62246551866913, 13.5943590587013], "label": "O", "properties": {}}, {"species": [{"element": "O", "occu": 1}], "abc": [0.04282862, 0.73881128, 0.3019528], "xyz": [0.26344706471504, 8.62176731555224, 13.594707984052802], "label": "O", "properties": {}}, {"species": [{"element": "O", "occu": 1}], "abc": [0.95670441, 0.10590388, 0.27389240000000004], "xyz": [5.884872513156719, 1.2358752984580401, 12.331355089442402], "label": "O", "properties": {}}, {"species": [{"element": "O", "occu": 1}], "abc": [0.95688265, 0.49937745, 0.33304329], "xyz": [5.885968901618799, 5.82762647659335, 14.99448348747954], "label": "O", "properties": {}}, {"species": [{"element": "O", "occu": 1}], "abc": [0.04226588, 0.16373566, 0.34212176], "xyz": [0.25998554292896, 1.9107596215617801, 15.40322004694176], "label": "O", "properties": {}}, {"species": [{"element": "O", "occu": 1}], "abc": [0.7499711, 0.32753123, 0.31272664], "xyz": [4.6132162305512, 3.82221837982309, 14.079774552956641], "label": "O", "properties": {}}, {"species": [{"element": "O", "occu": 1}], "abc": [0.24999353, 0.33595208, 0.36167257], "xyz": [1.53775820178776, 3.92048787199864, 16.28344885356882], "label": "O", "properties": {}}, {"species": [{"element": "O", "occu": 1}], "abc": [0.24997418, 0.90969996, 0.32271741000000004], "xyz": [1.5376391762225599, 10.61600112830868, 14.529585254118663], "label": "O", "properties": {}}, {"species": [{"element": "O", "occu": 1}], "abc": [0.74998234, 0.73775995, 0.35761828], "xyz": [4.6132853699492795, 8.609498522590851, 16.10091407120328], "label": "O", "properties": {}}, {"species": [{"element": "O", "occu": 1}], "abc": [0.24999298, 0.32643729, 0.29011104], "xyz": [1.5377548186321601, 3.80945233740807, 13.06156085239104], "label": "O", "properties": {}}, {"species": [{"element": "O", "occu": 1}], "abc": [0.74995761, 0.51728762, 0.28438902], "xyz": [4.613133250971121, 6.03663427398646, 12.803940485966521], "label": "O", "properties": {}}, {"species": [{"element": "O", "occu": 1}], "abc": [0.74999957, 0.9715718, 0.30837724], "xyz": [4.6133913549874395, 11.3380320749194, 13.88395314343224], "label": "O", "properties": {}}, {"species": [{"element": "O", "occu": 1}], "abc": [0.25001456, 0.68383392, 0.36725294], "xyz": [1.53788756135552, 7.980193454439361, 16.534691765020444], "label": "O", "properties": {}}, {"species": [{"element": "O", "occu": 1}], "abc": [0.46139803, 0.98844158, 0.43789965000000003], "xyz": [2.8381478709517602, 11.534898746777142, 19.715392167480903], "label": "O", "properties": {}}, {"species": [{"element": "O", "occu": 1}], "abc": [0.54241786, 0.30723881, 0.43426942], "xyz": [3.33651640108912, 3.58541024187823, 19.55194967989692], "label": "O", "properties": {}}, {"species": [{"element": "O", "occu": 1}], "abc": [0.54429895, 0.91768646, 0.37342956], "xyz": [3.3480873468484, 10.70920185023818, 16.81277941722456], "label": "O", "properties": {}}, {"species": [{"element": "O", "occu": 1}], "abc": [0.45811962, 0.55372849, 0.40238503000000003], "xyz": [2.81798174158704, 6.461891319217671, 18.116430713688782], "label": "O", "properties": {}}, {"species": [{"element": "O", "occu": 1}], "abc": [0.04190599, 0.55372818, 0.40237937], "xyz": [0.25777179044008, 6.46188770158494, 18.116175885625623], "label": "O", "properties": {}}, {"species": [{"element": "O", "occu": 1}], "abc": [0.95570565, 0.91767397, 0.37343485], "xyz": [5.8787289486348, 10.70905609464851, 16.8130175869161], "label": "O", "properties": {}}, {"species": [{"element": "O", "occu": 1}], "abc": [0.95758328, 0.30723473, 0.43426859], "xyz": [5.8902786112697605, 3.5853626291635905, 19.55191231111734], "label": "O", "properties": {}}, {"species": [{"element": "O", "occu": 1}], "abc": [0.03856104, 0.98846116, 0.43790762], "xyz": [0.23719636075967998, 11.53512724112828, 19.715750997810122], "label": "O", "properties": {}}, {"species": [{"element": "O", "occu": 1}], "abc": [0.74998605, 0.14410628, 0.40904581], "xyz": [4.613308190871599, 1.6816890165372402, 18.416316520497062], "label": "O", "properties": {}}, {"species": [{"element": "O", "occu": 1}], "abc": [0.25005309, 0.10727351, 0.47480975000000003], "xyz": [1.53812456678328, 1.25185858334833, 21.3771817954035], "label": "O", "properties": {}}, {"species": [{"element": "O", "occu": 1}], "abc": [0.24999618, 0.72345931, 0.42324022], "xyz": [1.53777450244656, 8.44261315702973, 19.05538613321772], "label": "O", "properties": {}}, {"species": [{"element": "O", "occu": 1}], "abc": [0.24998403, 0.14652932, 0.39060208], "xyz": [1.53769976546376, 1.70996536753756, 17.58593136266208], "label": "O", "properties": {}}, {"species": [{"element": "O", "occu": 1}], "abc": [0.74998871, 0.34217457, 0.38624789000000004], "xyz": [4.61332455304232, 3.9931029800183104, 17.38989429475914], "label": "O", "properties": {}}, {"species": [{"element": "O", "occu": 1}], "abc": [0.75000373, 0.79224219, 0.41151297000000003], "xyz": [4.61341694394616, 9.24529444074477, 18.527394542459223], "label": "O", "properties": {}}, {"species": [{"element": "O", "occu": 1}], "abc": [0.25004225, 0.87488298, 0.47396740000000004], "xyz": [1.5380578878620002, 10.20969452699334, 21.339256986392403], "label": "O", "properties": {}}]}, "formula": "(Li3PO4)18.0", "bandgap": 2.7039, "slab_thickness": 21.372679532803502}