{"miller": "101_0.50", "final_energy": -798.43879191, "gamma": 0.04813999072872662, "work_function": "Not calculated", "ionization_potentail": "Not calculated", "electron_affinity": "Not calculated", "is_stochiometric": true, "incar_parameters": {"SYSTEM": "unknown system", "LCOMPAT": false, "PREC": "normal", "ENMAX": 520.0, "ENAUG": 628.945, "EDIFF": 1e-05, "IALGO": 38, "IWAVPR": 11, "NBANDS": 370, "NBANDSLOW": -1, "NBANDSHIGH": -1, "NELECT": 608.0, "TURBO": 0, "IRESTART": 0, "NREBOOT": 0, "NMIN": 0, "EREF": 0.0, "ISMEAR": 0, "SIGMA": 0.05, "KSPACING": 0.5, "KGAMMA": true, "KBLOWUP": true, "LREAL": true, "ROPT": [-0.0005, -0.0005, -0.0005], "LMAXPAW": -100, "LMAXMIX": 2, "NLSPLINE": false, "ISTART": 0, "ICHARG": 2, "INIWAV": 1, "ISPIN": 1, "LNONCOLLINEAR": false, "MAGMOM": [0.6, 0.6, 0.6, 0.6, 0.6, 0.6, 0.6, 0.6, 0.6, 0.6, 0.6, 0.6, 0.6, 0.6, 0.6, 0.6, 0.6, 0.6, 0.6, 0.6, 0.6, 0.6, 0.6, 0.6, 0.6, 0.6, 0.6, 0.6, 0.6, 0.6, 0.6, 0.6, 0.6, 0.6, 0.6, 0.6, 0.6, 0.6, 0.6, 0.6, 0.6, 0.6, 0.6, 0.6, 0.6, 0.6, 0.6, 0.6, 0.6, 0.6, 0.6, 0.6, 0.6, 0.6, 0.6, 0.6, 0.6, 0.6, 0.6, 0.6, 0.6, 0.6, 0.6, 0.6, 0.6, 0.6, 0.6, 0.6, 0.6, 0.6, 0.6, 0.6, 0.6, 0.6, 0.6, 0.6, 0.6, 0.6, 0.6, 0.6, 0.6, 0.6, 0.6, 0.6, 0.6, 0.6, 0.6, 0.6, 0.6, 0.6, 0.6, 0.6, 0.6, 0.6, 0.6, 0.6, 0.6, 0.6, 0.6, 0.6, 0.6, 0.6, 0.6, 0.6, 0.6, 0.6, 0.6, 0.6, 0.6, 0.6, 0.6, 0.6, 0.6, 0.6, 0.6, 0.6, 0.6, 0.6, 0.6, 0.6, 0.6, 0.6, 0.6, 0.6, 0.6, 0.6, 0.6, 0.6], "NUPDOWN": -1.0, "LSORBIT": false, "SAXIS": [0.0, 0.0, 1.0], "LSPIRAL": false, "QSPIRAL": [0.0, 0.0, 0.0], "LZEROZ": false, "LASPH": false, "LMETAGGA": false, "NELM": 100, "NELMDL": -5, "NELMIN": 6, "ENINI": 520.0, "LDIAG": true, "LSUBROT": false, "WEIMIN": 0.001, "EBREAK": 1e-08, "DEPER": 0.3, "NRMM": 4, "TIME": 0.4, "AMIX": 0.4, "BMIX": 1.0, "AMIN": 0.1, "AMIX_MAG": 1.6, "BMIX_MAG": 1.0, "IMIX": 4, "MIXFIRST": false, "MAXMIX": -45, "WC": 100.0, "INIMIX": 1, "MIXPRE": 1, "MREMOVE": 5, "LDIPOL": false, "LMONO": false, "IDIPOL": 0, "EPSILON": 1.0, "DIPOL": [-100.0, -100.0, -100.0], "EFIELD": 0.0, "NGX": 36, "NGY": 70, "NGZ": 252, "NGXF": 72, "NGYF": 140, "NGZF": 504, "ADDGRID": false, "NSW": 150, "IBRION": 2, "MDALGO": 0, "ISIF": 2, "PSTRESS": 0.0, "EDIFFG": -0.01, "NFREE": 1, "POTIM": 0.5, "SMASS": -3.0, "SCALEE": 1.0, "TEBEG": 0.0001, "TEEND": 0.0001, "NBLOCK": 1, "KBLOCK": 150, "NPACO": 256, "APACO": 10.0, "ISYM": 0, "SYMPREC": 1e-05, "LORBIT": 11, "RWIGS": [-1.0, -1.0, -1.0], "NEDOS": 301, "EMIN": 10.0, "EMAX": -10.0, "EFERMI": 0.0, "NWRITE": 2, "LWAVE": false, "LDOWNSAMPLE": false, "LCHARG": false, "LPARD": false, "LVTOT": false, "LVHAR": false, "LELF": false, "LOPTICS": false, "STM": [0.0, 0.0, 0.0, 0.0, 0.0, 0.0, 0.0], "NPAR": 2, "NSIM": 4, "NBLK": -1, "LPLANE": true, "LSCALAPACK": true, "LSCAAWARE": false, "LSCALU": false, "LASYNC": false, "LORBITALREAL": false, "IDIOT": 3, "PHON_NSTRUCT": -1, "LMUSIC": false, "POMASS": [7.01, 30.974, 16.0], "DARWINR": [0.0, 0.0, 0.0], "DARWINV": [1.0, 1.0, 1.0], "LCORR": true, "GGA_COMPAT": true, "LBERRY": false, "ICORELEVEL": 0, "LDAU": false, "I_CONSTRAINED_M": 0, "GGA": "--", "VOSKOWN": 0, "LHFCALC": false, "PRECFOCK": "", "LSYMGRAD": false, "LHFONE": false, "LRHFCALC": false, "LTHOMAS": false, "LMODELHF": false, "LFOCKACE": false, "ENCUT4O": -1.0, "EXXOEP": 0, "FOURORBIT": 0, "AEXX": 0.0, "HFALPHA": 0.0, "MCALPHA": 0.0, "ALDAX": 1.0, "AGGAX": 1.0, "ALDAC": 1.0, "AGGAC": 1.0, "NKREDX": 1, "NKREDY": 1, "NKREDZ": 1, "SHIFTRED": false, "ODDONLY": false, "EVENONLY": false, "LMAXFOCK": 0, "NMAXFOCKAE": 0, "LFOCKAEDFT": false, "HFSCREEN": 0.0, "HFSCREENC": 0.0, "NBANDSGWLOW": 0, "LUSE_VDW": false, "Zab_VDW": -0.8491, "PARAM1": 0.1234, "PARAM2": 1.0, "PARAM3": 0.0, "MODEL_GW": 0, "MODEL_EPS0": 15.14935583, "MODEL_ALPHA": 1.0, "LEPSILON": false, "LRPA": false, "LNABLA": false, "LVEL": false, "CSHIFT": 0.1, "OMEGAMAX": -1.0, "DEG_THRESHOLD": 0.002, "RTIME": -0.1, "WPLASMAI": 0.0, "DFIELD": [0.0, 0.0, 0.0], "WPLASMA": [0.0, 0.0, 0.0, 0.0, 0.0, 0.0, 0.0, 0.0, 0.0], "NUCIND": false, "MAGPOS": [0.0, 0.0, 0.0], "LNICSALL": true, "ORBITALMAG": false, "LMAGBLOCH": false, "LCHIMAG": false, "LGAUGE": true, "MAGATOM": 0, "MAGDIPOL": [0.0, 0.0, 0.0], "AVECCONST": [0.0, 0.0, 0.0], "LFINITE_TEMPERATURE": false, "LADDER": false, "LRPAFORCE": false, "LFXC": false, "LHARTREE": true, "IBSE": 0, "KPOINT": [-1, 0, 0, 0], "LTCTC": false, "LTCTE": false, "LTETE": false, "LTRIPLET": false, "LFXCEPS": false, "LFXHEG": false, "NATURALO": 2, "LHOLEGF": false, "L2ORDER": false, "LDMP1": false, "LMP2LT": false, "LSMP2LT": false, "LGWLF": false, "ENCUTGW": -2.0, "ENCUTGWSOFT": -2.0, "ENCUTLF": -1.0, "LESF_SPLINES": false, "LMAXMP2": -1, "SCISSOR": 0.0, "NOMEGA": 0, "NOMEGAR": 0, "NBANDSGW": -1, "NBANDSO": -1, "NBANDSV": -1, "NELMGW": 1, "NELMHF": 1, "DIM": 3, "IESPILON": 4, "ANTIRES": 0, "OMEGAMIN": -30.0, "OMEGATL": -200.0, "OMEGAGRID": 0, "LSELFENERGY": false, "LSPECTRAL": false, "LSPECTRALGW": false, "LSINGLES": false, "LFERMIGW": false, "ODDONLYGW": false, "EVENONLYGW": false, "NKREDLFX": 1, "NKREDLFY": 1, "NKREDLFZ": 1, "MAXMEM": 2800, "TELESCOPE": 0, "NTAUPAR": -1, "NOMEGAPAR": -1, "DAMP_NEWTON": 0.80000001, "LAMBDA": 1.0, "OFIELD_KAPPA": 0.0, "OFIELD_K": [0.0, 0.0, 0.0], "OFIELD_Q6_NEAR": 0.0, "OFIELD_Q6_FAR": 0.0, "OFIELD_A": 0.0, "KPOINTS_OPT_MODE": 1, "LKPOINTS_OPT": false, "@module": "pymatgen.io.vasp.inputs", "@class": "Incar"}, "relaxed_structures": {"@module": "pymatgen.core.structure", "@class": "Structure", "charge": 0, "lattice": {"matrix": [[6.151192, 0.0, 0.0], [0.0, 11.669783, 0.0], [0.0, 0.0, 45.022626]], "a": 6.151192, "b": 11.669783, "c": 45.022626, "alpha": 90.0, "beta": 90.0, "gamma": 90.0, "volume": 3231.86257628388}, "sites": [{"species": [{"element": "Li", "occu": 1}], "abc": [0.47528735, 0.99957237, 0.03713595], "xyz": [2.9235837450212, 11.664792650695711, 1.6719579880047002], "label": "Li", "properties": {}}, {"species": [{"element": "Li", "occu": 1}], "abc": [0.99582416, 0.2422647, 0.006099170000000008], "xyz": [6.12550560639872, 2.8271764775601, 0.2746006498204204], "label": "Li", "properties": {}}, {"species": [{"element": "Li", "occu": 1}], "abc": [0.95016236, 0.60051706, 0.00010000000000000286], "xyz": [5.84463110753312, 7.007903777997981, 0.004502262600000129], "label": "Li", "properties": {}}, {"species": [{"element": "Li", "occu": 1}], "abc": [0.01316114, 0.98670419, 0.04577440000000001], "xyz": [0.08095669907888, 11.514623782490771, 2.0608836915744004], "label": "Li", "properties": {}}, {"species": [{"element": "Li", "occu": 1}], "abc": [0.7372761, 0.80677934, 0.01041578], "xyz": [4.5351268481112, 9.41493982668322, 0.46894576743828], "label": "Li", "properties": {}}, {"species": [{"element": "Li", "occu": 1}], "abc": [0.26839168, 0.42918329, 0.03158730000000001], "xyz": [1.6509287548825602, 5.00847586152607, 1.4221431942498006], "label": "Li", "properties": {}}, {"species": [{"element": "Li", "occu": 1}], "abc": [0.49890631, 0.63097042, 0.05824014000000001], "xyz": [3.06886850282152, 7.363287880818861, 2.6221240414076408], "label": "Li", "properties": {}}, {"species": [{"element": "Li", "occu": 1}], "abc": [0.49978362, 0.82427589, 0.13369392], "xyz": [3.07426500507504, 9.61912076843187, 6.0192513586339205], "label": "Li", "properties": {}}, {"species": [{"element": "Li", "occu": 1}], "abc": [0.51175846, 0.39953271, 0.09330272], "xyz": [3.14792454508432, 4.662460027101931, 4.200733467342721], "label": "Li", "properties": {}}, {"species": [{"element": "Li", "occu": 1}], "abc": [0.49804767, 0.05779177, 0.10113223000000002], "xyz": [3.06358684332264, 0.67441741508591, 4.553238567835981], "label": "Li", "properties": {}}, {"species": [{"element": "Li", "occu": 1}], "abc": [0.00051611, 0.06051039, 0.10225259], "xyz": [0.0031746917031199996, 0.70614312054537, 4.603680117101341], "label": "Li", "properties": {}}, {"species": [{"element": "Li", "occu": 1}], "abc": [0.00112021, 0.39673852, 0.094143], "xyz": [0.00689062679032, 4.62985243614116, 4.2385650795180005], "label": "Li", "properties": {}}, {"species": [{"element": "Li", "occu": 1}], "abc": [0.9981858, 0.82482799, 0.13347836000000002], "xyz": [6.1400325074736, 9.62556365562617, 6.009546281373361], "label": "Li", "properties": {}}, {"species": [{"element": "Li", "occu": 1}], "abc": [0.00378787, 0.62901246, 0.061060550000000005], "xyz": [0.02329991564104, 7.340438912496181, 2.7491063060043004], "label": "Li", "properties": {}}, {"species": [{"element": "Li", "occu": 1}], "abc": [0.74768097, 0.62866532, 0.10946464], "xyz": [4.59912920121624, 7.33638786402556, 4.92838554694464], "label": "Li", "properties": {}}, {"species": [{"element": "Li", "occu": 1}], "abc": [0.25007632, 0.82018282, 0.08389179], "xyz": [1.5382674589734402, 9.571355529728061, 3.77702868564054], "label": "Li", "properties": {}}, {"species": [{"element": "Li", "occu": 1}], "abc": [0.25489241, 0.25381158, 0.12494482000000001], "xyz": [1.5678921532527201, 2.96192606148714, 5.625343901497321], "label": "Li", "properties": {}}, {"species": [{"element": "Li", "occu": 1}], "abc": [0.74714637, 0.20459881, 0.06934611], "xyz": [4.595840773973039, 2.38762371475823, 3.1221439750848603], "label": "Li", "properties": {}}, {"species": [{"element": "Li", "occu": 1}], "abc": [0.49869579, 0.4472232, 0.16141571000000002], "xyz": [3.06757355388168, 5.2189976965656, 7.267359141854461], "label": "Li", "properties": {}}, {"species": [{"element": "Li", "occu": 1}], "abc": [0.50532276, 0.64227966, 0.23411157999999999], "xyz": [3.10833731872992, 7.495264257513781, 10.54031810860908], "label": "Li", "properties": {}}, {"species": [{"element": "Li", "occu": 1}], "abc": [0.5023087, 0.2143775, 0.19484292], "xyz": [3.0897972569704004, 2.5017389050825, 8.77233991590792], "label": "Li", "properties": {}}, {"species": [{"element": "Li", "occu": 1}], "abc": [0.49948023, 0.87464822, 0.20123797999999998], "xyz": [3.07239879493416, 10.20695492873626, 9.06026231053548], "label": "Li", "properties": {}}, {"species": [{"element": "Li", "occu": 1}], "abc": [0.00192656, 0.8751188, 0.20105245], "xyz": [0.01185064045952, 10.2124464952204, 9.0519092627337], "label": "Li", "properties": {}}, {"species": [{"element": "Li", "occu": 1}], "abc": [0.99844577, 0.21591633, 0.19430037], "xyz": [6.14163163285784, 2.51969671725639, 8.747912890171621], "label": "Li", "properties": {}}, {"species": [{"element": "Li", "occu": 1}], "abc": [0.00033368, 0.64061899, 0.2339235], "xyz": [0.00205252974656, 7.47588459897917, 10.531850253111001], "label": "Li", "properties": {}}, {"species": [{"element": "Li", "occu": 1}], "abc": [0.00223212, 0.44711557, 0.16141567], "xyz": [0.013730198687040002, 5.21774167782131, 7.267357340949421], "label": "Li", "properties": {}}, {"species": [{"element": "Li", "occu": 1}], "abc": [0.7506736, 0.44719541, 0.21051401000000003], "xyz": [4.617537442931201, 5.21867339329603, 9.477893539990262], "label": "Li", "properties": {}}, {"species": [{"element": "Li", "occu": 1}], "abc": [0.25176658, 0.64282926, 0.18454385], "xyz": [1.5486645727633601, 7.50167797025058, 8.308648739150101], "label": "Li", "properties": {}}, {"species": [{"element": "Li", "occu": 1}], "abc": [0.24996969, 0.06848801, 0.22564161], "xyz": [1.53761155737048, 0.79924021480183, 10.15897781706786], "label": "Li", "properties": {}}, {"species": [{"element": "Li", "occu": 1}], "abc": [0.74992557, 0.02112476, 0.16972226], "xyz": [4.61293616677944, 0.24652136512708, 7.641341835854761], "label": "Li", "properties": {}}, {"species": [{"element": "Li", "occu": 1}], "abc": [0.49954925, 0.26502554, 0.26245153], "xyz": [3.072823350206, 3.0927905412578203, 11.816257078317781], "label": "Li", "properties": {}}, {"species": [{"element": "Li", "occu": 1}], "abc": [0.50695659, 0.4616405, 0.33441114], "xyz": [3.1183873207552804, 5.387244459011501, 15.056067686453641], "label": "Li", "properties": {}}, {"species": [{"element": "Li", "occu": 1}], "abc": [0.50161721, 0.03024308, 0.2932982], "xyz": [3.08554376921432, 0.35293018085164, 13.205055165073201], "label": "Li", "properties": {}}, {"species": [{"element": "Li", "occu": 1}], "abc": [0.50246691, 0.69456881, 0.30152691], "xyz": [3.0907704370567197, 8.105467291268232, 13.57553329786566], "label": "Li", "properties": {}}, {"species": [{"element": "Li", "occu": 1}], "abc": [0.01361798, 0.69133149, 0.30227353], "xyz": [0.08376680963216, 8.06768846936667, 13.609148090889782], "label": "Li", "properties": {}}, {"species": [{"element": "Li", "occu": 1}], "abc": [0.00014648, 0.03206591, 0.29372586], "xyz": [0.00090102660416, 0.37420221139753007, 13.224309541308362], "label": "Li", "properties": {}}, {"species": [{"element": "Li", "occu": 1}], "abc": [0.00072663, 0.46062832, 0.33720075], "xyz": [0.00446964064296, 5.37543253805456, 15.1816632541695], "label": "Li", "properties": {}}, {"species": [{"element": "Li", "occu": 1}], "abc": [0.00063633, 0.26692675, 0.26178224], "xyz": [0.00391418800536, 3.11497724939525, 11.78612388496224], "label": "Li", "properties": {}}, {"species": [{"element": "Li", "occu": 1}], "abc": [0.75370992, 0.26960572, 0.31181165], "xyz": [4.636214430224641, 3.14624024795876, 14.0385793003929], "label": "Li", "properties": {}}, {"species": [{"element": "Li", "occu": 1}], "abc": [0.24999307, 0.46147526, 0.28575804], "xyz": [1.5377553722394401, 5.385316144068581, 12.86557736141304], "label": "Li", "properties": {}}, {"species": [{"element": "Li", "occu": 1}], "abc": [0.24840452, 0.88620761, 0.326555], "xyz": [1.52798389618784, 10.341850501648631, 14.70236363343], "label": "Li", "properties": {}}, {"species": [{"element": "Li", "occu": 1}], "abc": [0.75811086, 0.83569467, 0.27058641], "xyz": [4.66328545714512, 9.75237545315661, 12.182510738112661], "label": "Li", "properties": {}}, {"species": [{"element": "Li", "occu": 1}], "abc": [0.51476701, 0.10371158, 0.35001691], "xyz": [3.1664307137759202, 1.21029163318714, 15.758680432605662], "label": "Li", "properties": {}}, {"species": [{"element": "Li", "occu": 1}], "abc": [0.49940625, 0.84493415, 0.39008243], "xyz": [3.07194372975, 9.860198179789451, 17.56253535506118], "label": "Li", "properties": {}}, {"species": [{"element": "Li", "occu": 1}], "abc": [0.44922208, 0.48891562, 0.39518033], "xyz": [2.76325126471936, 5.705539190710461, 17.792056200146583], "label": "Li", "properties": {}}, {"species": [{"element": "Li", "occu": 1}], "abc": [0.97942413, 0.09206635, 0.35764602], "xyz": [6.02462587306296, 1.07439432610205, 16.10216299884852], "label": "Li", "properties": {}}, {"species": [{"element": "Li", "occu": 1}], "abc": [0.24050837, 0.28293801, 0.38511059000000003], "xyz": [1.47941316147704, 3.3018251791518303, 17.33869006220934], "label": "Li", "properties": {}}, {"species": [{"element": "Li", "occu": 1}], "abc": [0.76691054, 0.66196271, 0.36375455], "xyz": [4.71741397836368, 7.72496117979193, 16.3771850604483], "label": "Li", "properties": {}}, {"species": [{"element": "P", "occu": 1}], "abc": [0.24565699, 0.78621245, 0.01875446], "xyz": [1.5110833116320799, 9.17492868339835, 0.84437503841196], "label": "P", "properties": {}}, {"species": [{"element": "P", "occu": 1}], "abc": [0.75564169, 0.42164634, 0.03601662000000001], "xyz": [4.64809711839448, 4.920521290544221, 1.6215628120441208], "label": "P", "properties": {}}, {"species": [{"element": "P", "occu": 1}], "abc": [0.24987651, 0.5987442, 0.11897244000000001], "xyz": [1.53703838929992, 6.9872148865086, 5.3564516704274405], "label": "P", "properties": {}}, {"species": [{"element": "P", "occu": 1}], "abc": [0.74342653, 0.8557179, 0.07507130000000001], "xyz": [4.57295932392376, 9.986042202215701, 3.3799070632338006], "label": "P", "properties": {}}, {"species": [{"element": "P", "occu": 1}], "abc": [0.75118776, 0.24456783, 0.13723816], "xyz": [4.6207001398099194, 2.8540535048808904, 6.1788223506081605], "label": "P", "properties": {}}, {"species": [{"element": "P", "occu": 1}], "abc": [0.25126867, 0.21111402, 0.05760438000000001], "xyz": [1.5456018327546401, 2.4636548016576603, 2.5935004567018805], "label": "P", "properties": {}}, {"species": [{"element": "P", "occu": 1}], "abc": [0.25189698, 0.41637303, 0.21974729999999998], "xyz": [1.54946668820016, 4.85898290715249, 9.8936005024098], "label": "P", "properties": {}}, {"species": [{"element": "P", "occu": 1}], "abc": [0.75126906, 0.67321134, 0.17566179], "xyz": [4.62120023171952, 7.8562302509392214, 7.908755073660541], "label": "P", "properties": {}}, {"species": [{"element": "P", "occu": 1}], "abc": [0.75123727, 0.06136264, 0.23737804], "xyz": [4.62100468532584, 0.7160886931071201, 10.68738271553304], "label": "P", "properties": {}}, {"species": [{"element": "P", "occu": 1}], "abc": [0.25076922, 0.02879463, 0.15819779], "xyz": [1.54252961991024, 0.33602708366529005, 7.122479933196541], "label": "P", "properties": {}}, {"species": [{"element": "P", "occu": 1}], "abc": [0.24665548, 0.2351012, 0.32039056], "xyz": [1.5172252153321601, 2.7435799870396003, 14.42482435681056], "label": "P", "properties": {}}, {"species": [{"element": "P", "occu": 1}], "abc": [0.75164087, 0.49142836, 0.27661313], "xyz": [4.62348730641704, 5.73486232124588, 12.45384949867938], "label": "P", "properties": {}}, {"species": [{"element": "P", "occu": 1}], "abc": [0.75255504, 0.87994974, 0.33789409], "xyz": [4.629110541607679, 10.268822516706422, 15.21287924168034], "label": "P", "properties": {}}, {"species": [{"element": "P", "occu": 1}], "abc": [0.2533189, 0.84509548, 0.2582591], "xyz": [1.5582131911288002, 9.862080865880841, 11.6275028703966], "label": "P", "properties": {}}, {"species": [{"element": "P", "occu": 1}], "abc": [0.74911781, 0.30436845, 0.37666801], "xyz": [4.60796747992952, 3.5519137635463505, 16.958582940394262], "label": "P", "properties": {}}, {"species": [{"element": "P", "occu": 1}], "abc": [0.25560357, 0.66902301, 0.35961609], "xyz": [1.57226663495544, 7.8073533487068305, 16.190860723652342], "label": "P", "properties": {}}, {"species": [{"element": "O", "occu": 1}], "abc": [0.45379773, 0.75757844, 0.001708490000000007], "xyz": [2.79139696639416, 8.84077600027852, 0.07692070629474032], "label": "O", "properties": {}}, {"species": [{"element": "O", "occu": 1}], "abc": [0.54933012, 0.49739692, 0.033973790000000004], "xyz": [3.3790350395030404, 5.804514121268361, 1.5295892409725402], "label": "O", "properties": {}}, {"species": [{"element": "O", "occu": 1}], "abc": [0.96476675, 0.50097397, 0.03229121], "xyz": [5.934465514466, 5.84625751854851, 1.4538350709174601], "label": "O", "properties": {}}, {"species": [{"element": "O", "occu": 1}], "abc": [0.03089428, 0.74879358, 0.0025888300000000072], "xyz": [0.19003664798176, 8.73825859039314, 0.11655592486758033], "label": "O", "properties": {}}, {"species": [{"element": "O", "occu": 1}], "abc": [0.23336292, 0.91744466, 0.02572682000000001], "xyz": [1.43546012660064, 10.70638009670878, 1.1582889950293205], "label": "O", "properties": {}}, {"species": [{"element": "O", "occu": 1}], "abc": [0.7619607, 0.32736739, 0.012417010000000006], "xyz": [4.6869665621544, 3.82030640257637, 0.5590463972682603], "label": "O", "properties": {}}, {"species": [{"element": "O", "occu": 1}], "abc": [0.73553246, 0.91427134, 0.04383016000000001], "xyz": [4.524401383692321, 10.66934814091922, 1.9733489012001604], "label": "O", "properties": {}}, {"species": [{"element": "O", "occu": 1}], "abc": [0.24592004, 0.26618155, 0.026450940000000006], "xyz": [1.51270138268768, 3.1062809271036502, 1.1908907789684404], "label": "O", "properties": {}}, {"species": [{"element": "O", "occu": 1}], "abc": [0.45654637, 0.56121831, 0.10153954000000001], "xyz": [2.8083043787730397, 6.549295893326731, 4.571576733632041], "label": "O", "properties": {}}, {"species": [{"element": "O", "occu": 1}], "abc": [0.54088762, 0.89391393, 0.09327355000000001], "xyz": [3.32710360104304, 10.431781583777191, 4.199420157342301], "label": "O", "properties": {}}, {"species": [{"element": "O", "occu": 1}], "abc": [0.54615702, 0.32180531, 0.13366366000000002], "xyz": [3.35951669216784, 3.7553981359477304, 6.017888973971161], "label": "O", "properties": {}}, {"species": [{"element": "O", "occu": 1}], "abc": [0.45498411, 0.13268945, 0.06143121], "xyz": [2.79869461755912, 1.54845708788935, 2.76579439255746], "label": "O", "properties": {}}, {"species": [{"element": "O", "occu": 1}], "abc": [0.04169315, 0.13578501, 0.061734910000000004], "xyz": [0.2564625707348, 1.5845816013528302, 2.7794677640736603], "label": "O", "properties": {}}, {"species": [{"element": "O", "occu": 1}], "abc": [0.96011311, 0.31928449, 0.13390914], "xyz": [5.90584008132712, 3.72598071356567, 6.028941128201641], "label": "O", "properties": {}}, {"species": [{"element": "O", "occu": 1}], "abc": [0.95613272, 0.89865423, 0.09079767], "xyz": [5.8813559382022405, 10.48709985613209, 4.08794953808142], "label": "O", "properties": {}}, {"species": [{"element": "O", "occu": 1}], "abc": [0.04237007, 0.55995455, 0.10176636], "xyz": [0.26062643562344, 6.5345480883626506, 4.5817887656613605], "label": "O", "properties": {}}, {"species": [{"element": "O", "occu": 1}], "abc": [0.74913887, 0.72369045, 0.07183691], "xyz": [4.60809702403304, 8.44531051067235, 3.2342863319256603], "label": "O", "properties": {}}, {"species": [{"element": "O", "occu": 1}], "abc": [0.24761415, 0.73155296, 0.12254704], "xyz": [1.5231221785668, 8.537064296207681, 5.51738954932704], "label": "O", "properties": {}}, {"species": [{"element": "O", "occu": 1}], "abc": [0.25671777, 0.30704011, 0.08175291000000001], "xyz": [1.57912029308184, 3.5830914559961298, 3.680730691341661], "label": "O", "properties": {}}, {"species": [{"element": "O", "occu": 1}], "abc": [0.74909429, 0.14919214, 0.11312008000000001], "xyz": [4.60782280389368, 1.7410398991056202, 5.092963054930081], "label": "O", "properties": {}}, {"species": [{"element": "O", "occu": 1}], "abc": [0.2470778, 0.72168758, 0.04986026], "xyz": [1.5198229867375999, 8.42193745239514, 2.2448398382427603], "label": "O", "properties": {}}, {"species": [{"element": "O", "occu": 1}], "abc": [0.7503953, 0.7305956, 0.14430329], "xyz": [4.6158255661976, 8.5258921127548, 6.49691305623954], "label": "O", "properties": {}}, {"species": [{"element": "O", "occu": 1}], "abc": [0.76314122, 0.36899868, 0.06819893], "xyz": [4.69422816733424, 4.306134522886441, 3.0704949189901805], "label": "O", "properties": {}}, {"species": [{"element": "O", "occu": 1}], "abc": [0.25180572, 0.0868723, 0.12696028], "xyz": [1.54890533041824, 1.0137808897109, 5.716085203295281], "label": "O", "properties": {}}, {"species": [{"element": "O", "occu": 1}], "abc": [0.45822498, 0.3772324, 0.20234084000000002], "xyz": [2.81862983117616, 4.402220248569201, 9.109915963845841], "label": "O", "properties": {}}, {"species": [{"element": "O", "occu": 1}], "abc": [0.5445907, 0.71197273, 0.19305764], "xyz": [3.3498819571144, 8.308567261017592, 8.69196192216264], "label": "O", "properties": {}}, {"species": [{"element": "O", "occu": 1}], "abc": [0.54306525, 0.13730346, 0.23473469000000002], "xyz": [3.3404986212780003, 1.60230158334918, 10.568372157095942], "label": "O", "properties": {}}, {"species": [{"element": "O", "occu": 1}], "abc": [0.45706551, 0.95203702, 0.16132497], "xyz": [2.81149770858792, 11.11006543136666, 7.263273788771221], "label": "O", "properties": {}}, {"species": [{"element": "O", "occu": 1}], "abc": [0.04284395, 0.95272923, 0.16094082], "xyz": [0.2635413624884, 11.11814337185709, 7.245978346993321], "label": "O", "properties": {}}, {"species": [{"element": "O", "occu": 1}], "abc": [0.95742049, 0.1382135, 0.23427162], "xyz": [5.889277258724079, 1.6129215526704999, 10.547523529674121], "label": "O", "properties": {}}, {"species": [{"element": "O", "occu": 1}], "abc": [0.95843427, 0.7120522, 0.19294905], "xyz": [5.89551321414984, 8.3094946586726, 8.6870729152053], "label": "O", "properties": {}}, {"species": [{"element": "O", "occu": 1}], "abc": [0.04415505, 0.37796933, 0.20250973], "xyz": [0.2716061903196, 4.41082006175539, 9.117519835150981], "label": "O", "properties": {}}, {"species": [{"element": "O", "occu": 1}], "abc": [0.7510207, 0.54057654, 0.17239527000000002], "xyz": [4.6196725216744, 6.30841091669082, 7.761687765379021], "label": "O", "properties": {}}, {"species": [{"element": "O", "occu": 1}], "abc": [0.25282769, 0.54899395, 0.22295796], "xyz": [1.55519166410648, 6.40664026481285, 10.03815284680296], "label": "O", "properties": {}}, {"species": [{"element": "O", "occu": 1}], "abc": [0.25030781, 0.12201148, 0.18285808], "xyz": [1.5396913984095202, 1.4238474951088402, 8.232750946918081], "label": "O", "properties": {}}, {"species": [{"element": "O", "occu": 1}], "abc": [0.7507656, 0.96833824, 0.21267386], "xyz": [4.6181033525952, 11.300297131401921, 9.575135658756361], "label": "O", "properties": {}}, {"species": [{"element": "O", "occu": 1}], "abc": [0.25075038, 0.54116911, 0.15031175], "xyz": [1.54241373145296, 6.31532608000313, 6.7674297036555], "label": "O", "properties": {}}, {"species": [{"element": "O", "occu": 1}], "abc": [0.75224649, 0.54775901, 0.24511545], "xyz": [4.62721259131608, 6.392228782994831, 11.0357412321717], "label": "O", "properties": {}}, {"species": [{"element": "O", "occu": 1}], "abc": [0.74965126, 0.18849189, 0.1687414], "xyz": [4.611248833301921, 2.19965945355987, 7.597180942916401], "label": "O", "properties": {}}, {"species": [{"element": "O", "occu": 1}], "abc": [0.25089655, 0.90145209, 0.2267841], "xyz": [1.5433128511876, 10.51975027519647, 10.2104157170466], "label": "O", "properties": {}}, {"species": [{"element": "O", "occu": 1}], "abc": [0.45906849, 0.19215372, 0.30463418000000003], "xyz": [2.82381842314008, 2.24239221504276, 13.715430752956681], "label": "O", "properties": {}}, {"species": [{"element": "O", "occu": 1}], "abc": [0.54435311, 0.53093467, 0.29375389], "xyz": [3.3484204954071197, 6.195892386076611, 13.225571525515141], "label": "O", "properties": {}}, {"species": [{"element": "O", "occu": 1}], "abc": [0.54311822, 0.95522633, 0.33374853], "xyz": [3.34082444991824, 11.147283986986391, 15.02623524423978], "label": "O", "properties": {}}, {"species": [{"element": "O", "occu": 1}], "abc": [0.46260913, 0.77070017, 0.26155011], "xyz": [2.84559757958296, 8.993903741963111, 11.775672782788861], "label": "O", "properties": {}}, {"species": [{"element": "O", "occu": 1}], "abc": [0.04859048, 0.76750809, 0.26173398000000003], "xyz": [0.29888937185215997, 8.95665286104447, 11.783951093031481], "label": "O", "properties": {}}, {"species": [{"element": "O", "occu": 1}], "abc": [0.95662582, 0.9579427, 0.33394931], "xyz": [5.8843890909774395, 11.178983435434102, 15.035274887088061], "label": "O", "properties": {}}, {"species": [{"element": "O", "occu": 1}], "abc": [0.95855146, 0.52942587, 0.29391951], "xyz": [5.89623407234032, 6.17828501748621, 13.23302817283326], "label": "O", "properties": {}}, {"species": [{"element": "O", "occu": 1}], "abc": [0.04396071, 0.19623671, 0.30229856], "xyz": [0.27041076766632, 2.2900398223339304, 13.61027500721856], "label": "O", "properties": {}}, {"species": [{"element": "O", "occu": 1}], "abc": [0.74903978, 0.35857937, 0.27327633], "xyz": [4.607487502417761, 4.18454343617671, 12.303618000242581], "label": "O", "properties": {}}, {"species": [{"element": "O", "occu": 1}], "abc": [0.25161424, 0.36709426, 0.32356371], "xyz": [1.54772750017408, 4.28391035474558, 14.567687902502461], "label": "O", "properties": {}}, {"species": [{"element": "O", "occu": 1}], "abc": [0.25063323, 0.94032207, 0.28241721000000003], "xyz": [1.54169311931016, 10.97335450701081, 12.715164421793462], "label": "O", "properties": {}}, {"species": [{"element": "O", "occu": 1}], "abc": [0.7580576, 0.78360417, 0.31381782], "xyz": [4.6629578446592, 9.14449062179511, 14.128902341995321], "label": "O", "properties": {}}, {"species": [{"element": "O", "occu": 1}], "abc": [0.25187563, 0.35930164, 0.2511366], "xyz": [1.54933536025096, 4.19297217034412, 11.3068292167116], "label": "O", "properties": {}}, {"species": [{"element": "O", "occu": 1}], "abc": [0.75007625, 0.3694565, 0.34564479], "xyz": [4.61386302839, 4.311477182939501, 15.56183610901854], "label": "O", "properties": {}}, {"species": [{"element": "O", "occu": 1}], "abc": [0.75265697, 0.00293519, 0.26855942], "xyz": [4.62973753260824, 0.03425303036377, 12.09125032543692], "label": "O", "properties": {}}, {"species": [{"element": "O", "occu": 1}], "abc": [0.2639311, 0.72194411, 0.327484], "xyz": [1.6234908708712, 8.42493110182813, 14.744189652984002], "label": "O", "properties": {}}, {"species": [{"element": "O", "occu": 1}], "abc": [0.53429358, 0.34127802, 0.39288807000000003], "xyz": [3.2865423949473604, 3.9826404360696603, 17.68885263547182], "label": "O", "properties": {}}, {"species": [{"element": "O", "occu": 1}], "abc": [0.4646518, 0.58951067, 0.36329616], "xyz": [2.8581624349456, 6.879461595084611, 16.35654713891616], "label": "O", "properties": {}}, {"species": [{"element": "O", "occu": 1}], "abc": [0.04892942, 0.59361272, 0.36160638], "xyz": [0.30097425686864, 6.92733162843976, 16.28046880595388], "label": "O", "properties": {}}, {"species": [{"element": "O", "occu": 1}], "abc": [0.95725981, 0.33268374, 0.39374133], "xyz": [5.8882888851935204, 3.88234705342842, 17.727268641332582], "label": "O", "properties": {}}, {"species": [{"element": "O", "occu": 1}], "abc": [0.73713247, 0.17331371, 0.36947695], "xyz": [4.53424335240424, 2.0225333866249304, 16.6348225354707], "label": "O", "properties": {}}, {"species": [{"element": "O", "occu": 1}], "abc": [0.26240756, 0.76304562, 0.38329716], "xyz": [1.61411928381152, 8.90457680450046, 17.257044681542162], "label": "O", "properties": {}}, {"species": [{"element": "O", "occu": 1}], "abc": [0.23929273, 0.17682554, 0.35167028], "xyz": [1.47193552643416, 2.06351568065782, 15.833119491755282], "label": "O", "properties": {}}, {"species": [{"element": "O", "occu": 1}], "abc": [0.74718703, 0.82486827, 0.36905472], "xyz": [4.59609088143976, 9.626033714485411, 16.61581263209472], "label": "O", "properties": {}}]}, "formula": "(Li3PO4)16.0", "bandgap": 4.3225999999999996, "slab_thickness": 17.787553937546583}