{"miller": "101_0.14", "final_energy": -1098.88285845, "gamma": 0.05902144058238417, "work_function": "Not calculated", "ionization_potentail": "Not calculated", "electron_affinity": "Not calculated", "is_stochiometric": true, "incar_parameters": {"SYSTEM": "unknown system", "LCOMPAT": false, "PREC": "normal", "ENMAX": 520.0, "ENAUG": 628.945, "EDIFF": 1e-05, "IALGO": 38, "IWAVPR": 11, "NBANDS": 508, "NBANDSLOW": -1, "NBANDSHIGH": -1, "NELECT": 836.0, "TURBO": 0, "IRESTART": 0, "NREBOOT": 0, "NMIN": 0, "EREF": 0.0, "ISMEAR": 0, "SIGMA": 0.05, "KSPACING": 0.5, "KGAMMA": true, "KBLOWUP": true, "LREAL": true, "ROPT": [-0.0005, -0.0005, -0.0005], "LMAXPAW": -100, "LMAXMIX": 2, "NLSPLINE": false, "ISTART": 0, "ICHARG": 2, "INIWAV": 1, "ISPIN": 1, "LNONCOLLINEAR": false, "MAGMOM": [0.6, 0.6, 0.6, 0.6, 0.6, 0.6, 0.6, 0.6, 0.6, 0.6, 0.6, 0.6, 0.6, 0.6, 0.6, 0.6, 0.6, 0.6, 0.6, 0.6, 0.6, 0.6, 0.6, 0.6, 0.6, 0.6, 0.6, 0.6, 0.6, 0.6, 0.6, 0.6, 0.6, 0.6, 0.6, 0.6, 0.6, 0.6, 0.6, 0.6, 0.6, 0.6, 0.6, 0.6, 0.6, 0.6, 0.6, 0.6, 0.6, 0.6, 0.6, 0.6, 0.6, 0.6, 0.6, 0.6, 0.6, 0.6, 0.6, 0.6, 0.6, 0.6, 0.6, 0.6, 0.6, 0.6, 0.6, 0.6, 0.6, 0.6, 0.6, 0.6, 0.6, 0.6, 0.6, 0.6, 0.6, 0.6, 0.6, 0.6, 0.6, 0.6, 0.6, 0.6, 0.6, 0.6, 0.6, 0.6, 0.6, 0.6, 0.6, 0.6, 0.6, 0.6, 0.6, 0.6, 0.6, 0.6, 0.6, 0.6, 0.6, 0.6, 0.6, 0.6, 0.6, 0.6, 0.6, 0.6, 0.6, 0.6, 0.6, 0.6, 0.6, 0.6, 0.6, 0.6, 0.6, 0.6, 0.6, 0.6, 0.6, 0.6, 0.6, 0.6, 0.6, 0.6, 0.6, 0.6, 0.6, 0.6, 0.6, 0.6, 0.6, 0.6, 0.6, 0.6, 0.6, 0.6, 0.6, 0.6, 0.6, 0.6, 0.6, 0.6, 0.6, 0.6, 0.6, 0.6, 0.6, 0.6, 0.6, 0.6, 0.6, 0.6, 0.6, 0.6, 0.6, 0.6, 0.6, 0.6, 0.6, 0.6, 0.6, 0.6, 0.6, 0.6, 0.6, 0.6, 0.6, 0.6, 0.6, 0.6, 0.6, 0.6, 0.6, 0.6], "NUPDOWN": -1.0, "LSORBIT": false, "SAXIS": [0.0, 0.0, 1.0], "LSPIRAL": false, "QSPIRAL": [0.0, 0.0, 0.0], "LZEROZ": false, "LASPH": false, "LMETAGGA": false, "NELM": 100, "NELMDL": -5, "NELMIN": 6, "ENINI": 520.0, "LDIAG": true, "LSUBROT": false, "WEIMIN": 0.001, "EBREAK": 0.0, "DEPER": 0.3, "NRMM": 4, "TIME": 0.4, "AMIX": 0.4, "BMIX": 1.0, "AMIN": 0.1, "AMIX_MAG": 1.6, "BMIX_MAG": 1.0, "IMIX": 4, "MIXFIRST": false, "MAXMIX": -45, "WC": 100.0, "INIMIX": 1, "MIXPRE": 1, "MREMOVE": 5, "LDIPOL": false, "LMONO": false, "IDIPOL": 0, "EPSILON": 1.0, "DIPOL": [-100.0, -100.0, -100.0], "EFIELD": 0.0, "NGX": 36, "NGY": 70, "NGZ": 252, "NGXF": 72, "NGYF": 140, "NGZF": 504, "ADDGRID": false, "NSW": 150, "IBRION": 2, "MDALGO": 0, "ISIF": 2, "PSTRESS": 0.0, "EDIFFG": -0.01, "NFREE": 1, "POTIM": 0.5, "SMASS": -3.0, "SCALEE": 1.0, "TEBEG": 0.0001, "TEEND": 0.0001, "NBLOCK": 1, "KBLOCK": 150, "NPACO": 256, "APACO": 10.0, "ISYM": 0, "SYMPREC": 1e-05, "LORBIT": 11, "RWIGS": [-1.0, -1.0, -1.0], "NEDOS": 301, "EMIN": 10.0, "EMAX": -10.0, "EFERMI": 0.0, "NWRITE": 2, "LWAVE": false, "LDOWNSAMPLE": false, "LCHARG": false, "LPARD": false, "LVTOT": false, "LVHAR": false, "LELF": false, "LOPTICS": false, "STM": [0.0, 0.0, 0.0, 0.0, 0.0, 0.0, 0.0], "NPAR": 2, "NSIM": 4, "NBLK": -1, "LPLANE": true, "LSCALAPACK": true, "LSCAAWARE": false, "LSCALU": false, "LASYNC": false, "LORBITALREAL": false, "IDIOT": 3, "PHON_NSTRUCT": -1, "LMUSIC": false, "POMASS": [7.01, 30.974, 16.0], "DARWINR": [0.0, 0.0, 0.0], "DARWINV": [1.0, 1.0, 1.0], "LCORR": true, "GGA_COMPAT": true, "LBERRY": false, "ICORELEVEL": 0, "LDAU": false, "I_CONSTRAINED_M": 0, "GGA": "--", "VOSKOWN": 0, "LHFCALC": false, "PRECFOCK": "", "LSYMGRAD": false, "LHFONE": false, "LRHFCALC": false, "LTHOMAS": false, "LMODELHF": false, "LFOCKACE": false, "ENCUT4O": -1.0, "EXXOEP": 0, "FOURORBIT": 0, "AEXX": 0.0, "HFALPHA": 0.0, "MCALPHA": 0.0, "ALDAX": 1.0, "AGGAX": 1.0, "ALDAC": 1.0, "AGGAC": 1.0, "NKREDX": 1, "NKREDY": 1, "NKREDZ": 1, "SHIFTRED": false, "ODDONLY": false, "EVENONLY": false, "LMAXFOCK": 0, "NMAXFOCKAE": 0, "LFOCKAEDFT": false, "HFSCREEN": 0.0, "HFSCREENC": 0.0, "NBANDSGWLOW": 0, "LUSE_VDW": false, "Zab_VDW": -0.8491, "PARAM1": 0.1234, "PARAM2": 1.0, "PARAM3": 0.0, "MODEL_GW": 0, "MODEL_EPS0": 11.01771333, "MODEL_ALPHA": 1.0, "LEPSILON": false, "LRPA": false, "LNABLA": false, "LVEL": false, "CSHIFT": 0.1, "OMEGAMAX": -1.0, "DEG_THRESHOLD": 0.002, "RTIME": -0.1, "WPLASMAI": 0.0, "DFIELD": [0.0, 0.0, 0.0], "WPLASMA": [0.0, 0.0, 0.0, 0.0, 0.0, 0.0, 0.0, 0.0, 0.0], "NUCIND": false, "MAGPOS": [0.0, 0.0, 0.0], "LNICSALL": true, "ORBITALMAG": false, "LMAGBLOCH": false, "LCHIMAG": false, "LGAUGE": true, "MAGATOM": 0, "MAGDIPOL": [0.0, 0.0, 0.0], "AVECCONST": [0.0, 0.0, 0.0], "LFINITE_TEMPERATURE": false, "LADDER": false, "LRPAFORCE": false, "LFXC": false, "LHARTREE": true, "IBSE": 0, "KPOINT": [-1, 0, 0, 0], "LTCTC": false, "LTCTE": false, "LTETE": false, "LTRIPLET": false, "LFXCEPS": false, "LFXHEG": false, "NATURALO": 2, "LHOLEGF": false, "L2ORDER": false, "LDMP1": false, "LMP2LT": false, "LSMP2LT": false, "LGWLF": false, "ENCUTGW": -2.0, "ENCUTGWSOFT": -2.0, "ENCUTLF": -1.0, "LESF_SPLINES": false, "LMAXMP2": -1, "SCISSOR": 0.0, "NOMEGA": 0, "NOMEGAR": 0, "NBANDSGW": -1, "NBANDSO": -1, "NBANDSV": -1, "NELMGW": 1, "NELMHF": 1, "DIM": 3, "IESPILON": 4, "ANTIRES": 0, "OMEGAMIN": -30.0, "OMEGATL": -200.0, "OMEGAGRID": 0, "LSELFENERGY": false, "LSPECTRAL": false, "LSPECTRALGW": false, "LSINGLES": false, "LFERMIGW": false, "ODDONLYGW": false, "EVENONLYGW": false, "NKREDLFX": 1, "NKREDLFY": 1, "NKREDLFZ": 1, "MAXMEM": 2800, "TELESCOPE": 0, "NTAUPAR": -1, "NOMEGAPAR": -1, "DAMP_NEWTON": 0.80000001, "LAMBDA": 1.0, "OFIELD_KAPPA": 0.0, "OFIELD_K": [0.0, 0.0, 0.0], "OFIELD_Q6_NEAR": 0.0, "OFIELD_Q6_FAR": 0.0, "OFIELD_A": 0.0, "KPOINTS_OPT_MODE": 1, "LKPOINTS_OPT": false, "@module": "pymatgen.io.vasp.inputs", "@class": "Incar"}, "relaxed_structures": {"@module": "pymatgen.core.structure", "@class": "Structure", "charge": 0, "lattice": {"matrix": [[6.151192, 0.0, 0.0], [0.0, 11.669783, 0.0], [0.0, 0.0, 45.022626]], "a": 6.151192, "b": 11.669783, "c": 45.022626, "alpha": 90.0, "beta": 90.0, "gamma": 90.0, "volume": 3231.86257628388}, "sites": [{"species": [{"element": "Li", "occu": 1}], "abc": [0.53601956, 0.73079316, 0.04128876], "xyz": [3.2971592293155196, 8.528197595084281, 1.8589283994837602], "label": "Li", "properties": {}}, {"species": [{"element": "Li", "occu": 1}], "abc": [0.52268591, 0.31526028, 0.0024231], "xyz": [3.21514138810472, 3.67901905611924, 0.1090943250606], "label": "Li", "properties": {}}, {"species": [{"element": "Li", "occu": 1}], "abc": [0.50303215, 0.51829422, 0.07735389], "xyz": [3.0942473368228, 6.048381077554261, 3.48267525911514], "label": "Li", "properties": {}}, {"species": [{"element": "Li", "occu": 1}], "abc": [0.50358043, 0.17295494, 0.08075660999999999], "xyz": [3.0976199123725596, 2.01834661857802, 3.6358746490578597], "label": "Li", "properties": {}}, {"species": [{"element": "Li", "occu": 1}], "abc": [0.9965122, 0.17296854, 0.08076607999999999], "xyz": [6.1297378725424, 2.01850532762682, 3.63630101332608], "label": "Li", "properties": {}}, {"species": [{"element": "Li", "occu": 1}], "abc": [0.99792882, 0.51829794, 0.07738658], "xyz": [6.13845177415344, 6.04842448914702, 3.48414704875908], "label": "Li", "properties": {}}, {"species": [{"element": "Li", "occu": 1}], "abc": [0.97736296, 0.31520862, 0.00244561], "xyz": [6.01194722064832, 3.67841619512946, 0.11010778437186], "label": "Li", "properties": {}}, {"species": [{"element": "Li", "occu": 1}], "abc": [0.96551081, 0.73058873, 0.041330790000000006], "xyz": [5.93904237038552, 8.52581194134559, 1.8608207004545403], "label": "Li", "properties": {}}, {"species": [{"element": "Li", "occu": 1}], "abc": [0.75048055, 0.75671685, 0.09082182999999999], "xyz": [4.6163499553156, 8.83072143194355, 4.08903728472558], "label": "Li", "properties": {}}, {"species": [{"element": "Li", "occu": 1}], "abc": [0.25006072, 0.96710563, 0.06972734], "xyz": [1.5381715003782401, 11.285912840178291, 3.1393079507948403], "label": "Li", "properties": {}}, {"species": [{"element": "Li", "occu": 1}], "abc": [0.25005323, 0.54604802, 0.0075013499999999995], "xyz": [1.5381254279501602, 6.37226190097966, 0.3377304755451], "label": "Li", "properties": {}}, {"species": [{"element": "Li", "occu": 1}], "abc": [0.75006031, 0.32655322, 0.055205950000000004], "xyz": [4.613764978389519, 3.81080521535126, 2.4855168398247005], "label": "Li", "properties": {}}, {"species": [{"element": "Li", "occu": 1}], "abc": [0.49721143, 0.56626111, 0.1431998], "xyz": [3.05844297052456, 6.60814427503913, 6.4472310386748], "label": "Li", "properties": {}}, {"species": [{"element": "Li", "occu": 1}], "abc": [0.51086192, 0.94572716, 0.11397349999999999], "xyz": [3.14240975540864, 11.03643073440628, 5.131386264411], "label": "Li", "properties": {}}, {"species": [{"element": "Li", "occu": 1}], "abc": [0.50062714, 0.33209888, 0.17588526], "xyz": [3.0794536585508796, 3.8755218641430402, 7.91881627989276], "label": "Li", "properties": {}}, {"species": [{"element": "Li", "occu": 1}], "abc": [0.49864218, 0.99264577, 0.18270129], "xyz": [3.0672437884785597, 11.58396073176791, 8.22569184938754], "label": "Li", "properties": {}}, {"species": [{"element": "Li", "occu": 1}], "abc": [0.00154943, 0.99271591, 0.1827001], "xyz": [0.00953084142056, 11.58477925034753, 8.2256382724626], "label": "Li", "properties": {}}, {"species": [{"element": "Li", "occu": 1}], "abc": [0.99946139, 0.33211418, 0.1759099], "xyz": [6.14787890647688, 3.87570041182294, 7.919925637397401], "label": "Li", "properties": {}}, {"species": [{"element": "Li", "occu": 1}], "abc": [0.98978971, 0.94532674, 0.11396917999999999], "xyz": [6.088386545834321, 11.031757919897421, 5.13119176666668], "label": "Li", "properties": {}}, {"species": [{"element": "Li", "occu": 1}], "abc": [0.00287022, 0.56626737, 0.14320005], "xyz": [0.017655274302240002, 6.608217327880711, 6.4472422943313], "label": "Li", "properties": {}}, {"species": [{"element": "Li", "occu": 1}], "abc": [0.75001622, 0.56375168, 0.19210752], "xyz": [4.61349377233424, 6.57885977148544, 8.64918502474752], "label": "Li", "properties": {}}, {"species": [{"element": "Li", "occu": 1}], "abc": [0.2500315, 0.76234919, 0.1656833], "xyz": [1.5379917625480002, 8.896449617525771, 7.459497250345801], "label": "Li", "properties": {}}, {"species": [{"element": "Li", "occu": 1}], "abc": [0.25006888, 0.36770347, 0.10809358], "xyz": [1.53822169410496, 4.29101970324701, 4.86665682534108], "label": "Li", "properties": {}}, {"species": [{"element": "Li", "occu": 1}], "abc": [0.75005585, 0.13854761, 0.15144425], "xyz": [4.613737544073199, 1.61682054386863, 6.8184178276005], "label": "Li", "properties": {}}, {"species": [{"element": "Li", "occu": 1}], "abc": [0.49870975, 0.3823386, 0.24328618], "xyz": [3.067659424522, 4.4618084945238, 10.953382693108681], "label": "Li", "properties": {}}, {"species": [{"element": "Li", "occu": 1}], "abc": [0.5011002, 0.76036372, 0.21545794], "xyz": [3.0823635414384, 8.87327961347276, 9.70048225135044], "label": "Li", "properties": {}}, {"species": [{"element": "Li", "occu": 1}], "abc": [0.50225366, 0.14877012, 0.27631853], "xyz": [3.0894586953627203, 1.7361150172839601, 12.440585833059782], "label": "Li", "properties": {}}, {"species": [{"element": "Li", "occu": 1}], "abc": [0.49825282, 0.81069464, 0.28320490000000004], "xyz": [3.06484876036144, 9.46063052806312, 12.750628294067402], "label": "Li", "properties": {}}, {"species": [{"element": "Li", "occu": 1}], "abc": [0.00196086, 0.81070137, 0.28321418000000004], "xyz": [0.012061626345120001, 9.46070906570271, 12.751046104036682], "label": "Li", "properties": {}}, {"species": [{"element": "Li", "occu": 1}], "abc": [0.99777895, 0.14877204, 0.27631734], "xyz": [6.1375298950084005, 1.7361374232673201, 12.440532256134842], "label": "Li", "properties": {}}, {"species": [{"element": "Li", "occu": 1}], "abc": [0.99893092, 0.7603654, 0.21545777], "xyz": [6.14461588365664, 8.8732992187082, 9.70047459750402], "label": "Li", "properties": {}}, {"species": [{"element": "Li", "occu": 1}], "abc": [0.00133372, 0.38234258, 0.24328632], "xyz": [0.00820396779424, 4.46185494026014, 10.95338899627632], "label": "Li", "properties": {}}, {"species": [{"element": "Li", "occu": 1}], "abc": [0.7501305, 0.38147664, 0.29221806], "xyz": [4.614196730556, 4.45174960836912, 13.156424425825561], "label": "Li", "properties": {}}, {"species": [{"element": "Li", "occu": 1}], "abc": [0.25001309, 0.57813364, 0.26674097], "xyz": [1.53787851910328, 6.74669412380012, 12.009378931187221], "label": "Li", "properties": {}}, {"species": [{"element": "Li", "occu": 1}], "abc": [0.25005945, 0.18623547, 0.20639674], "xyz": [1.5381636883644, 2.17332752180301, 9.29252323263924], "label": "Li", "properties": {}}, {"species": [{"element": "Li", "occu": 1}], "abc": [0.75002699, 0.9548926, 0.25182995], "xyz": [4.61356002067208, 11.1433894303058, 11.338045654448702], "label": "Li", "properties": {}}, {"species": [{"element": "Li", "occu": 1}], "abc": [0.49808376, 0.19975946, 0.34416189], "xyz": [3.06380883984192, 2.33114955039718, 15.495072056923142], "label": "Li", "properties": {}}, {"species": [{"element": "Li", "occu": 1}], "abc": [0.5020655, 0.57724994, 0.31597781], "xyz": [3.0883012870760003, 6.7363815365630195, 14.226150763929063], "label": "Li", "properties": {}}, {"species": [{"element": "Li", "occu": 1}], "abc": [0.50318345, 0.96701941, 0.37701667], "xyz": [3.0951780121723997, 11.28490667148803, 16.97428052917542], "label": "Li", "properties": {}}, {"species": [{"element": "Li", "occu": 1}], "abc": [0.49890213, 0.62776979, 0.38357849000000005], "xyz": [3.06884279083896, 7.32593722325557, 17.26971089691474], "label": "Li", "properties": {}}, {"species": [{"element": "Li", "occu": 1}], "abc": [0.00100277, 0.6279459, 0.38359959000000005], "xyz": [0.00616823080184, 7.3279923887397, 17.270660874323344], "label": "Li", "properties": {}}, {"species": [{"element": "Li", "occu": 1}], "abc": [0.99696026, 0.96688101, 0.37703245], "xyz": [6.13249397562992, 11.283291573520831, 16.9749909862137], "label": "Li", "properties": {}}, {"species": [{"element": "Li", "occu": 1}], "abc": [0.99794007, 0.57725765, 0.31597875000000003], "xyz": [6.1385209750634395, 6.73647151058995, 14.226193085197503], "label": "Li", "properties": {}}, {"species": [{"element": "Li", "occu": 1}], "abc": [0.0019165, 0.19973671, 0.34416412], "xyz": [0.011788759468000001, 2.3308840628339302, 15.495172457379121], "label": "Li", "properties": {}}, {"species": [{"element": "Li", "occu": 1}], "abc": [0.7499444, 0.19680254, 0.39363357000000004], "xyz": [4.6130519937248, 2.29664293564882, 17.722417003154824], "label": "Li", "properties": {}}, {"species": [{"element": "Li", "occu": 1}], "abc": [0.24969811, 0.39619078, 0.36719849000000004], "xyz": [1.53594101664712, 4.62346042920074, 16.532240283034742], "label": "Li", "properties": {}}, {"species": [{"element": "Li", "occu": 1}], "abc": [0.25001718, 0.00378594, 0.30776177000000005], "xyz": [1.53790367747856, 0.04418109825102, 13.856243067808023], "label": "Li", "properties": {}}, {"species": [{"element": "Li", "occu": 1}], "abc": [0.74999576, 0.77255202, 0.35271627], "xyz": [4.6133679189459205, 9.015514429611661, 15.88021270832502], "label": "Li", "properties": {}}, {"species": [{"element": "Li", "occu": 1}], "abc": [0.48982602, 0.01422518, 0.44524803], "xyz": [3.0130138956158397, 0.16600476373594, 20.046235531926783], "label": "Li", "properties": {}}, {"species": [{"element": "Li", "occu": 1}], "abc": [0.5028561, 0.39377971, 0.41587739], "xyz": [3.0931644194712002, 4.59532376550293, 18.723892191826142], "label": "Li", "properties": {}}, {"species": [{"element": "Li", "occu": 1}], "abc": [0.49564235, 0.78733995, 0.4786093], "xyz": [3.0487912581812, 9.18808636373085, 21.548247514021803], "label": "Li", "properties": {}}, {"species": [{"element": "Li", "occu": 1}], "abc": [0.49700252, 0.43986383, 0.48191559], "xyz": [3.05715792500384, 5.13311544564889, 21.69710537213934], "label": "Li", "properties": {}}, {"species": [{"element": "Li", "occu": 1}], "abc": [0.00288606, 0.43986307, 0.48190342], "xyz": [0.01775270918352, 5.133106576613811, 21.696557446780922], "label": "Li", "properties": {}}, {"species": [{"element": "Li", "occu": 1}], "abc": [0.00378786, 0.78748063, 0.47859516], "xyz": [0.02329985412912, 9.18972806880329, 21.547610894090163], "label": "Li", "properties": {}}, {"species": [{"element": "Li", "occu": 1}], "abc": [0.99489902, 0.39368927, 0.41598453], "xyz": [6.119814892631839, 4.59426835032841, 18.728715915975783], "label": "Li", "properties": {}}, {"species": [{"element": "Li", "occu": 1}], "abc": [0.01007182, 0.01424304, 0.44524431000000003], "xyz": [0.06195369860944, 0.16621318606032, 20.046068047758062], "label": "Li", "properties": {}}, {"species": [{"element": "Li", "occu": 1}], "abc": [0.74984867, 0.99318202, 0.48939380000000005], "xyz": [4.61246314011464, 11.59021865290166, 22.0337940241188], "label": "Li", "properties": {}}, {"species": [{"element": "Li", "occu": 1}], "abc": [0.2499746, 0.20223706, 0.46831478000000004], "xyz": [1.5376417597232, 2.3600626047579802, 21.084761190212284], "label": "Li", "properties": {}}, {"species": [{"element": "Li", "occu": 1}], "abc": [0.25004479, 0.82159391, 0.4078412], "xyz": [1.53807351188968, 9.58782264382153, 18.362081814991203], "label": "Li", "properties": {}}, {"species": [{"element": "Li", "occu": 1}], "abc": [0.74995793, 0.5912319, 0.45128892000000004], "xyz": [4.61313521935256, 6.8995479756777005, 20.318212263103923], "label": "Li", "properties": {}}, {"species": [{"element": "Li", "occu": 1}], "abc": [0.47737766, 0.64186259, 0.55665009], "xyz": [2.93644164317072, 7.49039714111797, 25.06184881493634], "label": "Li", "properties": {}}, {"species": [{"element": "Li", "occu": 1}], "abc": [0.46431026, 0.22782525, 0.51805734], "xyz": [2.85606155682992, 2.6586712294207504, 23.324301865374842], "label": "Li", "properties": {}}, {"species": [{"element": "Li", "occu": 1}], "abc": [0.03538919, 0.2278407, 0.51799258], "xyz": [0.21768570241448001, 2.6588515275681, 23.321386200115082], "label": "Li", "properties": {}}, {"species": [{"element": "Li", "occu": 1}], "abc": [0.02152598, 0.64257832, 0.5567457100000001], "xyz": [0.13241043596816, 7.498749554904561, 25.066153878434463], "label": "Li", "properties": {}}, {"species": [{"element": "Li", "occu": 1}], "abc": [0.24979782, 0.63236007, 0.5039762], "xyz": [1.53655435200144, 7.379504794764811, 22.6903319655012], "label": "Li", "properties": {}}, {"species": [{"element": "Li", "occu": 1}], "abc": [0.74989549, 0.41037622, 0.55205414], "xyz": [4.61275113892408, 4.789001435760261, 24.85492707697164], "label": "Li", "properties": {}}, {"species": [{"element": "P", "occu": 1}], "abc": [0.75025123, 0.97616992, 0.053492420000000006], "xyz": [4.61493936396616, 11.391691137527362, 2.4083692194949204], "label": "P", "properties": {}}, {"species": [{"element": "P", "occu": 1}], "abc": [0.75022267, 0.53121864, 0.019381699999999998], "xyz": [4.6147636859226395, 6.19920625435512, 0.8726150303442], "label": "P", "properties": {}}, {"species": [{"element": "P", "occu": 1}], "abc": [0.25013912, 0.33591737, 0.041797100000000004], "xyz": [1.5386537538310399, 3.9200828138307102, 1.8818152011846003], "label": "P", "properties": {}}, {"species": [{"element": "P", "occu": 1}], "abc": [0.25039116, 0.72184575, 0.09962842999999999], "xyz": [1.54020410026272, 8.42378326197225, 4.48553354285718], "label": "P", "properties": {}}, {"species": [{"element": "P", "occu": 1}], "abc": [0.75005428, 0.79109434, 0.15735558], "xyz": [4.61372788670176, 9.231899280328221, 7.08456142735308], "label": "P", "properties": {}}, {"species": [{"element": "P", "occu": 1}], "abc": [0.75014505, 0.36109734, 0.11968735], "xyz": [4.6142862303996, 4.21392759967722, 5.3886387959811], "label": "P", "properties": {}}, {"species": [{"element": "P", "occu": 1}], "abc": [0.25010013, 0.1446492, 0.1389573], "xyz": [1.53841391885496, 1.6880247751236002, 6.2562225478698], "label": "P", "properties": {}}, {"species": [{"element": "P", "occu": 1}], "abc": [0.25005425, 0.53446298, 0.20107236], "xyz": [1.538131702166, 6.237066998133341, 9.052805663217361], "label": "P", "properties": {}}, {"species": [{"element": "P", "occu": 1}], "abc": [0.75003211, 0.60885065, 0.25781409000000005], "xyz": [4.61359151477512, 7.105154964908951, 11.607467351600343], "label": "P", "properties": {}}, {"species": [{"element": "P", "occu": 1}], "abc": [0.75011762, 0.17885748, 0.21890336], "xyz": [4.61411750320304, 2.0872279795268405, 9.85560410742336], "label": "P", "properties": {}}, {"species": [{"element": "P", "occu": 1}], "abc": [0.25006481, 0.96349575, 0.23998828], "xyz": [1.53819665875352, 11.24378632392225, 10.80490257482328], "label": "P", "properties": {}}, {"species": [{"element": "P", "occu": 1}], "abc": [0.25002426, 0.35130763, 0.30151248], "xyz": [1.53794722791792, 4.09968380834429, 13.574883621372482], "label": "P", "properties": {}}, {"species": [{"element": "P", "occu": 1}], "abc": [0.74990527, 0.42527007, 0.35818739000000005], "xyz": [4.61281129758184, 4.962809433294811, 16.126536897886144], "label": "P", "properties": {}}, {"species": [{"element": "P", "occu": 1}], "abc": [0.75004706, 0.99637729, 0.31954190000000005], "xyz": [4.61368347509552, 11.627506760428071, 14.386615455029403], "label": "P", "properties": {}}, {"species": [{"element": "P", "occu": 1}], "abc": [0.2500248, 0.78105282, 0.34054218], "xyz": [1.5379505495616, 9.11471692093806, 15.332103207364682], "label": "P", "properties": {}}, {"species": [{"element": "P", "occu": 1}], "abc": [0.24980784, 0.16841477, 0.40196507000000004], "xyz": [1.53661598694528, 1.96536381989491, 18.09752301167382], "label": "P", "properties": {}}, {"species": [{"element": "P", "occu": 1}], "abc": [0.74973567, 0.2374993, 0.45961151], "xyz": [4.61176805541864, 2.7715652936519, 20.69291712002526], "label": "P", "properties": {}}, {"species": [{"element": "P", "occu": 1}], "abc": [0.74998613, 0.81450574, 0.42044314000000005], "xyz": [4.61330868296696, 9.505105238054421, 18.929454246485644], "label": "P", "properties": {}}, {"species": [{"element": "P", "occu": 1}], "abc": [0.2498846, 0.59848849, 0.43966867000000004], "xyz": [1.5370881524432, 6.984230806297671, 19.795038093327424], "label": "P", "properties": {}}, {"species": [{"element": "P", "occu": 1}], "abc": [0.24966784, 0.98331623, 0.50584345], "xyz": [1.53575482006528, 11.475087024478091, 22.7744004638997], "label": "P", "properties": {}}, {"species": [{"element": "P", "occu": 1}], "abc": [0.7498438, 0.62192448, 0.51735399], "xyz": [4.6124331838096, 7.257723723987841, 23.292635201377742], "label": "P", "properties": {}}, {"species": [{"element": "P", "occu": 1}], "abc": [0.2496227, 0.42673492, 0.53998525], "xyz": [1.5354771552584001, 4.97990391492236, 24.3115539562665], "label": "P", "properties": {}}, {"species": [{"element": "O", "occu": 1}], "abc": [0.45681642, 0.68405938, 0.08194731], "xyz": [2.80996550817264, 7.98282452371454, 3.68948308983606], "label": "O", "properties": {}}, {"species": [{"element": "O", "occu": 1}], "abc": [0.5451357, 0.00896095, 0.07329228], "xyz": [3.3532343567544, 0.10457234197385001, 3.29981091112728], "label": "O", "properties": {}}, {"species": [{"element": "O", "occu": 1}], "abc": [0.54198788, 0.60444545, 0.014336390000000001], "xyz": [3.33387151155296, 7.053747236837351, 0.6454619251601401], "label": "O", "properties": {}}, {"species": [{"element": "O", "occu": 1}], "abc": [0.46138052, 0.26421959, 0.04415054], "xyz": [2.8380401635798402, 3.08338527964897, 1.9877732501180403], "label": "O", "properties": {}}, {"species": [{"element": "O", "occu": 1}], "abc": [0.03894361, 0.26420834, 0.04416657], "xyz": [0.23954962228312, 3.08325399459022, 1.9884949628128201], "label": "O", "properties": {}}, {"species": [{"element": "O", "occu": 1}], "abc": [0.95839869, 0.60443164, 0.01431526], "xyz": [5.89529435473848, 7.053586077134121, 0.64451059707276], "label": "O", "properties": {}}, {"species": [{"element": "O", "occu": 1}], "abc": [0.9552146, 0.00908867, 0.07330251], "xyz": [5.8757084058032, 0.10606280665861001, 3.30027149259126], "label": "O", "properties": {}}, {"species": [{"element": "O", "occu": 1}], "abc": [0.04412731, 0.68403318, 0.081913], "xyz": [0.27143555625352, 7.9825187753999405, 3.687938363538], "label": "O", "properties": {}}, {"species": [{"element": "O", "occu": 1}], "abc": [0.7505951, 0.83969023, 0.051493550000000006], "xyz": [4.6170545743592, 9.79900277132009, 2.3183748430623004], "label": "O", "properties": {}}, {"species": [{"element": "O", "occu": 1}], "abc": [0.25025614, 0.43332659, 0.06511314], "xyz": [1.5393735663188801, 5.05682727342997, 2.93156454990564], "label": "O", "properties": {}}, {"species": [{"element": "O", "occu": 1}], "abc": [0.75009925, 0.41976017, 0.00010000000000000026], "xyz": [4.614004505806, 4.89851009594311, 0.004502262600000012], "label": "O", "properties": {}}, {"species": [{"element": "O", "occu": 1}], "abc": [0.75012813, 0.03361, 0.02371328], "xyz": [4.61418215223096, 0.39222140663000005, 1.06763413667328], "label": "O", "properties": {}}, {"species": [{"element": "O", "occu": 1}], "abc": [0.75041205, 0.49202034, 0.05289706], "xyz": [4.6159285986636, 5.7417705993862205, 2.38156454887956], "label": "O", "properties": {}}, {"species": [{"element": "O", "occu": 1}], "abc": [0.25004101, 0.38362544, 0.008939720000000002], "xyz": [1.5380502603839201, 4.47682563807952, 0.4024896701047201], "label": "O", "properties": {}}, {"species": [{"element": "O", "occu": 1}], "abc": [0.45680399, 0.4956445, 0.18371289], "xyz": [2.80988904885608, 5.7840637601435, 8.27123673784914], "label": "O", "properties": {}}, {"species": [{"element": "O", "occu": 1}], "abc": [0.54302727, 0.82942248, 0.17470528999999999], "xyz": [3.3402649990058397, 9.67918035692184, 7.86569093189154], "label": "O", "properties": {}}, {"species": [{"element": "O", "occu": 1}], "abc": [0.54316214, 0.43745403, 0.11632213], "xyz": [3.3410946102708796, 5.10499360257549, 5.23712775451338], "label": "O", "properties": {}}, {"species": [{"element": "O", "occu": 1}], "abc": [0.4575383, 0.06907899, 0.14267549999999998], "xyz": [2.8144059306536002, 0.8061368231591701, 6.423625675863], "label": "O", "properties": {}}, {"species": [{"element": "O", "occu": 1}], "abc": [0.04273008, 0.06903475, 0.14266241], "xyz": [0.26284092625536, 0.8056205519592501, 6.42303632968866], "label": "O", "properties": {}}, {"species": [{"element": "O", "occu": 1}], "abc": [0.95716952, 0.43743184, 0.11631342], "xyz": [5.88773349406784, 5.1047346500907205, 5.23673560744092], "label": "O", "properties": {}}, {"species": [{"element": "O", "occu": 1}], "abc": [0.95709163, 0.82941641, 0.17470305], "xyz": [5.88725437772296, 9.679109521339031, 7.865590081209301], "label": "O", "properties": {}}, {"species": [{"element": "O", "occu": 1}], "abc": [0.04329753, 0.49565447, 0.1837133], "xyz": [0.26633142015576, 5.784180107880011, 8.2712551971258], "label": "O", "properties": {}}, {"species": [{"element": "O", "occu": 1}], "abc": [0.7500576, 0.65849135, 0.15386507], "xyz": [4.6137483086592, 7.684451161877051, 6.92740950107382], "label": "O", "properties": {}}, {"species": [{"element": "O", "occu": 1}], "abc": [0.25024136, 0.85395171, 0.10350675], "xyz": [1.5392826517011202, 9.965431148178931, 4.6601456937255], "label": "O", "properties": {}}, {"species": [{"element": "O", "occu": 1}], "abc": [0.25007891, 0.24068488, 0.16302923], "xyz": [1.5382833905607198, 2.80874032098104, 7.34000404935798], "label": "O", "properties": {}}, {"species": [{"element": "O", "occu": 1}], "abc": [0.7500955, 0.26549873, 0.09573235], "xyz": [4.613981438836, 3.0983125658755903, 4.3101217901511], "label": "O", "properties": {}}, {"species": [{"element": "O", "occu": 1}], "abc": [0.25015801, 0.66179213, 0.13062203], "xyz": [1.53876994984792, 7.722970548207791, 5.88094680405078], "label": "O", "properties": {}}, {"species": [{"element": "O", "occu": 1}], "abc": [0.75008984, 0.84881569, 0.12608866], "xyz": [4.61394662308928, 9.905494909295271, 5.67684258202116], "label": "O", "properties": {}}, {"species": [{"element": "O", "occu": 1}], "abc": [0.75013295, 0.30525364, 0.15112887], "xyz": [4.6142118009764, 3.5622437387601202, 6.80421859181262], "label": "O", "properties": {}}, {"species": [{"element": "O", "occu": 1}], "abc": [0.2501641, 0.19907845, 0.10725245], "xyz": [1.5388074106072, 2.32320231147635, 4.8287869439337], "label": "O", "properties": {}}, {"species": [{"element": "O", "occu": 1}], "abc": [0.45700131, 0.31259638, 0.28417233000000003], "xyz": [2.81110280206152, 3.64793192118554, 12.794184533138582], "label": "O", "properties": {}}, {"species": [{"element": "O", "occu": 1}], "abc": [0.54308153, 0.64737731, 0.27518491], "xyz": [3.34059876268376, 7.554752726823731, 12.38954728377366], "label": "O", "properties": {}}, {"species": [{"element": "O", "occu": 1}], "abc": [0.54289758, 0.25500519, 0.21556345999999998], "xyz": [3.33946725091536, 2.97585523117377, 9.70523303884596], "label": "O", "properties": {}}, {"species": [{"element": "O", "occu": 1}], "abc": [0.45701265, 0.88715183, 0.24323097], "xyz": [2.8111725565788, 10.352869344152891, 10.95089699392722], "label": "O", "properties": {}}, {"species": [{"element": "O", "occu": 1}], "abc": [0.04313012, 0.88714762, 0.24322562], "xyz": [0.26530164910304, 10.35282021436646, 10.95065612287812], "label": "O", "properties": {}}, {"species": [{"element": "O", "occu": 1}], "abc": [0.95741563, 0.2549642, 0.21557505999999999], "xyz": [5.88924736393096, 2.9753768867685997, 9.70575530130756], "label": "O", "properties": {}}, {"species": [{"element": "O", "occu": 1}], "abc": [0.95698853, 0.6473802, 0.27518442000000004], "xyz": [5.8866201898277595, 7.5547864524966, 12.389525222686922], "label": "O", "properties": {}}, {"species": [{"element": "O", "occu": 1}], "abc": [0.04304263, 0.31260701, 0.28416826], "xyz": [0.26476348131495997, 3.6480559709788305, 12.79400129105076], "label": "O", "properties": {}}, {"species": [{"element": "O", "occu": 1}], "abc": [0.75000895, 0.47618635, 0.25435582], "xyz": [4.6134490531684005, 5.5569913720620505, 11.451766954783322], "label": "O", "properties": {}}, {"species": [{"element": "O", "occu": 1}], "abc": [0.25004179, 0.66712361, 0.20423644], "xyz": [1.5380550583136798, 7.78518776287663, 9.19526085369144], "label": "O", "properties": {}}, {"species": [{"element": "O", "occu": 1}], "abc": [0.2500181, 0.05740167, 0.26448453000000005], "xyz": [1.5379093365752001, 0.6698650327376101, 11.907788076975782], "label": "O", "properties": {}}, {"species": [{"element": "O", "occu": 1}], "abc": [0.75010226, 0.08428251, 0.19457296], "xyz": [4.61402302089392, 0.9835586023953301, 8.76018560779296], "label": "O", "properties": {}}, {"species": [{"element": "O", "occu": 1}], "abc": [0.25005057, 0.47705124, 0.23238024999999998], "xyz": [1.53810906577944, 5.5670844506809205, 10.4623690855365], "label": "O", "properties": {}}, {"species": [{"element": "O", "occu": 1}], "abc": [0.75001538, 0.66620244, 0.22649085], "xyz": [4.61348860533296, 7.77443790887052, 10.1972128319721], "label": "O", "properties": {}}, {"species": [{"element": "O", "occu": 1}], "abc": [0.75002957, 0.12236904, 0.25034385000000003], "xyz": [4.61357589074744, 1.4280201427183201, 11.271137529950103], "label": "O", "properties": {}}, {"species": [{"element": "O", "occu": 1}], "abc": [0.25011304, 0.02014057, 0.20856919999999998], "xyz": [1.53849333074368, 0.23503608139631002, 9.390333086719199], "label": "O", "properties": {}}, {"species": [{"element": "O", "occu": 1}], "abc": [0.45695035, 0.1300696, 0.38465959000000005], "xyz": [2.8107893373172, 1.5178840068968003, 17.318384857883345], "label": "O", "properties": {}}, {"species": [{"element": "O", "occu": 1}], "abc": [0.54306816, 0.46422856, 0.37552482000000004], "xyz": [3.34051652124672, 5.417446557602481, 16.907113524577323], "label": "O", "properties": {}}, {"species": [{"element": "O", "occu": 1}], "abc": [0.54296289, 0.07257402, 0.31630315000000003], "xyz": [3.33986898526488, 0.8469230648376601, 14.240798425071903], "label": "O", "properties": {}}, {"species": [{"element": "O", "occu": 1}], "abc": [0.45729327, 0.7048399, 0.34379894], "xyz": [2.8128987040778397, 8.2253286827417, 15.47873109481644], "label": "O", "properties": {}}, {"species": [{"element": "O", "occu": 1}], "abc": [0.0427604, 0.70485179, 0.34380598], "xyz": [0.2630274303968, 8.225467436461571, 15.479048054103481], "label": "O", "properties": {}}, {"species": [{"element": "O", "occu": 1}], "abc": [0.95710088, 0.07258853, 0.3162936], "xyz": [5.88731127624896, 0.84709239338899, 14.2403684589936], "label": "O", "properties": {}}, {"species": [{"element": "O", "occu": 1}], "abc": [0.95651713, 0.4643162, 0.37555076000000004], "xyz": [5.8837205179189604, 5.4184692973846005, 16.908281411495764], "label": "O", "properties": {}}, {"species": [{"element": "O", "occu": 1}], "abc": [0.04272054, 0.12985827, 0.38467349], "xyz": [0.26278224388368, 1.51541783165541, 17.319010672384742], "label": "O", "properties": {}}, {"species": [{"element": "O", "occu": 1}], "abc": [0.75002686, 0.2925879, 0.3552075], "xyz": [4.61355922101712, 3.4144373014257003, 15.992374424895], "label": "O", "properties": {}}, {"species": [{"element": "O", "occu": 1}], "abc": [0.25001366, 0.48397791, 0.30488464000000004], "xyz": [1.53788202528272, 5.6479171864935305, 13.726707119864642], "label": "O", "properties": {}}, {"species": [{"element": "O", "occu": 1}], "abc": [0.25009935, 0.87557916, 0.36489516], "xyz": [1.5384091209252, 10.21781879652228, 16.428538317890162], "label": "O", "properties": {}}, {"species": [{"element": "O", "occu": 1}], "abc": [0.75005904, 0.90238341, 0.29503725000000003], "xyz": [4.61375716637568, 10.53061857750003, 13.283351762818501], "label": "O", "properties": {}}, {"species": [{"element": "O", "occu": 1}], "abc": [0.24998581, 0.29415053, 0.33288378], "xyz": [1.53771071458552, 3.4326728544349905, 14.987301928406282], "label": "O", "properties": {}}, {"species": [{"element": "O", "occu": 1}], "abc": [0.74999197, 0.48219125, 0.32683487], "xyz": [4.61334460592824, 5.62706725199875, 14.714964115768622], "label": "O", "properties": {}}, {"species": [{"element": "O", "occu": 1}], "abc": [0.75005956, 0.93931245, 0.35091500000000003], "xyz": [4.61376036499552, 10.961572460698351, 15.799114802790003], "label": "O", "properties": {}}, {"species": [{"element": "O", "occu": 1}], "abc": [0.25000428, 0.83748306, 0.30910323], "xyz": [1.5378243271017602, 9.77324557637598, 13.916639119681982], "label": "O", "properties": {}}, {"species": [{"element": "O", "occu": 1}], "abc": [0.45484163, 0.95068284, 0.48602289000000004], "xyz": [2.79781819572296, 11.094262444623721, 21.88202680390914], "label": "O", "properties": {}}, {"species": [{"element": "O", "occu": 1}], "abc": [0.54360838, 0.27469508, 0.47740045000000003], "xyz": [3.34383951818896, 3.20563197476764, 21.4938219125817], "label": "O", "properties": {}}, {"species": [{"element": "O", "occu": 1}], "abc": [0.5429037, 0.89039747, 0.41674822], "xyz": [3.3395048962104, 10.39074525864901, 18.76309924522572], "label": "O", "properties": {}}, {"species": [{"element": "O", "occu": 1}], "abc": [0.45668016, 0.52193248, 0.44299609], "xyz": [2.80912734675072, 6.090838782251841, 19.944847279532343], "label": "O", "properties": {}}, {"species": [{"element": "O", "occu": 1}], "abc": [0.04304792, 0.52196517, 0.44298408], "xyz": [0.26479602112064005, 6.09122026745811, 19.944306557794082], "label": "O", "properties": {}}, {"species": [{"element": "O", "occu": 1}], "abc": [0.95730622, 0.89025742, 0.41677230000000004], "xyz": [5.88857436201424, 10.38911090553986, 18.764183390059802], "label": "O", "properties": {}}, {"species": [{"element": "O", "occu": 1}], "abc": [0.95620503, 0.27473339, 0.47732417000000005], "xyz": [5.88180073089576, 3.2060790441543703, 21.490387586670423], "label": "O", "properties": {}}, {"species": [{"element": "O", "occu": 1}], "abc": [0.04456137, 0.95076701, 0.48600919000000004], "xyz": [0.27410554265304, 11.09524469025883, 21.881409993932945], "label": "O", "properties": {}}, {"species": [{"element": "O", "occu": 1}], "abc": [0.74982, 0.10545334, 0.45555880000000004], "xyz": [4.61228678544, 1.2306175944252202, 20.510453473408802], "label": "O", "properties": {}}, {"species": [{"element": "O", "occu": 1}], "abc": [0.24941086, 0.30100558, 0.40540131], "xyz": [1.5341740867451201, 3.51266980038914, 18.252231560040062], "label": "O", "properties": {}}, {"species": [{"element": "O", "occu": 1}], "abc": [0.24977402, 0.69407377, 0.46361799000000004], "xyz": [1.53640795363184, 8.099690281891911, 20.873299370641742], "label": "O", "properties": {}}, {"species": [{"element": "O", "occu": 1}], "abc": [0.7499359, 0.71870673, 0.39633436], "xyz": [4.6129997085928, 8.38715157973959, 17.84401366122936], "label": "O", "properties": {}}, {"species": [{"element": "O", "occu": 1}], "abc": [0.24996221, 0.11048014, 0.43319895], "xyz": [1.5375655464543199, 1.28927925960962, 19.5037543094427], "label": "O", "properties": {}}, {"species": [{"element": "O", "occu": 1}], "abc": [0.74931419, 0.29803936, 0.42868019], "xyz": [4.60917545101448, 3.47805465665888, 19.30030786797894], "label": "O", "properties": {}}, {"species": [{"element": "O", "occu": 1}], "abc": [0.74977833, 0.76011603, 0.45215160000000004], "xyz": [4.612030465269361, 8.870389124921491, 20.357052382101603], "label": "O", "properties": {}}, {"species": [{"element": "O", "occu": 1}], "abc": [0.24999623, 0.65465304, 0.40826503000000003], "xyz": [1.5377748100061601, 7.639658917090321, 18.38116375456878], "label": "O", "properties": {}}, {"species": [{"element": "O", "occu": 1}], "abc": [0.53858967, 0.69380012, 0.51510691], "xyz": [3.31296846938664, 8.096496845773961, 23.19146575894566], "label": "O", "properties": {}}, {"species": [{"element": "O", "occu": 1}], "abc": [0.45774628, 0.35341318, 0.54503431], "xyz": [2.81568525556576, 4.12425511993994, 24.538875896298062], "label": "O", "properties": {}}, {"species": [{"element": "O", "occu": 1}], "abc": [0.04157973, 0.35331041, 0.54499641], "xyz": [0.25576490253816003, 4.12305581634103, 24.537169538772662], "label": "O", "properties": {}}, {"species": [{"element": "O", "occu": 1}], "abc": [0.96079959, 0.69401645, 0.5151232], "xyz": [5.91006275161128, 8.09902136993035, 23.1921991775232], "label": "O", "properties": {}}, {"species": [{"element": "O", "occu": 1}], "abc": [0.24981758, 0.11968302, 0.50781487], "xyz": [1.53667589955536, 1.39667487218466, 22.863158969248623], "label": "O", "properties": {}}, {"species": [{"element": "O", "occu": 1}], "abc": [0.24939996, 0.53792119, 0.55935766], "xyz": [1.5341070387523201, 6.277423558401771, 25.18375072641516], "label": "O", "properties": {}}, {"species": [{"element": "O", "occu": 1}], "abc": [0.74997817, 0.52500222, 0.49392115000000003], "xyz": [4.6132597194786396, 6.12666198191826, 22.2376272099399], "label": "O", "properties": {}}, {"species": [{"element": "O", "occu": 1}], "abc": [0.24947155, 0.92582592, 0.53559957], "xyz": [1.5345474025875998, 10.804187582175361, 24.114099125870823], "label": "O", "properties": {}}, {"species": [{"element": "O", "occu": 1}], "abc": [0.74981925, 0.57336947, 0.5501288400000001], "xyz": [4.612282172046, 6.691097293725011, 24.768245015133843], "label": "O", "properties": {}}, {"species": [{"element": "O", "occu": 1}], "abc": [0.24976226, 0.46626435, 0.50649711], "xyz": [1.53633561561392, 5.44120378513605, 22.80382995361086], "label": "O", "properties": {}}]}, "formula": "(Li3PO4)22.0", "bandgap": 3.8472, "slab_thickness": 25.17924846381516}