{"miller": "110_0.50", "final_energy": -1000.22658762, "gamma": 0.03867890659762816, "work_function": "Not calculated", "ionization_potentail": "Not calculated", "electron_affinity": "Not calculated", "is_stochiometric": true, "incar_parameters": {"SYSTEM": "unknown system", "LCOMPAT": false, "PREC": "normal", "ENMAX": 520.0, "ENAUG": 628.945, "EDIFF": 1e-05, "IALGO": 38, "IWAVPR": 11, "NBANDS": 462, "NBANDSLOW": -1, "NBANDSHIGH": -1, "NELECT": 760.0, "TURBO": 0, "IRESTART": 0, "NREBOOT": 0, "NMIN": 0, "EREF": 0.0, "ISMEAR": 0, "SIGMA": 0.05, "KSPACING": 0.5, "KGAMMA": true, "KBLOWUP": true, "LREAL": true, "ROPT": [-0.0005, -0.0005, -0.0005], "LMAXPAW": -100, "LMAXMIX": 2, "NLSPLINE": false, "ISTART": 0, "ICHARG": 2, "INIWAV": 1, "ISPIN": 1, "LNONCOLLINEAR": false, "MAGMOM": [0.6, 0.6, 0.6, 0.6, 0.6, 0.6, 0.6, 0.6, 0.6, 0.6, 0.6, 0.6, 0.6, 0.6, 0.6, 0.6, 0.6, 0.6, 0.6, 0.6, 0.6, 0.6, 0.6, 0.6, 0.6, 0.6, 0.6, 0.6, 0.6, 0.6, 0.6, 0.6, 0.6, 0.6, 0.6, 0.6, 0.6, 0.6, 0.6, 0.6, 0.6, 0.6, 0.6, 0.6, 0.6, 0.6, 0.6, 0.6, 0.6, 0.6, 0.6, 0.6, 0.6, 0.6, 0.6, 0.6, 0.6, 0.6, 0.6, 0.6, 0.6, 0.6, 0.6, 0.6, 0.6, 0.6, 0.6, 0.6, 0.6, 0.6, 0.6, 0.6, 0.6, 0.6, 0.6, 0.6, 0.6, 0.6, 0.6, 0.6, 0.6, 0.6, 0.6, 0.6, 0.6, 0.6, 0.6, 0.6, 0.6, 0.6, 0.6, 0.6, 0.6, 0.6, 0.6, 0.6, 0.6, 0.6, 0.6, 0.6, 0.6, 0.6, 0.6, 0.6, 0.6, 0.6, 0.6, 0.6, 0.6, 0.6, 0.6, 0.6, 0.6, 0.6, 0.6, 0.6, 0.6, 0.6, 0.6, 0.6, 0.6, 0.6, 0.6, 0.6, 0.6, 0.6, 0.6, 0.6, 0.6, 0.6, 0.6, 0.6, 0.6, 0.6, 0.6, 0.6, 0.6, 0.6, 0.6, 0.6, 0.6, 0.6, 0.6, 0.6, 0.6, 0.6, 0.6, 0.6, 0.6, 0.6, 0.6, 0.6, 0.6, 0.6, 0.6, 0.6, 0.6, 0.6, 0.6, 0.6], "NUPDOWN": -1.0, "LSORBIT": false, "SAXIS": [0.0, 0.0, 1.0], "LSPIRAL": false, "QSPIRAL": [0.0, 0.0, 0.0], "LZEROZ": false, "LASPH": false, "LMETAGGA": false, "NELM": 100, "NELMDL": -5, "NELMIN": 6, "ENINI": 520.0, "LDIAG": true, "LSUBROT": false, "WEIMIN": 0.001, "EBREAK": 1e-08, "DEPER": 0.3, "NRMM": 4, "TIME": 0.4, "AMIX": 0.4, "BMIX": 1.0, "AMIN": 0.1, "AMIX_MAG": 1.6, "BMIX_MAG": 1.0, "IMIX": 4, "MIXFIRST": false, "MAXMIX": -45, "WC": 100.0, "INIMIX": 1, "MIXPRE": 1, "MREMOVE": 5, "LDIPOL": false, "LMONO": false, "IDIPOL": 0, "EPSILON": 1.0, "DIPOL": [-100.0, -100.0, -100.0], "EFIELD": 0.0, "NGX": 60, "NGY": 48, "NGZ": 240, "NGXF": 120, "NGYF": 96, "NGZF": 480, "ADDGRID": false, "NSW": 150, "IBRION": 2, "MDALGO": 0, "ISIF": 2, "PSTRESS": 0.0, "EDIFFG": -0.01, "NFREE": 1, "POTIM": 0.5, "SMASS": -3.0, "SCALEE": 1.0, "TEBEG": 0.0001, "TEEND": 0.0001, "NBLOCK": 1, "KBLOCK": 150, "NPACO": 256, "APACO": 10.0, "ISYM": 0, "SYMPREC": 1e-05, "LORBIT": 11, "RWIGS": [-1.0, -1.0, -1.0], "NEDOS": 301, "EMIN": 10.0, "EMAX": -10.0, "EFERMI": 0.0, "NWRITE": 2, "LWAVE": false, "LDOWNSAMPLE": false, "LCHARG": false, "LPARD": false, "LVTOT": false, "LVHAR": false, "LELF": false, "LOPTICS": false, "STM": [0.0, 0.0, 0.0, 0.0, 0.0, 0.0, 0.0], "NPAR": 2, "NSIM": 4, "NBLK": -1, "LPLANE": true, "LSCALAPACK": true, "LSCAAWARE": false, "LSCALU": false, "LASYNC": false, "LORBITALREAL": false, "IDIOT": 3, "PHON_NSTRUCT": -1, "LMUSIC": false, "POMASS": [7.01, 30.974, 16.0], "DARWINR": [0.0, 0.0, 0.0], "DARWINV": [1.0, 1.0, 1.0], "LCORR": true, "GGA_COMPAT": true, "LBERRY": false, "ICORELEVEL": 0, "LDAU": false, "I_CONSTRAINED_M": 0, "GGA": "--", "VOSKOWN": 0, "LHFCALC": false, "PRECFOCK": "", "LSYMGRAD": false, "LHFONE": false, "LRHFCALC": false, "LTHOMAS": false, "LMODELHF": false, "LFOCKACE": false, "ENCUT4O": -1.0, "EXXOEP": 0, "FOURORBIT": 0, "AEXX": 0.0, "HFALPHA": 0.0, "MCALPHA": 0.0, "ALDAX": 1.0, "AGGAX": 1.0, "ALDAC": 1.0, "AGGAC": 1.0, "NKREDX": 1, "NKREDY": 1, "NKREDZ": 1, "SHIFTRED": false, "ODDONLY": false, "EVENONLY": false, "LMAXFOCK": 0, "NMAXFOCKAE": 0, "LFOCKAEDFT": false, "HFSCREEN": 0.0, "HFSCREENC": 0.0, "NBANDSGWLOW": 0, "LUSE_VDW": false, "Zab_VDW": -0.8491, "PARAM1": 0.1234, "PARAM2": 1.0, "PARAM3": 0.0, "MODEL_GW": 0, "MODEL_EPS0": 13.33143161, "MODEL_ALPHA": 1.0, "LEPSILON": false, "LRPA": false, "LNABLA": false, "LVEL": false, "CSHIFT": 0.1, "OMEGAMAX": -1.0, "DEG_THRESHOLD": 0.002, "RTIME": -0.1, "WPLASMAI": 0.0, "DFIELD": [0.0, 0.0, 0.0], "WPLASMA": [0.0, 0.0, 0.0, 0.0, 0.0, 0.0, 0.0, 0.0, 0.0], "NUCIND": false, "MAGPOS": [0.0, 0.0, 0.0], "LNICSALL": true, "ORBITALMAG": false, "LMAGBLOCH": false, "LCHIMAG": false, "LGAUGE": true, "MAGATOM": 0, "MAGDIPOL": [0.0, 0.0, 0.0], "AVECCONST": [0.0, 0.0, 0.0], "LFINITE_TEMPERATURE": false, "LADDER": false, "LRPAFORCE": false, "LFXC": false, "LHARTREE": true, "IBSE": 0, "KPOINT": [-1, 0, 0, 0], "LTCTC": false, "LTCTE": false, "LTETE": false, "LTRIPLET": false, "LFXCEPS": false, "LFXHEG": false, "NATURALO": 2, "LHOLEGF": false, "L2ORDER": false, "LDMP1": false, "LMP2LT": false, "LSMP2LT": false, "LGWLF": false, "ENCUTGW": -2.0, "ENCUTGWSOFT": -2.0, "ENCUTLF": -1.0, "LESF_SPLINES": false, "LMAXMP2": -1, "SCISSOR": 0.0, "NOMEGA": 0, "NOMEGAR": 0, "NBANDSGW": -1, "NBANDSO": -1, "NBANDSV": -1, "NELMGW": 1, "NELMHF": 1, "DIM": 3, "IESPILON": 4, "ANTIRES": 0, "OMEGAMIN": -30.0, "OMEGATL": -200.0, "OMEGAGRID": 0, "LSELFENERGY": false, "LSPECTRAL": false, "LSPECTRALGW": false, "LSINGLES": false, "LFERMIGW": false, "ODDONLYGW": false, "EVENONLYGW": false, "NKREDLFX": 1, "NKREDLFY": 1, "NKREDLFZ": 1, "MAXMEM": 2800, "TELESCOPE": 0, "NTAUPAR": -1, "NOMEGAPAR": -1, "DAMP_NEWTON": 0.80000001, "LAMBDA": 1.0, "OFIELD_KAPPA": 0.0, "OFIELD_K": [0.0, 0.0, 0.0], "OFIELD_Q6_NEAR": 0.0, "OFIELD_Q6_FAR": 0.0, "OFIELD_A": 0.0, "KPOINTS_OPT_MODE": 1, "LKPOINTS_OPT": false, "@module": "pymatgen.io.vasp.inputs", "@class": "Incar"}, "relaxed_structures": {"@module": "pymatgen.core.structure", "@class": "Structure", "charge": 0, "lattice": {"matrix": [[10.554851, 0.0, 0.0], [0.0, 7.913034, 0.0], [0.0, 0.0, 42.564779]], "a": 10.554851, "b": 7.913034, "c": 42.564779, "alpha": 90.0, "beta": 90.0, "gamma": 90.0, "volume": 3555.0484302332534}, "sites": [{"species": [{"element": "Li", "occu": 1}], "abc": [0.8347493, 0.18029503, 0.020996160000000007], "xyz": [8.8106544838543, 1.42668070242102, 0.8936969102486403], "label": "Li", "properties": {}}, {"species": [{"element": "Li", "occu": 1}], "abc": [0.33268638, 0.21160542, 0.011367209999999996], "xyz": [3.5114551706293797, 1.6744408830442798, 0.4838427814965898], "label": "Li", "properties": {}}, {"species": [{"element": "Li", "occu": 1}], "abc": [0.66523371, 0.68027836, 0.020980069999999996], "xyz": [7.021442689227209, 5.383065792144239, 0.8930120429545298], "label": "Li", "properties": {}}, {"species": [{"element": "Li", "occu": 1}], "abc": [0.16731029, 0.71160307, 0.011367430000000005], "xyz": [1.7659351817167899, 5.63093928741438, 0.4838521457479702], "label": "Li", "properties": {}}, {"species": [{"element": "Li", "occu": 1}], "abc": [0.91807537, 0.54286309, 0.0008918400000000049], "xyz": [9.690148737119868, 4.295694088515059, 0.03796097250336021], "label": "Li", "properties": {}}, {"species": [{"element": "Li", "occu": 1}], "abc": [0.58192273, 0.04286377, 0.0008916600000000025], "xyz": [6.1421077086632305, 0.33918246937818003, 0.0379533108431401], "label": "Li", "properties": {}}, {"species": [{"element": "Li", "occu": 1}], "abc": [0.15980984, 0.02677499, 0.05070114], "xyz": [1.6867690495338399, 0.21187140621965997, 2.15808281914806], "label": "Li", "properties": {}}, {"species": [{"element": "Li", "occu": 1}], "abc": [0.8351821, 0.78499578, 0.10895891999999999], "xyz": [8.8152226233671, 6.21169829699652, 4.637812349878679], "label": "Li", "properties": {}}, {"species": [{"element": "Li", "occu": 1}], "abc": [0.33456354, 0.8306939, 0.09716169], "xyz": [3.53126831473254, 6.5733090742926, 4.13566586211651], "label": "Li", "properties": {}}, {"species": [{"element": "Li", "occu": 1}], "abc": [0.66648154, 0.98442349, 0.06435255000000001], "xyz": [7.03461334895054, 7.7897765467686595, 2.7391520688364506], "label": "Li", "properties": {}}, {"species": [{"element": "Li", "occu": 1}], "abc": [0.66481696, 0.28499575, 0.1089591], "xyz": [7.0170439550729595, 2.2551810596055, 4.6378200115389], "label": "Li", "properties": {}}, {"species": [{"element": "Li", "occu": 1}], "abc": [0.34018913, 0.52677168, 0.05070195], "xyz": [3.59064557896963, 4.16836221407712, 2.15811729661905], "label": "Li", "properties": {}}, {"species": [{"element": "Li", "occu": 1}], "abc": [0.83351341, 0.48442617, 0.06435238000000001], "xyz": [8.79760984905191, 3.8332807536997797, 2.739144832824021], "label": "Li", "properties": {}}, {"species": [{"element": "Li", "occu": 1}], "abc": [0.1654382, 0.33069331, 0.09716126], "xyz": [1.7461755507082, 2.61678740560254, 4.13564755926154], "label": "Li", "properties": {}}, {"species": [{"element": "Li", "occu": 1}], "abc": [0.0724605, 0.64212065, 0.08446324999999999], "xyz": [0.7648097808854999, 5.081122535552099, 3.5951595698717496], "label": "Li", "properties": {}}, {"species": [{"element": "Li", "occu": 1}], "abc": [0.92645546, 0.17257745, 0.07748021999999999], "xyz": [9.77859933843646, 1.3656112294832998, 3.2979284411713796], "label": "Li", "properties": {}}, {"species": [{"element": "Li", "occu": 1}], "abc": [0.42753965, 0.14212434, 0.08446306], "xyz": [4.512617302342149, 1.1246347346475598, 3.5951514825637405], "label": "Li", "properties": {}}, {"species": [{"element": "Li", "occu": 1}], "abc": [0.57354536, 0.67258074, 0.07747822999999998], "xyz": [6.05368581654136, 5.32215426336516, 3.2978437372611693], "label": "Li", "properties": {}}, {"species": [{"element": "Li", "occu": 1}], "abc": [0.16370835, 0.63346463, 0.14407661], "xyz": [1.72791724170585, 5.0126271549874195, 6.13258906371919], "label": "Li", "properties": {}}, {"species": [{"element": "Li", "occu": 1}], "abc": [0.83651296, 0.3902947, 0.19917839999999998], "xyz": [8.829269652368959, 3.0884152311197997, 8.477984577573599], "label": "Li", "properties": {}}, {"species": [{"element": "Li", "occu": 1}], "abc": [0.33643947, 0.43160687, 0.18959844], "xyz": [3.55106847636897, 3.4153198369435795, 8.07021569734476], "label": "Li", "properties": {}}, {"species": [{"element": "Li", "occu": 1}], "abc": [0.66263988, 0.589795, 0.15430668], "xyz": [6.994065200057879, 4.667067888029999, 6.56802973242372], "label": "Li", "properties": {}}, {"species": [{"element": "Li", "occu": 1}], "abc": [0.66348821, 0.89029336, 0.19917780000000002], "xyz": [7.00301919680671, 7.04492162765424, 8.477959038706201], "label": "Li", "properties": {}}, {"species": [{"element": "Li", "occu": 1}], "abc": [0.33629176, 0.13346772, 0.1440759], "xyz": [3.5495094193277597, 1.0561346062624801, 6.132558842726101], "label": "Li", "properties": {}}, {"species": [{"element": "Li", "occu": 1}], "abc": [0.83735999, 0.08979701, 0.15430697999999998], "xyz": [8.83820992781149, 0.7105667932283399, 6.56804250185742], "label": "Li", "properties": {}}, {"species": [{"element": "Li", "occu": 1}], "abc": [0.16356174, 0.93160525, 0.18959834], "xyz": [1.72636979500074, 7.3718240178285, 8.07021144086686], "label": "Li", "properties": {}}, {"species": [{"element": "Li", "occu": 1}], "abc": [0.07574858, 0.24105205, 0.17631939], "xyz": [0.7995149753615799, 1.9074530674196999, 7.5049958687648095], "label": "Li", "properties": {}}, {"species": [{"element": "Li", "occu": 1}], "abc": [0.9258746, 0.7801666, 0.16766462999999998], "xyz": [9.772468447684599, 6.1734848314644, 7.136607922066769], "label": "Li", "properties": {}}, {"species": [{"element": "Li", "occu": 1}], "abc": [0.42425211, 0.74105055, 0.17631929999999998], "xyz": [4.47791780748561, 5.863958197868699, 7.5049920379346995], "label": "Li", "properties": {}}, {"species": [{"element": "Li", "occu": 1}], "abc": [0.57412799, 0.28016891, 0.16766446999999998], "xyz": [6.05983538937949, 2.21698611057294, 7.136601111702129], "label": "Li", "properties": {}}, {"species": [{"element": "Li", "occu": 1}], "abc": [0.16335267, 0.23585315, 0.23597879], "xyz": [1.72416309230217, 1.8663139949571, 10.04438504503741], "label": "Li", "properties": {}}, {"species": [{"element": "Li", "occu": 1}], "abc": [0.83597743, 0.993732, 0.29081263], "xyz": [8.82361721301293, 7.863435102887999, 12.378375326358771], "label": "Li", "properties": {}}, {"species": [{"element": "Li", "occu": 1}], "abc": [0.33711802, 0.03528759, 0.28097331], "xyz": [3.55823047051502, 0.27923189944806, 11.959566845048489], "label": "Li", "properties": {}}, {"species": [{"element": "Li", "occu": 1}], "abc": [0.66405764, 0.19368277, 0.2455061], "xyz": [7.00902944561164, 1.5326183442241799, 10.4499128896519], "label": "Li", "properties": {}}, {"species": [{"element": "Li", "occu": 1}], "abc": [0.66402486, 0.49373509, 0.29081237], "xyz": [7.00868345759586, 3.90694255416306, 12.37836425951623], "label": "Li", "properties": {}}, {"species": [{"element": "Li", "occu": 1}], "abc": [0.33665095, 0.73585312, 0.23597889], "xyz": [3.5533006162584497, 5.82283075756608, 10.04438930151531], "label": "Li", "properties": {}}, {"species": [{"element": "Li", "occu": 1}], "abc": [0.83594376, 0.69368137, 0.24550629000000002], "xyz": [8.82326183117976, 5.48912426597658, 10.44992097695991], "label": "Li", "properties": {}}, {"species": [{"element": "Li", "occu": 1}], "abc": [0.16288269, 0.53528955, 0.28097309], "xyz": [1.7192025234291899, 4.2357644089947, 11.959557480797109], "label": "Li", "properties": {}}, {"species": [{"element": "Li", "occu": 1}], "abc": [0.07408936, 0.84495163, 0.26762297], "xyz": [0.78200215548536, 6.686130976545419, 11.39131257337363], "label": "Li", "properties": {}}, {"species": [{"element": "Li", "occu": 1}], "abc": [0.92442289, 0.38387861, 0.25894842], "xyz": [9.757145864939389, 3.0376444928027397, 11.022082269699181], "label": "Li", "properties": {}}, {"species": [{"element": "Li", "occu": 1}], "abc": [0.42591178, 0.34495261, 0.26762231999999997], "xyz": [4.49543537704478, 2.7296217313187396, 11.391284906267279], "label": "Li", "properties": {}}, {"species": [{"element": "Li", "occu": 1}], "abc": [0.57558201, 0.88388044, 0.25894784], "xyz": [6.07518235383051, 6.99417597365496, 11.02205758212736], "label": "Li", "properties": {}}, {"species": [{"element": "Li", "occu": 1}], "abc": [0.16490783, 0.83933324, 0.32623774], "xyz": [1.74057757438333, 6.64167246545016, 13.88623730455946], "label": "Li", "properties": {}}, {"species": [{"element": "Li", "occu": 1}], "abc": [0.83941789, 0.59972436, 0.3844244], "xyz": [8.85993075568439, 4.74563925130824, 16.362939628207602], "label": "Li", "properties": {}}, {"species": [{"element": "Li", "occu": 1}], "abc": [0.33337013, 0.64025663, 0.37079995], "xyz": [3.5186720500006294, 5.06637248191542, 15.783017924961051], "label": "Li", "properties": {}}, {"species": [{"element": "Li", "occu": 1}], "abc": [0.66474699, 0.79588602, 0.33797562999999997], "xyz": [7.01630543214849, 6.29787313638468, 14.38585799833577], "label": "Li", "properties": {}}, {"species": [{"element": "Li", "occu": 1}], "abc": [0.66058099, 0.09973569, 0.38442367], "xyz": [6.97233392288249, 0.78921190598346, 16.36290855591893], "label": "Li", "properties": {}}, {"species": [{"element": "Li", "occu": 1}], "abc": [0.33508319, 0.33933776, 0.32623684], "xyz": [3.5367531430546895, 2.68519123236384, 13.88619899625836], "label": "Li", "properties": {}}, {"species": [{"element": "Li", "occu": 1}], "abc": [0.83525581, 0.2958806, 0.3379763], "xyz": [8.81600062143431, 2.3413132477403997, 14.3858865167377], "label": "Li", "properties": {}}, {"species": [{"element": "Li", "occu": 1}], "abc": [0.16666123, 0.14027373, 0.370817], "xyz": [1.7590844501267298, 1.1099907947968202, 15.783743654443], "label": "Li", "properties": {}}, {"species": [{"element": "Li", "occu": 1}], "abc": [0.07374933, 0.45303764, 0.35789384], "xyz": [0.77841318949983, 3.58490224859976, 15.233672205061362], "label": "Li", "properties": {}}, {"species": [{"element": "Li", "occu": 1}], "abc": [0.92735089, 0.9833386, 0.35068411], "xyz": [9.78805046866739, 7.781191775312399, 14.92679164096169], "label": "Li", "properties": {}}, {"species": [{"element": "Li", "occu": 1}], "abc": [0.4262584, 0.95304695, 0.35789603], "xyz": [4.4990938994983996, 7.541492918946299, 15.23376542192737], "label": "Li", "properties": {}}, {"species": [{"element": "Li", "occu": 1}], "abc": [0.57264813, 0.48334594, 0.35068195], "xyz": [6.04421568757863, 3.8247328569819596, 14.926699701039052], "label": "Li", "properties": {}}, {"species": [{"element": "Li", "occu": 1}], "abc": [0.16530447, 0.44485296, 0.41451374], "xyz": [1.7447640504839699, 3.52013659748064, 17.643685735563462], "label": "Li", "properties": {}}, {"species": [{"element": "Li", "occu": 1}], "abc": [0.66735099, 0.41416628, 0.4240304], "xyz": [7.04379026415249, 3.2773118552935196, 18.0487602652816], "label": "Li", "properties": {}}, {"species": [{"element": "Li", "occu": 1}], "abc": [0.33470188, 0.94485288, 0.41451718], "xyz": [3.53272847281988, 7.476652964437919, 17.64383215840322], "label": "Li", "properties": {}}, {"species": [{"element": "Li", "occu": 1}], "abc": [0.83264264, 0.91414647, 0.42403025], "xyz": [8.78841900144664, 7.23367209808998, 18.04875388056475], "label": "Li", "properties": {}}, {"species": [{"element": "Li", "occu": 1}], "abc": [0.08014872, 0.08185889, 0.43444896], "xyz": [0.84595779744072, 0.64775217977226, 18.49222396917984], "label": "Li", "properties": {}}, {"species": [{"element": "Li", "occu": 1}], "abc": [0.4198091, 0.58187704, 0.43444763], "xyz": [4.4310224989441, 4.604412801339359, 18.49216735802377], "label": "Li", "properties": {}}, {"species": [{"element": "P", "occu": 1}], "abc": [0.09110368, 0.38275242, 0.028648689999999997], "xyz": [0.96158576795168, 3.0287329130422798, 1.21942515848951], "label": "P", "properties": {}}, {"species": [{"element": "P", "occu": 1}], "abc": [0.40889352, 0.88274804, 0.028648230000000004], "xyz": [4.31581017846552, 6.985215253953359, 1.2194055786911702], "label": "P", "properties": {}}, {"species": [{"element": "P", "occu": 1}], "abc": [0.08911649, 0.98232801, 0.12081522], "xyz": [0.94061127359299, 7.77319494228234, 5.1424731391363805], "label": "P", "properties": {}}, {"species": [{"element": "P", "occu": 1}], "abc": [0.91039023, 0.82665708, 0.040785999999999996], "xyz": [9.609033229505728, 6.54136558038072, 1.736047076294], "label": "P", "properties": {}}, {"species": [{"element": "P", "occu": 1}], "abc": [0.41088417, 0.48232798, 0.12081459], "xyz": [4.33682119260867, 3.81667770489132, 5.14244632332561], "label": "P", "properties": {}}, {"species": [{"element": "P", "occu": 1}], "abc": [0.58960012, 0.32666388, 0.04078539], "xyz": [6.223141416182119, 2.58490238901192, 1.73602111177881], "label": "P", "properties": {}}, {"species": [{"element": "P", "occu": 1}], "abc": [0.0888895, 0.58517467, 0.21243030000000002], "xyz": [0.9382154279644999, 4.63050705964878, 9.042048772403701], "label": "P", "properties": {}}, {"species": [{"element": "P", "occu": 1}], "abc": [0.91263284, 0.43615937, 0.13155543], "xyz": [9.63270364390684, 3.45134392422858, 5.5996278041999705], "label": "P", "properties": {}}, {"species": [{"element": "P", "occu": 1}], "abc": [0.41111369, 0.085176, 0.21243001], "xyz": [4.339243742010189, 0.674000583984, 9.04203642861779], "label": "P", "properties": {}}, {"species": [{"element": "P", "occu": 1}], "abc": [0.58736821, 0.93616347, 0.13155493], "xyz": [6.199583938686709, 7.40789336766798, 5.59960652181047], "label": "P", "properties": {}}, {"species": [{"element": "P", "occu": 1}], "abc": [0.08743275, 0.18934012, 0.30365071], "xyz": [0.9228396487702499, 1.49825480712408, 12.92482536434309], "label": "P", "properties": {}}, {"species": [{"element": "P", "occu": 1}], "abc": [0.91139338, 0.04020308, 0.22271823000000002], "xyz": [9.61962132828638, 0.31812833894472, 9.479952239221172], "label": "P", "properties": {}}, {"species": [{"element": "P", "occu": 1}], "abc": [0.41257206, 0.689362, 0.30364593], "xyz": [4.35463662006306, 5.454944944308, 12.924621904699471], "label": "P", "properties": {}}, {"species": [{"element": "P", "occu": 1}], "abc": [0.5886113, 0.54020669, 0.22271789999999997], "xyz": [6.212704568416299, 4.27467390499746, 9.479938192844099], "label": "P", "properties": {}}, {"species": [{"element": "P", "occu": 1}], "abc": [0.0894564, 0.79873707, 0.39455797], "xyz": [0.9441989729964, 6.32043359197038, 16.794272795738628], "label": "P", "properties": {}}, {"species": [{"element": "P", "occu": 1}], "abc": [0.9108948, 0.6436395, 0.31431826], "xyz": [9.614358890674799, 5.093141247243, 13.37888727256454], "label": "P", "properties": {}}, {"species": [{"element": "P", "occu": 1}], "abc": [0.41054483, 0.29876404, 0.39455765], "xyz": [4.33323950947033, 2.36413000649736, 16.79425917500935], "label": "P", "properties": {}}, {"species": [{"element": "P", "occu": 1}], "abc": [0.58910424, 0.14364888, 0.31431760999999997], "xyz": [6.217907476668239, 1.13669847150192, 13.378859605458189], "label": "P", "properties": {}}, {"species": [{"element": "P", "occu": 1}], "abc": [0.90867291, 0.24354504, 0.40648789], "xyz": [9.590907172786409, 1.9271801820513599, 17.30206720402631], "label": "P", "properties": {}}, {"species": [{"element": "P", "occu": 1}], "abc": [0.59131901, 0.74359119, 0.40648126], "xyz": [6.241284044017509, 5.88406236857046, 17.301784999541542], "label": "P", "properties": {}}, {"species": [{"element": "O", "occu": 1}], "abc": [0.15957474, 0.21600778, 0.02198961], "xyz": [1.6842876040637398, 1.70927690740452, 0.93598288994619], "label": "O", "properties": {}}, {"species": [{"element": "O", "occu": 1}], "abc": [0.66421352, 0.24131924, 0.013212999999999996], "xyz": [7.0106747357855195, 1.9095673509741597, 0.5624084249269998], "label": "O", "properties": {}}, {"species": [{"element": "O", "occu": 1}], "abc": [0.34042472, 0.71601489, 0.021990210000000003], "xyz": [3.59313219631672, 5.6658501690762595, 0.9360084288135901], "label": "O", "properties": {}}, {"species": [{"element": "O", "occu": 1}], "abc": [0.83577424, 0.74131715, 0.01321394], "xyz": [8.821472572838239, 5.8660678127331, 0.5624484358192601], "label": "O", "properties": {}}, {"species": [{"element": "O", "occu": 1}], "abc": [0.05008831, 0.85572688, 0.032230299999999996], "xyz": [0.5286746488918099, 6.771395896153919, 1.3718755966037], "label": "O", "properties": {}}, {"species": [{"element": "O", "occu": 1}], "abc": [0.44989952, 0.3557246, 0.03222933000000001], "xyz": [4.74862239857152, 2.8148608544363998, 1.3718343087680704], "label": "O", "properties": {}}, {"species": [{"element": "O", "occu": 1}], "abc": [0.09135315, 0.50452026, 0.00010170000000000318], "xyz": [0.9642188866306499, 3.9922859710688403, 0.0043288380243001355], "label": "O", "properties": {}}, {"species": [{"element": "O", "occu": 1}], "abc": [0.40864213, 0.00451877, 0.00010000000000000286], "xyz": [4.313156794472629, 0.03575718064818, 0.004256477900000122], "label": "O", "properties": {}}, {"species": [{"element": "O", "occu": 1}], "abc": [0.15869645, 0.81606188, 0.11145552], "xyz": [1.6750173839789497, 6.4575254025439195, 4.74407957713008], "label": "O", "properties": {}}, {"species": [{"element": "O", "occu": 1}], "abc": [0.84381539, 0.99752447, 0.049505429999999996], "xyz": [8.90634571295689, 7.89344504694198, 2.10718768724997], "label": "O", "properties": {}}, {"species": [{"element": "O", "occu": 1}], "abc": [0.34634911, 0.97087353, 0.05770827], "xyz": [3.65566325003261, 7.68255525259002, 2.45633975902233], "label": "O", "properties": {}}, {"species": [{"element": "O", "occu": 1}], "abc": [0.6571072, 0.85058084, 0.10327507], "xyz": [6.9356685870272, 6.73067510666856, 4.39588053075953], "label": "O", "properties": {}}, {"species": [{"element": "O", "occu": 1}], "abc": [0.65616849, 0.49754032, 0.0495012], "xyz": [6.925760642844989, 3.9370534685308796, 2.1070076382348], "label": "O", "properties": {}}, {"species": [{"element": "O", "occu": 1}], "abc": [0.34129778, 0.31606445, 0.11145365999999998], "xyz": [3.6023472145307798, 2.5010287390413, 4.744000406641139], "label": "O", "properties": {}}, {"species": [{"element": "O", "occu": 1}], "abc": [0.84289754, 0.35057775, 0.10327581], "xyz": [8.896657942966538, 2.7741336553935, 4.39591202869599], "label": "O", "properties": {}}, {"species": [{"element": "O", "occu": 1}], "abc": [0.15365489, 0.47087712, 0.05770734], "xyz": [1.6218044693713898, 3.7260666603820796, 2.4563001737778603], "label": "O", "properties": {}}, {"species": [{"element": "O", "occu": 1}], "abc": [0.05079782, 0.47834956, 0.12190476], "xyz": [0.53616342122482, 3.78519633216504, 5.18884916844804], "label": "O", "properties": {}}, {"species": [{"element": "O", "occu": 1}], "abc": [0.94494181, 0.34986905, 0.03583045000000001], "xyz": [9.97372000822031, 2.7685256881977, 1.5251151857205503], "label": "O", "properties": {}}, {"species": [{"element": "O", "occu": 1}], "abc": [0.44920278, 0.9783652, 0.12190362999999999], "xyz": [4.7412684116857795, 7.7418370920168, 5.188801070247769], "label": "O", "properties": {}}, {"species": [{"element": "O", "occu": 1}], "abc": [0.5550592, 0.84986605, 0.03582619], "xyz": [5.8585671521792, 6.7250189490957, 1.5249338597620101], "label": "O", "properties": {}}, {"species": [{"element": "O", "occu": 1}], "abc": [0.09025093, 0.10588876, 0.09222715000000001], "xyz": [0.9525851187614298, 0.8379013580978399, 3.9256282575498505], "label": "O", "properties": {}}, {"species": [{"element": "O", "occu": 1}], "abc": [0.90220527, 0.70664281, 0.06998854999999998], "xyz": [9.52264219626477, 5.591688581385539, 2.979047163280449], "label": "O", "properties": {}}, {"species": [{"element": "O", "occu": 1}], "abc": [0.40974647, 0.60589871, 0.09222801], "xyz": [4.3248129386259695, 4.7944970927861394, 3.92566486325979], "label": "O", "properties": {}}, {"species": [{"element": "O", "occu": 1}], "abc": [0.59779976, 0.20665457, 0.06998914], "xyz": [6.30968739463576, 1.63526463866538, 2.97907227650006], "label": "O", "properties": {}}, {"species": [{"element": "O", "occu": 1}], "abc": [0.15906285, 0.4191672, 0.20309474], "xyz": [1.67888468138535, 3.3168843052848, 8.64468272416246], "label": "O", "properties": {}}, {"species": [{"element": "O", "occu": 1}], "abc": [0.84091181, 0.6008998, 0.14107435999999998], "xyz": [8.87569885869031, 4.7549405479932, 6.004798955966439], "label": "O", "properties": {}}, {"species": [{"element": "O", "occu": 1}], "abc": [0.34118458, 0.56581448, 0.14917574], "xyz": [3.60115240539758, 4.47730921793232, 6.3496324052614606], "label": "O", "properties": {}}, {"species": [{"element": "O", "occu": 1}], "abc": [0.6584668, 0.45583422, 0.19445001], "xyz": [6.9500189624468, 3.60703168122348, 8.27672170219779], "label": "O", "properties": {}}, {"species": [{"element": "O", "occu": 1}], "abc": [0.65909457, 0.10089888, 0.14107487999999999], "xyz": [6.95664498125907, 0.7984162680019199, 6.00482108965152], "label": "O", "properties": {}}, {"species": [{"element": "O", "occu": 1}], "abc": [0.34094508, 0.91916752, 0.20309433999999998], "xyz": [3.59862451858308, 7.27340383745568, 8.64466569825086], "label": "O", "properties": {}}, {"species": [{"element": "O", "occu": 1}], "abc": [0.84154025, 0.95584151, 0.19445056], "xyz": [8.88233194925275, 7.56360636724134, 8.27674511282624], "label": "O", "properties": {}}, {"species": [{"element": "O", "occu": 1}], "abc": [0.15881625, 0.06581538, 0.14917575], "xyz": [1.6762818551287497, 0.52079933966292, 6.3496328309092505], "label": "O", "properties": {}}, {"species": [{"element": "O", "occu": 1}], "abc": [0.05035903, 0.08120097, 0.21325224999999998], "xyz": [0.53153205815453, 0.6425460364429799, 9.07703489250275], "label": "O", "properties": {}}, {"species": [{"element": "O", "occu": 1}], "abc": [0.94983329, 0.94136095, 0.13033883], "xyz": [10.02534885078979, 7.4490212036223, 5.5478434940685695], "label": "O", "properties": {}}, {"species": [{"element": "O", "occu": 1}], "abc": [0.44964252, 0.58120008, 0.21325137], "xyz": [4.74590980186452, 4.59905599384272, 9.07699743549723], "label": "O", "properties": {}}, {"species": [{"element": "O", "occu": 1}], "abc": [0.55016873, 0.44135553, 0.13033935], "xyz": [5.80694897000923, 3.4924613149780197, 5.54786562775365], "label": "O", "properties": {}}, {"species": [{"element": "O", "occu": 1}], "abc": [0.08997307, 0.70881539, 0.18383754], "xyz": [0.9496523478625699, 5.60888028079326, 7.82500426200366], "label": "O", "properties": {}}, {"species": [{"element": "O", "occu": 1}], "abc": [0.9116424, 0.31197203, 0.16002294], "xyz": [9.622249697282399, 2.46864528043902, 6.81134107603026], "label": "O", "properties": {}}, {"species": [{"element": "O", "occu": 1}], "abc": [0.41003055, 0.20881637, 0.18383784], "xyz": [4.32781136069805, 1.65237103556658, 7.82501703143736], "label": "O", "properties": {}}, {"species": [{"element": "O", "occu": 1}], "abc": [0.58835837, 0.81197178, 0.16002162], "xyz": [6.21003492995287, 6.42516030218052, 6.81128489052198], "label": "O", "properties": {}}, {"species": [{"element": "O", "occu": 1}], "abc": [0.1588861, 0.02430726, 0.29420181], "xyz": [1.6770191114711, 0.19234417482684, 12.522635024049992], "label": "O", "properties": {}}, {"species": [{"element": "O", "occu": 1}], "abc": [0.8411967, 0.20620619, 0.23209126000000002], "xyz": [8.8787058301917, 1.63171659248046, 9.878913189731541], "label": "O", "properties": {}}, {"species": [{"element": "O", "occu": 1}], "abc": [0.34134668, 0.1696112, 0.24070852999999998], "xyz": [3.60286334674468, 1.3421391923808, 10.24570538286487], "label": "O", "properties": {}}, {"species": [{"element": "O", "occu": 1}], "abc": [0.65867933, 0.05993212, 0.28594818], "xyz": [6.95226218492983, 0.47424490325207996, 12.17132108715222], "label": "O", "properties": {}}, {"species": [{"element": "O", "occu": 1}], "abc": [0.65881225, 0.70621773, 0.23209058999999999], "xyz": [6.95366513572475, 5.58832490889282, 9.87888467132961], "label": "O", "properties": {}}, {"species": [{"element": "O", "occu": 1}], "abc": [0.3411148, 0.52433237, 0.29420261], "xyz": [3.6004158878948, 4.1490598711105795, 12.52266907587319], "label": "O", "properties": {}}, {"species": [{"element": "O", "occu": 1}], "abc": [0.84132206, 0.55991379, 0.2859487], "xyz": [8.880028986313059, 4.430616857338859, 12.1713432208373], "label": "O", "properties": {}}, {"species": [{"element": "O", "occu": 1}], "abc": [0.15865758, 0.6696062, 0.24071001999999997], "xyz": [1.6746071169205798, 5.2986166272108, 10.245768804385579], "label": "O", "properties": {}}, {"species": [{"element": "O", "occu": 1}], "abc": [0.05025728, 0.68406747, 0.30479466], "xyz": [0.53045810206528, 5.41304914840398, 12.97351734328014], "label": "O", "properties": {}}, {"species": [{"element": "O", "occu": 1}], "abc": [0.94984831, 0.5443422, 0.22189590999999997], "xyz": [10.02550738465181, 4.3073983362348, 9.444950370153888], "label": "O", "properties": {}}, {"species": [{"element": "O", "occu": 1}], "abc": [0.44974251, 0.18407347, 0.30479436], "xyz": [4.74696518141601, 1.4565796266079798, 12.97350457384644], "label": "O", "properties": {}}, {"species": [{"element": "O", "occu": 1}], "abc": [0.55015315, 0.04435291, 0.22189816], "xyz": [5.80678452543065, 0.35096608482894, 9.44504614090664], "label": "O", "properties": {}}, {"species": [{"element": "O", "occu": 1}], "abc": [0.08878688, 0.31344222, 0.27516976], "xyz": [0.9371322891548799, 2.4802789438954798, 11.71254002188304], "label": "O", "properties": {}}, {"species": [{"element": "O", "occu": 1}], "abc": [0.91025223, 0.91647456, 0.25127976], "xyz": [9.60757666006773, 7.25209435341504, 10.69566745157304], "label": "O", "properties": {}}, {"species": [{"element": "O", "occu": 1}], "abc": [0.4112312, 0.81345238, 0.27516535999999997], "xyz": [4.3404840425512, 6.43687634032092, 11.71235273685544], "label": "O", "properties": {}}, {"species": [{"element": "O", "occu": 1}], "abc": [0.58975637, 0.41647878, 0.25128104], "xyz": [6.22479061165087, 3.29561074641852, 10.69572193449016], "label": "O", "properties": {}}, {"species": [{"element": "O", "occu": 1}], "abc": [0.15615132, 0.62782253, 0.38593071], "xyz": [1.64815391605332, 4.9679810258560195, 16.42705538046309], "label": "O", "properties": {}}, {"species": [{"element": "O", "occu": 1}], "abc": [0.84129078, 0.80993908, 0.32362036], "xyz": [8.87969883057378, 6.40907547796872, 13.77482910330044], "label": "O", "properties": {}}, {"species": [{"element": "O", "occu": 1}], "abc": [0.34286656, 0.77478876, 0.3319514], "xyz": [3.61890545368256, 6.13092980069784, 14.129437979740601], "label": "O", "properties": {}}, {"species": [{"element": "O", "occu": 1}], "abc": [0.65360488, 0.65544922, 0.37739317], "xyz": [6.89870212127288, 5.1865919631334805, 16.06365687715943], "label": "O", "properties": {}}, {"species": [{"element": "O", "occu": 1}], "abc": [0.65870262, 0.30994786, 0.32362428], "xyz": [6.9525080074096195, 2.45262795440724, 13.77499595723412], "label": "O", "properties": {}}, {"species": [{"element": "O", "occu": 1}], "abc": [0.34386406, 0.1278368, 0.38593552999999997], "xyz": [3.62943391755506, 1.0115769448512, 16.42726054269787], "label": "O", "properties": {}}, {"species": [{"element": "O", "occu": 1}], "abc": [0.84641192, 0.15543121, 0.37739367], "xyz": [8.933751700223919, 1.2299324493911399, 16.06367815954893], "label": "O", "properties": {}}, {"species": [{"element": "O", "occu": 1}], "abc": [0.15713938, 0.27476769, 0.33195895], "xyz": [1.6585827421323798, 2.17424607307146, 14.12975934382205], "label": "O", "properties": {}}, {"species": [{"element": "O", "occu": 1}], "abc": [0.05497746, 0.27574344, 0.39941068], "xyz": [0.5802788986584599, 2.18196721599696, 17.000827324439722], "label": "O", "properties": {}}, {"species": [{"element": "O", "occu": 1}], "abc": [0.94907713, 0.14776349, 0.31321441], "xyz": [10.01736769465763, 1.16925752032866, 13.33190214126539], "label": "O", "properties": {}}, {"species": [{"element": "O", "occu": 1}], "abc": [0.44502721, 0.77581317, 0.39939526999999997], "xyz": [4.69719589249571, 6.139035991857781, 17.000171401195328], "label": "O", "properties": {}}, {"species": [{"element": "O", "occu": 1}], "abc": [0.55091218, 0.64777186, 0.31321734], "xyz": [5.81479597398518, 5.125840752423239, 13.332026856067861], "label": "O", "properties": {}}, {"species": [{"element": "O", "occu": 1}], "abc": [0.09760141, 0.91823574, 0.36526843999999997], "xyz": [1.03016833993991, 7.26603063063516, 15.54757042427476], "label": "O", "properties": {}}, {"species": [{"element": "O", "occu": 1}], "abc": [0.90989288, 0.52037835, 0.34295073], "xyz": [9.60378377436088, 4.1177715764139, 14.59762203033867], "label": "O", "properties": {}}, {"species": [{"element": "O", "occu": 1}], "abc": [0.40236601, 0.41822782, 0.36526277], "xyz": [4.24691328301451, 3.3094509594058796, 15.547329081977832], "label": "O", "properties": {}}, {"species": [{"element": "O", "occu": 1}], "abc": [0.59011756, 0.02038266, 0.34294943], "xyz": [6.22860291828356, 0.16128868159044, 14.59756669612597], "label": "O", "properties": {}}, {"species": [{"element": "O", "occu": 1}], "abc": [0.84027415, 0.41035432, 0.41311849], "xyz": [8.86896845240165, 3.2471476862068798, 17.58429722766371], "label": "O", "properties": {}}, {"species": [{"element": "O", "occu": 1}], "abc": [0.33609077, 0.38466808, 0.42209754], "xyz": [3.5473879998252698, 3.04389159575472, 17.96648850654366], "label": "O", "properties": {}}, {"species": [{"element": "O", "occu": 1}], "abc": [0.65972622, 0.91038883, 0.41311806], "xyz": [6.9633119528932195, 7.20393776501022, 17.584278924808743], "label": "O", "properties": {}}, {"species": [{"element": "O", "occu": 1}], "abc": [0.16390861, 0.88464968, 0.42209509], "xyz": [1.73003095616711, 7.00026299592912, 17.96638422283511], "label": "O", "properties": {}}, {"species": [{"element": "O", "occu": 1}], "abc": [0.94976626, 0.7699413, 0.40317788], "xyz": [10.024641359127259, 6.0925716849042, 17.16117735988852], "label": "O", "properties": {}}, {"species": [{"element": "O", "occu": 1}], "abc": [0.55025515, 0.27001558, 0.40316454], "xyz": [5.8078611202326496, 2.1366424650697198, 17.160609545736662], "label": "O", "properties": {}}, {"species": [{"element": "O", "occu": 1}], "abc": [0.90765241, 0.12204264, 0.43508698], "xyz": [9.580135947340908, 0.9657275597697599, 18.51938114947742], "label": "O", "properties": {}}, {"species": [{"element": "O", "occu": 1}], "abc": [0.59231233, 0.62207053, 0.43508048], "xyz": [6.25176838861283, 4.92246525428802, 18.51910447841392], "label": "O", "properties": {}}]}, "formula": "(Li3PO4)20.0", "bandgap": 4.6142, "slab_thickness": 18.51512467157742}