{"miller": "111_0.27", "final_energy": -1097.22184776, "gamma": 0.05696302628726114, "work_function": 5.6173776379785405, "ionization_potentail": -5.9496776379785405, "electron_affinity": -1.655977637978541, "is_stochiometric": true, "incar_parameters": {"SYSTEM": "unknown system", "LCOMPAT": false, "PREC": "normal", "ENMAX": 520.0, "ENAUG": 628.945, "EDIFF": 1e-05, "IALGO": 38, "IWAVPR": 11, "NBANDS": 508, "NBANDSLOW": -1, "NBANDSHIGH": -1, "NELECT": 836.0, "TURBO": 0, "IRESTART": 0, "NREBOOT": 0, "NMIN": 0, "EREF": 0.0, "ISMEAR": 0, "SIGMA": 0.05, "KSPACING": 0.5, "KGAMMA": true, "KBLOWUP": true, "LREAL": true, "ROPT": [-0.0005, -0.0005, -0.0005], "LMAXPAW": -100, "LMAXMIX": 2, "NLSPLINE": false, "ISTART": 0, "ICHARG": 2, "INIWAV": 1, "ISPIN": 1, "LNONCOLLINEAR": false, "MAGMOM": [0.6, 0.6, 0.6, 0.6, 0.6, 0.6, 0.6, 0.6, 0.6, 0.6, 0.6, 0.6, 0.6, 0.6, 0.6, 0.6, 0.6, 0.6, 0.6, 0.6, 0.6, 0.6, 0.6, 0.6, 0.6, 0.6, 0.6, 0.6, 0.6, 0.6, 0.6, 0.6, 0.6, 0.6, 0.6, 0.6, 0.6, 0.6, 0.6, 0.6, 0.6, 0.6, 0.6, 0.6, 0.6, 0.6, 0.6, 0.6, 0.6, 0.6, 0.6, 0.6, 0.6, 0.6, 0.6, 0.6, 0.6, 0.6, 0.6, 0.6, 0.6, 0.6, 0.6, 0.6, 0.6, 0.6, 0.6, 0.6, 0.6, 0.6, 0.6, 0.6, 0.6, 0.6, 0.6, 0.6, 0.6, 0.6, 0.6, 0.6, 0.6, 0.6, 0.6, 0.6, 0.6, 0.6, 0.6, 0.6, 0.6, 0.6, 0.6, 0.6, 0.6, 0.6, 0.6, 0.6, 0.6, 0.6, 0.6, 0.6, 0.6, 0.6, 0.6, 0.6, 0.6, 0.6, 0.6, 0.6, 0.6, 0.6, 0.6, 0.6, 0.6, 0.6, 0.6, 0.6, 0.6, 0.6, 0.6, 0.6, 0.6, 0.6, 0.6, 0.6, 0.6, 0.6, 0.6, 0.6, 0.6, 0.6, 0.6, 0.6, 0.6, 0.6, 0.6, 0.6, 0.6, 0.6, 0.6, 0.6, 0.6, 0.6, 0.6, 0.6, 0.6, 0.6, 0.6, 0.6, 0.6, 0.6, 0.6, 0.6, 0.6, 0.6, 0.6, 0.6, 0.6, 0.6, 0.6, 0.6, 0.6, 0.6, 0.6, 0.6, 0.6, 0.6, 0.6, 0.6, 0.6, 0.6, 0.6, 0.6, 0.6, 0.6, 0.6, 0.6], "NUPDOWN": -1.0, "LSORBIT": false, "SAXIS": [0.0, 0.0, 1.0], "LSPIRAL": false, "QSPIRAL": [0.0, 0.0, 0.0], "LZEROZ": false, "LASPH": false, "LMETAGGA": false, "NELM": 100, "NELMDL": -5, "NELMIN": 6, "ENINI": 520.0, "LDIAG": true, "LSUBROT": false, "WEIMIN": 0.001, "EBREAK": 0.0, "DEPER": 0.3, "NRMM": 4, "TIME": 0.4, "AMIX": 0.4, "BMIX": 1.0, "AMIN": 0.1, "AMIX_MAG": 1.6, "BMIX_MAG": 1.0, "IMIX": 4, "MIXFIRST": false, "MAXMIX": -45, "WC": 100.0, "INIMIX": 1, "MIXPRE": 1, "MREMOVE": 5, "LDIPOL": false, "LMONO": false, "IDIPOL": 0, "EPSILON": 1.0, "DIPOL": [-100.0, -100.0, -100.0], "EFIELD": 0.0, "NGX": 48, "NGY": 70, "NGZ": 250, "NGXF": 96, "NGYF": 140, "NGZF": 500, "ADDGRID": false, "NSW": 150, "IBRION": 2, "MDALGO": 0, "ISIF": 2, "PSTRESS": 0.0, "EDIFFG": -0.01, "NFREE": 1, "POTIM": 0.5, "SMASS": -3.0, "SCALEE": 1.0, "TEBEG": 0.0001, "TEEND": 0.0001, "NBLOCK": 1, "KBLOCK": 150, "NPACO": 256, "APACO": 10.0, "ISYM": 0, "SYMPREC": 1e-05, "LORBIT": 11, "RWIGS": [-1.0, -1.0, -1.0], "NEDOS": 301, "EMIN": 10.0, "EMAX": -10.0, "EFERMI": 0.0, "NWRITE": 2, "LWAVE": false, "LDOWNSAMPLE": false, "LCHARG": false, "LPARD": false, "LVTOT": false, "LVHAR": false, "LELF": false, "LOPTICS": false, "STM": [0.0, 0.0, 0.0, 0.0, 0.0, 0.0, 0.0], "NPAR": 2, "NSIM": 4, "NBLK": -1, "LPLANE": true, "LSCALAPACK": true, "LSCAAWARE": false, "LSCALU": false, "LASYNC": false, "LORBITALREAL": false, "IDIOT": 3, "PHON_NSTRUCT": -1, "LMUSIC": false, "POMASS": [7.01, 30.974, 16.0], "DARWINR": [0.0, 0.0, 0.0], "DARWINV": [1.0, 1.0, 1.0], "LCORR": true, "GGA_COMPAT": true, "LBERRY": false, "ICORELEVEL": 0, "LDAU": false, "I_CONSTRAINED_M": 0, "GGA": "--", "VOSKOWN": 0, "LHFCALC": false, "PRECFOCK": "", "LSYMGRAD": false, "LHFONE": false, "LRHFCALC": false, "LTHOMAS": false, "LMODELHF": false, "LFOCKACE": false, "ENCUT4O": -1.0, "EXXOEP": 0, "FOURORBIT": 0, "AEXX": 0.0, "HFALPHA": 0.0, "MCALPHA": 0.0, "ALDAX": 1.0, "AGGAX": 1.0, "ALDAC": 1.0, "AGGAC": 1.0, "NKREDX": 1, "NKREDY": 1, "NKREDZ": 1, "SHIFTRED": false, "ODDONLY": false, "EVENONLY": false, "LMAXFOCK": 0, "NMAXFOCKAE": 0, "LFOCKAEDFT": false, "HFSCREEN": 0.0, "HFSCREENC": 0.0, "NBANDSGWLOW": 0, "LUSE_VDW": false, "Zab_VDW": -0.8491, "PARAM1": 0.1234, "PARAM2": 1.0, "PARAM3": 0.0, "MODEL_GW": 0, "MODEL_EPS0": 13.2212537, "MODEL_ALPHA": 1.0, "LEPSILON": false, "LRPA": false, "LNABLA": false, "LVEL": false, "CSHIFT": 0.1, "OMEGAMAX": -1.0, "DEG_THRESHOLD": 0.002, "RTIME": -0.1, "WPLASMAI": 0.0, "DFIELD": [0.0, 0.0, 0.0], "WPLASMA": [0.0, 0.0, 0.0, 0.0, 0.0, 0.0, 0.0, 0.0, 0.0], "NUCIND": false, "MAGPOS": [0.0, 0.0, 0.0], "LNICSALL": true, "ORBITALMAG": false, "LMAGBLOCH": false, "LCHIMAG": false, "LGAUGE": true, "MAGATOM": 0, "MAGDIPOL": [0.0, 0.0, 0.0], "AVECCONST": [0.0, 0.0, 0.0], "LFINITE_TEMPERATURE": false, "LADDER": false, "LRPAFORCE": false, "LFXC": false, "LHARTREE": true, "IBSE": 0, "KPOINT": [-1, 0, 0, 0], "LTCTC": false, "LTCTE": false, "LTETE": false, "LTRIPLET": false, "LFXCEPS": false, "LFXHEG": false, "NATURALO": 2, "LHOLEGF": false, "L2ORDER": false, "LDMP1": false, "LMP2LT": false, "LSMP2LT": false, "LGWLF": false, "ENCUTGW": -2.0, "ENCUTGWSOFT": -2.0, "ENCUTLF": -1.0, "LESF_SPLINES": false, "LMAXMP2": -1, "SCISSOR": 0.0, "NOMEGA": 0, "NOMEGAR": 0, "NBANDSGW": -1, "NBANDSO": -1, "NBANDSV": -1, "NELMGW": 1, "NELMHF": 1, "DIM": 3, "IESPILON": 4, "ANTIRES": 0, "OMEGAMIN": -30.0, "OMEGATL": -200.0, "OMEGAGRID": 0, "LSELFENERGY": false, "LSPECTRAL": false, "LSPECTRALGW": false, "LSINGLES": false, "LFERMIGW": false, "ODDONLYGW": false, "EVENONLYGW": false, "NKREDLFX": 1, "NKREDLFY": 1, "NKREDLFZ": 1, "MAXMEM": 2800, "TELESCOPE": 0, "NTAUPAR": -1, "NOMEGAPAR": -1, "DAMP_NEWTON": 0.80000001, "LAMBDA": 1.0, "OFIELD_KAPPA": 0.0, "OFIELD_K": [0.0, 0.0, 0.0], "OFIELD_Q6_NEAR": 0.0, "OFIELD_Q6_FAR": 0.0, "OFIELD_A": 0.0, "KPOINTS_OPT_MODE": 1, "LKPOINTS_OPT": false, "@module": "pymatgen.io.vasp.inputs", "@class": "Incar"}, "relaxed_structures": {"@module": "pymatgen.core.structure", "@class": "Structure", "charge": 0, "lattice": {"matrix": [[7.913034, 0.0, 0.0], [3.13141, 11.241801, 0.0], [0.0, 0.0, 43.596852]], "a": 7.913034, "b": 11.66978227353454, "c": 43.596852, "alpha": 90.0, "beta": 90.0, "gamma": 74.4347915863905, "volume": 3878.2344182324764}, "sites": [{"species": [{"element": "Li", "occu": 1}], "abc": [0.21020586, 0.71337706, 0.056906939999999996], "xyz": [3.89724217663384, 8.01964294648506, 2.4809634409528796], "label": "Li", "properties": {}}, {"species": [{"element": "Li", "occu": 1}], "abc": [0.35544631, 0.28363458, 0.01674208], "xyz": [3.70083489636234, 3.1885635050785806, 0.72990198393216], "label": "Li", "properties": {}}, {"species": [{"element": "Li", "occu": 1}], "abc": [0.72589077, 0.27781427, 0.043682939999999996], "xyz": [6.61394872651688, 3.12313273830027, 1.9044386701048799], "label": "Li", "properties": {}}, {"species": [{"element": "Li", "occu": 1}], "abc": [0.74264258, 0.58254153, 0.03874659], "xyz": [7.700732357845021, 6.54881595449553, 1.6892293497346798], "label": "Li", "properties": {}}, {"species": [{"element": "Li", "occu": 1}], "abc": [0.96462389, 0.97989244, 0.05560074], "xyz": [10.70154662432266, 11.015755811884441, 2.42401723287048], "label": "Li", "properties": {}}, {"species": [{"element": "Li", "occu": 1}], "abc": [0.12227724, 0.52565353, 0.013916419999999999], "xyz": [2.61362067792346, 5.909292379207531, 0.6067121031098399], "label": "Li", "properties": {}}, {"species": [{"element": "Li", "occu": 1}], "abc": [0.84865721, 0.61819774, 0.13467996000000002], "xyz": [8.65128394208854, 6.949655971729741, 5.87162228348592], "label": "Li", "properties": {}}, {"species": [{"element": "Li", "occu": 1}], "abc": [0.95201537, 0.97288505, 0.11338368000000001], "xyz": [10.57983196575308, 10.936980127975051, 4.943171516175361], "label": "Li", "properties": {}}, {"species": [{"element": "Li", "occu": 1}], "abc": [0.07839838, 0.51883705, 0.08018268], "xyz": [2.24506057322542, 5.83266286752705, 3.49571243292336], "label": "Li", "properties": {}}, {"species": [{"element": "Li", "occu": 1}], "abc": [0.07012325, 0.18808874, 0.08235071999999999], "xyz": [1.1438706227639, 2.11445618542074, 3.5902321519334395], "label": "Li", "properties": {}}, {"species": [{"element": "Li", "occu": 1}], "abc": [0.38222487, 0.12641131, 0.12763627], "xyz": [3.4204040322026796, 1.42109079116931, 5.5645395730220395], "label": "Li", "properties": {}}, {"species": [{"element": "Li", "occu": 1}], "abc": [0.40522269, 0.4643764, 0.12255598000000001], "xyz": [4.66069382626546, 5.2204270778964, 5.34305492177496], "label": "Li", "properties": {}}, {"species": [{"element": "Li", "occu": 1}], "abc": [0.59592587, 0.01259199, 0.07896634999999999], "xyz": [4.75501235419548, 0.14155664577399002, 3.4426842739301993], "label": "Li", "properties": {}}, {"species": [{"element": "Li", "occu": 1}], "abc": [0.5228682, 0.67650971, 0.09292513999999999], "xyz": [6.2559031151099, 7.605187534387711, 4.05124357565928], "label": "Li", "properties": {}}, {"species": [{"element": "Li", "occu": 1}], "abc": [0.1907862, 0.73517036, 0.11559912], "xyz": [3.8118175043384, 8.26463888821836, 5.03975772597024], "label": "Li", "properties": {}}, {"species": [{"element": "Li", "occu": 1}], "abc": [0.60535983, 0.85178808, 0.13480818], "xyz": [7.45753062861702, 9.57563208953208, 5.87721227184936], "label": "Li", "properties": {}}, {"species": [{"element": "Li", "occu": 1}], "abc": [0.81096444, 0.42547608, 0.08420949999999999], "xyz": [7.74952923818376, 4.78311742162008, 3.6712691084939997], "label": "Li", "properties": {}}, {"species": [{"element": "Li", "occu": 1}], "abc": [0.33509661, 0.2837647, 0.08109234000000001], "xyz": [3.54021448744174, 3.1900262882247, 3.5353707453136805], "label": "Li", "properties": {}}, {"species": [{"element": "Li", "occu": 1}], "abc": [0.49803447, 0.4962011, 0.21946603], "xyz": [5.49477278083298, 5.5781940221811, 9.56802802893756], "label": "Li", "properties": {}}, {"species": [{"element": "Li", "occu": 1}], "abc": [0.59843026, 0.85714397, 0.19687997000000002], "xyz": [7.419468193106539, 9.63584193908997, 8.58334691385444], "label": "Li", "properties": {}}, {"species": [{"element": "Li", "occu": 1}], "abc": [0.73404561, 0.40298794, 0.16313149000000002], "xyz": [7.07044833467614, 4.53031022687994, 7.11201942606948], "label": "Li", "properties": {}}, {"species": [{"element": "Li", "occu": 1}], "abc": [0.70937712, 0.06911116, 0.16889343], "xyz": [5.82974064691768, 0.7769339075991601, 7.36322187148236], "label": "Li", "properties": {}}, {"species": [{"element": "Li", "occu": 1}], "abc": [0.037522, 0.00854257, 0.21127411000000001], "xyz": [0.32366315087169995, 0.09603387196857, 9.21088610510172], "label": "Li", "properties": {}}, {"species": [{"element": "Li", "occu": 1}], "abc": [0.05939103, 0.34444133, 0.20483907], "xyz": [1.5485502648603198, 3.87214088803533, 8.93033861860764], "label": "Li", "properties": {}}, {"species": [{"element": "Li", "occu": 1}], "abc": [0.27272213, 0.91744689, 0.15392211], "xyz": [5.03096185305732, 10.313755365448891, 6.71051944919772], "label": "Li", "properties": {}}, {"species": [{"element": "Li", "occu": 1}], "abc": [0.17400711, 0.55575322, 0.17812235], "xyz": [3.11721536831194, 6.247667104349221, 7.7655737308422], "label": "Li", "properties": {}}, {"species": [{"element": "Li", "occu": 1}], "abc": [0.84045756, 0.61621781, 0.1978441], "xyz": [8.58019986024914, 6.92739799267581, 8.625379946773199], "label": "Li", "properties": {}}, {"species": [{"element": "Li", "occu": 1}], "abc": [0.25499145, 0.73662028, 0.21848527], "xyz": [4.3244161245541, 8.28093860032428, 9.525269980370041], "label": "Li", "properties": {}}, {"species": [{"element": "Li", "occu": 1}], "abc": [0.46133361, 0.30687272, 0.16822449], "xyz": [4.61149284540794, 3.44980205056872, 7.33405819330548], "label": "Li", "properties": {}}, {"species": [{"element": "Li", "occu": 1}], "abc": [0.98178433, 0.16320161, 0.16365302], "xyz": [8.27994393752732, 1.83468002249961, 7.13475649229304], "label": "Li", "properties": {}}, {"species": [{"element": "Li", "occu": 1}], "abc": [0.14762366, 0.37770767, 0.30333277], "xyz": [2.3509086156991397, 4.24611446231367, 13.224353880440038], "label": "Li", "properties": {}}, {"species": [{"element": "Li", "occu": 1}], "abc": [0.24942968, 0.73861724, 0.28063171], "xyz": [4.28665894995752, 8.30338802724924, 12.234659127376919], "label": "Li", "properties": {}}, {"species": [{"element": "Li", "occu": 1}], "abc": [0.38696786, 0.28430314, 0.24722388000000003], "xyz": [3.95235952871464, 3.19607932355514, 10.77818290722576], "label": "Li", "properties": {}}, {"species": [{"element": "Li", "occu": 1}], "abc": [0.35963492, 0.95026806, 0.25302121], "xyz": [5.82148225531188, 10.68272442717606, 11.03092824523092], "label": "Li", "properties": {}}, {"species": [{"element": "Li", "occu": 1}], "abc": [0.68814847, 0.88959778, 0.29539701999999995], "xyz": [8.23103762442778, 10.00068121280178, 12.878380162181038], "label": "Li", "properties": {}}, {"species": [{"element": "Li", "occu": 1}], "abc": [0.70944976, 0.22623608, 0.28883904], "xyz": [6.32233799544464, 2.54330099038008, 12.592472878702079], "label": "Li", "properties": {}}, {"species": [{"element": "Li", "occu": 1}], "abc": [0.92108947, 0.79663017, 0.23859205000000003], "xyz": [9.78318797379168, 8.955557841736171, 10.401862292226602], "label": "Li", "properties": {}}, {"species": [{"element": "Li", "occu": 1}], "abc": [0.82550257, 0.43749668, 0.26159174999999996], "xyz": [7.90221138221618, 4.91825061472068, 11.404576809170997], "label": "Li", "properties": {}}, {"species": [{"element": "Li", "occu": 1}], "abc": [0.49041558, 0.49799263, 0.28182366], "xyz": [5.44009426017802, 5.59833404592663, 12.286624395118318], "label": "Li", "properties": {}}, {"species": [{"element": "Li", "occu": 1}], "abc": [0.90512072, 0.6174867, 0.30242151], "xyz": [9.095855058711479, 6.941662601546701, 13.18462581308652], "label": "Li", "properties": {}}, {"species": [{"element": "Li", "occu": 1}], "abc": [0.11306381, 0.18890003, 0.25211567999999995], "xyz": [1.4862012156418398, 2.12357654615403, 10.991449987839358], "label": "Li", "properties": {}}, {"species": [{"element": "Li", "occu": 1}], "abc": [0.63296077, 0.04509788, 0.24784304999999998], "xyz": [5.14986004608698, 0.50698139248188, 10.8051767700786], "label": "Li", "properties": {}}, {"species": [{"element": "Li", "occu": 1}], "abc": [0.79487051, 0.26216961, 0.38658737], "xyz": [7.11079790967744, 2.94725858386761, 16.85399235495924], "label": "Li", "properties": {}}, {"species": [{"element": "Li", "occu": 1}], "abc": [0.8952878, 0.61673182, 0.36510187], "xyz": [9.015682989651399, 6.933176390807821, 15.917292191313239], "label": "Li", "properties": {}}, {"species": [{"element": "Li", "occu": 1}], "abc": [0.03733126, 0.165968, 0.33116023], "xyz": [0.8151173845228399, 1.8657792283680001, 14.43754353559596], "label": "Li", "properties": {}}, {"species": [{"element": "Li", "occu": 1}], "abc": [0.01129283, 0.83177395, 0.33687109], "xyz": [2.6939858125157197, 9.35063722288395, 14.686519053808679], "label": "Li", "properties": {}}, {"species": [{"element": "Li", "occu": 1}], "abc": [0.33981852, 0.77046664, 0.37782343999999995], "xyz": [5.1016424437520795, 8.66143264401864, 16.471912595810878], "label": "Li", "properties": {}}, {"species": [{"element": "Li", "occu": 1}], "abc": [0.36339546, 0.10807021, 0.37247428], "xyz": [3.21397276672174, 1.21490379484821, 16.23870605896656], "label": "Li", "properties": {}}, {"species": [{"element": "Li", "occu": 1}], "abc": [0.57167674, 0.67876547, 0.32214266999999996], "xyz": [6.64919046104186, 7.63054633941147, 14.044406306874837], "label": "Li", "properties": {}}, {"species": [{"element": "Li", "occu": 1}], "abc": [0.47207387, 0.31751153, 0.34638866999999995], "xyz": [4.729795363978879, 3.56940143546553, 15.101455580466837], "label": "Li", "properties": {}}, {"species": [{"element": "Li", "occu": 1}], "abc": [0.14064875, 0.38330405, 0.36549381999999997], "xyz": [2.3132404760179996, 4.30902785259405, 15.934379977454638], "label": "Li", "properties": {}}, {"species": [{"element": "Li", "occu": 1}], "abc": [0.55406029, 0.49949895, 0.38455401], "xyz": [5.94843391983936, 5.6152677956089505, 16.76534425997652], "label": "Li", "properties": {}}, {"species": [{"element": "Li", "occu": 1}], "abc": [0.76374829, 0.07130622, 0.33650935], "xyz": [6.26685519658206, 0.80161033530222, 14.670748328566198], "label": "Li", "properties": {}}, {"species": [{"element": "Li", "occu": 1}], "abc": [0.28468443, 0.92788211, 0.33179347], "xyz": [5.15829689193572, 10.43106603208011, 14.465150806156439], "label": "Li", "properties": {}}, {"species": [{"element": "Li", "occu": 1}], "abc": [0.53721158, 0.51867121, 0.44351685999999996], "xyz": [5.875145711439821, 5.830798527249211, 19.335938904924717], "label": "Li", "properties": {}}, {"species": [{"element": "Li", "occu": 1}], "abc": [0.67572515, 0.04590991, 0.41813427999999997], "xyz": [5.4907988378782004, 0.51611007214791, 18.22933832128656], "label": "Li", "properties": {}}, {"species": [{"element": "Li", "occu": 1}], "abc": [0.66724649, 0.71427408, 0.42031732], "xyz": [7.51662915860346, 8.029727066818081, 18.32451199307664], "label": "Li", "properties": {}}, {"species": [{"element": "Li", "occu": 1}], "abc": [0.00184172, 0.65366101, 0.46110998999999997], "xyz": [2.0614542163025797, 7.3483269958790105, 20.102943989751477], "label": "Li", "properties": {}}, {"species": [{"element": "Li", "occu": 1}], "abc": [0.02209131, 0.95484473, 0.45663435999999996], "xyz": [3.1648196231038397, 10.73417444055873, 19.90782061103472], "label": "Li", "properties": {}}, {"species": [{"element": "Li", "occu": 1}], "abc": [0.22190926, 0.55787937, 0.40739134], "xyz": [3.5029245573065397, 6.27156885954537, 17.76097995606168], "label": "Li", "properties": {}}, {"species": [{"element": "Li", "occu": 1}], "abc": [0.15090682, 0.22184186, 0.421056], "xyz": [1.88880861631448, 2.49390204358986, 18.356716115712], "label": "Li", "properties": {}}, {"species": [{"element": "Li", "occu": 1}], "abc": [0.78305455, 0.25409555, 0.44414322], "xyz": [6.9920146242302, 2.85649160808555, 19.36324622914344], "label": "Li", "properties": {}}, {"species": [{"element": "Li", "occu": 1}], "abc": [0.41103564, 0.95032081, 0.41905225999999995], "xyz": [6.22838308217386, 10.68331743217881, 18.269359359485517], "label": "Li", "properties": {}}, {"species": [{"element": "Li", "occu": 1}], "abc": [0.93576536, 0.80909532, 0.41554325999999997], "xyz": [9.93835228570344, 9.09568857747132, 18.116378005817516], "label": "Li", "properties": {}}, {"species": [{"element": "Li", "occu": 1}], "abc": [0.39115291, 0.95037256, 0.48398788], "xyz": [6.0712124141385395, 10.683899195380562, 21.10034797415376], "label": "Li", "properties": {}}, {"species": [{"element": "Li", "occu": 1}], "abc": [0.62333648, 0.7087729, 0.48646949], "xyz": [7.15194130646932, 7.967883895992901, 21.20853835804548], "label": "Li", "properties": {}}, {"species": [{"element": "P", "occu": 1}], "abc": [0.42938942, 0.48109641, 0.053667299999999994], "xyz": [4.90428318893838, 5.40839010303441, 2.3397253353395997], "label": "P", "properties": {}}, {"species": [{"element": "P", "occu": 1}], "abc": [0.04191548, 0.33454302, 0.0274808], "xyz": [1.3792699766245198, 3.7608660567790206, 1.1980763704416], "label": "P", "properties": {}}, {"species": [{"element": "P", "occu": 1}], "abc": [0.84060624, 0.76471707, 0.07774764], "xyz": [9.046388437900859, 8.596797122243071, 3.3895523544292803], "label": "P", "properties": {}}, {"species": [{"element": "P", "occu": 1}], "abc": [0.31366428, 0.93844651, 0.08403369999999999], "xyz": [5.4206968981046195, 10.549828914564511, 3.6636047819123996], "label": "P", "properties": {}}, {"species": [{"element": "P", "occu": 1}], "abc": [0.09359739, 0.36581413, 0.13641278], "xyz": [1.88615335420456, 4.112409652448131, 5.94716778056856], "label": "P", "properties": {}}, {"species": [{"element": "P", "occu": 1}], "abc": [0.69929414, 0.22084465, 0.11193784000000001], "xyz": [6.22509345127726, 2.48269160721465, 4.88013744367968], "label": "P", "properties": {}}, {"species": [{"element": "P", "occu": 1}], "abc": [0.48553897, 0.65110396, 0.16355348], "xyz": [5.88095982931858, 7.31958114863196, 7.13041686164496], "label": "P", "properties": {}}, {"species": [{"element": "P", "occu": 1}], "abc": [0.9610819, 0.82127049, 0.16918987000000002], "xyz": [10.176808376575499, 9.23255941575249, 7.376145722289241], "label": "P", "properties": {}}, {"species": [{"element": "P", "occu": 1}], "abc": [0.74687515, 0.2479865, 0.22009059], "xyz": [6.6865958616701, 2.7878148836865, 9.59525687882268], "label": "P", "properties": {}}, {"species": [{"element": "P", "occu": 1}], "abc": [0.3485404, 0.10489521, 0.19604445], "xyz": [3.0864819451196994, 1.17921107667321, 8.5469208720714], "label": "P", "properties": {}}, {"species": [{"element": "P", "occu": 1}], "abc": [0.13454922, 0.53241571, 0.24743658], "xyz": [2.7319044309845797, 5.98531146109371, 10.78745595764616], "label": "P", "properties": {}}, {"species": [{"element": "P", "occu": 1}], "abc": [0.61160479, 0.70204035, 0.25272733], "xyz": [7.038025670226359, 7.89219790867035, 11.018116002365158], "label": "P", "properties": {}}, {"species": [{"element": "P", "occu": 1}], "abc": [0.39761229, 0.12984568, 0.30415812], "xyz": [3.5529196303966595, 1.45969929526968, 13.260336542238239], "label": "P", "properties": {}}, {"species": [{"element": "P", "occu": 1}], "abc": [0.99938234, 0.98654141, 0.28005916999999997], "xyz": [10.997412072107661, 11.09050220947941, 12.209698185732838], "label": "P", "properties": {}}, {"species": [{"element": "P", "occu": 1}], "abc": [0.78433698, 0.41331099, 0.33091421], "xyz": [7.500731357393219, 4.64635990069299, 14.426817838066919], "label": "P", "properties": {}}, {"species": [{"element": "P", "occu": 1}], "abc": [0.25949849, 0.58365341, 0.33660993], "xyz": [3.88107849892676, 6.56131548819141, 14.67513329994036], "label": "P", "properties": {}}, {"species": [{"element": "P", "occu": 1}], "abc": [0.04650982, 0.01374041, 0.38822992], "xyz": [0.41106064427198, 0.15446695487841, 16.92560236421184], "label": "P", "properties": {}}, {"species": [{"element": "P", "occu": 1}], "abc": [0.65162703, 0.86872209, 0.36378829999999995], "xyz": [7.87667188355592, 9.766000860084091, 15.860024674431598], "label": "P", "properties": {}}, {"species": [{"element": "P", "occu": 1}], "abc": [0.43264188, 0.29568638, 0.41607713999999996], "xyz": [4.3494251934597195, 3.3240474423703805, 18.139653493163276], "label": "P", "properties": {}}, {"species": [{"element": "P", "occu": 1}], "abc": [0.90527912, 0.47020164, 0.42224509], "xyz": [8.63589857356248, 5.28591326675364, 18.408556696456678], "label": "P", "properties": {}}, {"species": [{"element": "P", "occu": 1}], "abc": [0.70401194, 0.89974139, 0.47268367], "xyz": [8.38832960368586, 10.11471365784339, 20.60752000380684], "label": "P", "properties": {}}, {"species": [{"element": "P", "occu": 1}], "abc": [0.31739999, 0.75268969, 0.44665528], "xyz": [4.86857693463256, 8.46158770973169, 19.472764137178558], "label": "P", "properties": {}}, {"species": [{"element": "O", "occu": 1}], "abc": [0.29984193, 0.57626715, 0.03387622], "xyz": [4.177188102897119, 6.47828062313715, 1.47689654965944], "label": "O", "properties": {}}, {"species": [{"element": "O", "occu": 1}], "abc": [0.18676282, 0.25622063, 0.048953409999999996], "xyz": [2.28019238758418, 2.88038133455463, 2.13421457066532], "label": "O", "properties": {}}, {"species": [{"element": "O", "occu": 1}], "abc": [0.90767186, 0.26854556, 0.018698640000000002], "xyz": [8.02336454106284, 3.0189357449535605, 0.8152018406812801], "label": "O", "properties": {}}, {"species": [{"element": "O", "occu": 1}], "abc": [0.79006906, 0.72668171, 0.04636758999999999], "xyz": [8.52738170763914, 8.169211174159711, 2.0214809588266798], "label": "O", "properties": {}}, {"species": [{"element": "O", "occu": 1}], "abc": [0.95358619, 0.45590628, 0.045449769999999994], "xyz": [8.97338942765526, 5.12520767441028, 1.9814668961240396], "label": "O", "properties": {}}, {"species": [{"element": "O", "occu": 1}], "abc": [0.50103905, 0.36459018, 0.03540701], "xyz": [5.1064203735315, 4.09865025011418, 1.54363417473252], "label": "O", "properties": {}}, {"species": [{"element": "O", "occu": 1}], "abc": [0.41735776, 0.97426786, 0.05826315000000001], "xyz": [6.35339826452644, 10.95252540281586, 2.5400899276038], "label": "O", "properties": {}}, {"species": [{"element": "O", "occu": 1}], "abc": [0.14106852, 0.37237486, 9.99999999999994e-05], "xyz": [2.28233835544228, 4.18616407352286, 0.0043596851999999735], "label": "O", "properties": {}}, {"species": [{"element": "O", "occu": 1}], "abc": [0.03435599, 0.6940517, 0.08528454999999999], "xyz": [2.4452205508706597, 7.802391095111701, 3.7181379042365994], "label": "O", "properties": {}}, {"species": [{"element": "O", "occu": 1}], "abc": [0.11576675, 0.01410156, 0.08342119], "xyz": [0.9602239948190999, 0.15852693130956003, 3.63690127409388], "label": "O", "properties": {}}, {"species": [{"element": "O", "occu": 1}], "abc": [0.96843701, 0.46311293, 0.11614066], "xyz": [9.11347144711964, 5.20622339958693, 5.06336716520232], "label": "O", "properties": {}}, {"species": [{"element": "O", "occu": 1}], "abc": [0.82217487, 0.12287538, 0.13212627000000002], "xyz": [6.89067089394138, 1.3813405697593801, 5.76028943850204], "label": "O", "properties": {}}, {"species": [{"element": "O", "occu": 1}], "abc": [0.55526647, 0.16906396, 0.097298], "xyz": [4.92325103115358, 1.9005833945919604, 4.241886505896], "label": "O", "properties": {}}, {"species": [{"element": "O", "occu": 1}], "abc": [0.58256862, 0.53137565, 0.06534406000000001], "xyz": [6.273840321559579, 5.97361931354565, 2.8487953128991204], "label": "O", "properties": {}}, {"species": [{"element": "O", "occu": 1}], "abc": [0.3922454, 0.96194813, 0.11612665], "xyz": [6.1161051803069, 10.814029449782131, 5.0627563733058], "label": "O", "properties": {}}, {"species": [{"element": "O", "occu": 1}], "abc": [0.4127549, 0.62655172, 0.13169675], "xyz": [5.2281338788918, 7.043569752447721, 5.741563718631], "label": "O", "properties": {}}, {"species": [{"element": "O", "occu": 1}], "abc": [0.3134127, 0.80438151, 0.0824867], "xyz": [4.9988936553609, 9.042696863499511, 3.5961604518684], "label": "O", "properties": {}}, {"species": [{"element": "O", "occu": 1}], "abc": [0.82887733, 0.90249005, 0.07858369000000001], "xyz": [9.385000861589718, 10.145613546580051, 3.4260015025438806], "label": "O", "properties": {}}, {"species": [{"element": "O", "occu": 1}], "abc": [0.61205924, 0.33090055, 0.13210204], "xyz": [5.87943086740966, 3.7199181338905505, 5.75923308677808], "label": "O", "properties": {}}, {"species": [{"element": "O", "occu": 1}], "abc": [0.18081847, 0.25573771, 0.11642664], "xyz": [2.23164232340908, 2.8749524440157104, 5.0758349929372795], "label": "O", "properties": {}}, {"species": [{"element": "O", "occu": 1}], "abc": [0.72208479, 0.73702601, 0.10412816], "xyz": [8.021812112126959, 8.285499736244011, 4.53965998055232], "label": "O", "properties": {}}, {"species": [{"element": "O", "occu": 1}], "abc": [0.07151344, 0.85980765, 0.14346645], "xyz": [3.25829855546346, 9.665786499577651, 6.254685587615399], "label": "O", "properties": {}}, {"species": [{"element": "O", "occu": 1}], "abc": [0.32767787, 0.45294801, 0.08214361], "xyz": [4.01129205435168, 5.091951391766011, 3.5812028079157203], "label": "O", "properties": {}}, {"species": [{"element": "O", "occu": 1}], "abc": [0.80806121, 0.2576577, 0.08558552999999999], "xyz": [7.20104772716814, 2.8965365895177, 3.7312596847515596], "label": "O", "properties": {}}, {"species": [{"element": "O", "occu": 1}], "abc": [0.68069271, 0.57684565, 0.16631018], "xyz": [7.19268479464864, 6.48478400501565, 7.25060030355336], "label": "O", "properties": {}}, {"species": [{"element": "O", "occu": 1}], "abc": [0.76597545, 0.89539153, 0.16596771000000002], "xyz": [8.865027769972599, 10.065813397345531, 7.235669689648921], "label": "O", "properties": {}}, {"species": [{"element": "O", "occu": 1}], "abc": [0.62280936, 0.34608128, 0.19999777000000002], "xyz": [6.012034022203039, 3.89057687958528, 8.71927317902004], "label": "O", "properties": {}}, {"species": [{"element": "O", "occu": 1}], "abc": [0.47171376, 0.00677562, 0.21620348], "xyz": [3.75390426537204, 0.07617017169162, 9.425791119444959], "label": "O", "properties": {}}, {"species": [{"element": "O", "occu": 1}], "abc": [0.20289114, 0.05494654, 0.1814344], "xyz": [1.77754463394016, 0.61769806831854, 7.909968684508799], "label": "O", "properties": {}}, {"species": [{"element": "O", "occu": 1}], "abc": [0.23786885, 0.41701308, 0.15118304000000002], "xyz": [3.1881032264336997, 4.68797805975708, 6.59110461979008], "label": "O", "properties": {}}, {"species": [{"element": "O", "occu": 1}], "abc": [0.03336457, 0.8455814, 0.20110581], "xyz": [2.9118770285793802, 9.505857828101401, 8.767580234910119], "label": "O", "properties": {}}, {"species": [{"element": "O", "occu": 1}], "abc": [0.06032173, 0.50777043, 0.21567070000000002], "xyz": [2.0673653026351198, 5.70825412774443, 9.4025635886364], "label": "O", "properties": {}}, {"species": [{"element": "O", "occu": 1}], "abc": [0.97314676, 0.68659932, 0.16586968000000002], "xyz": [9.85056737551104, 7.71861292217532, 7.23139589024736], "label": "O", "properties": {}}, {"species": [{"element": "O", "occu": 1}], "abc": [0.47336092, 0.78585878, 0.1666234], "xyz": [6.20656709651108, 8.83446801886278, 7.2642557095368], "label": "O", "properties": {}}, {"species": [{"element": "O", "occu": 1}], "abc": [0.26329596, 0.21502993, 0.21625731], "xyz": [2.75681675664394, 2.4173236821039303, 9.42813793798812], "label": "O", "properties": {}}, {"species": [{"element": "O", "occu": 1}], "abc": [0.83215605, 0.13789484, 0.19984327000000002], "xyz": [7.0166843978801, 1.55018635020684, 8.71253746538604], "label": "O", "properties": {}}, {"species": [{"element": "O", "occu": 1}], "abc": [0.37536572, 0.61308333, 0.18947399], "xyz": [4.89009697518978, 6.8921607922773305, 8.26046949987948], "label": "O", "properties": {}}, {"species": [{"element": "O", "occu": 1}], "abc": [0.721175, 0.73964542, 0.22668279], "xyz": [8.022815359592201, 8.31494662220142, 9.882656046577079], "label": "O", "properties": {}}, {"species": [{"element": "O", "occu": 1}], "abc": [0.98450576, 0.3292736, 0.16268634], "xyz": [8.821518195851839, 3.7016282857536003, 7.09261228740168], "label": "O", "properties": {}}, {"species": [{"element": "O", "occu": 1}], "abc": [0.45775221, 0.1412061, 0.16974178], "xyz": [4.06438299490614, 1.5874108761861, 7.40020726087656], "label": "O", "properties": {}}, {"species": [{"element": "O", "occu": 1}], "abc": [0.32955417, 0.45773454, 0.25026603999999997], "xyz": [4.04112786795318, 5.1457606095065405, 10.910811506506079], "label": "O", "properties": {}}, {"species": [{"element": "O", "occu": 1}], "abc": [0.41658586, 0.77670082, 0.24988575], "xyz": [5.72862678885544, 8.73151605497682, 10.894232059658998], "label": "O", "properties": {}}, {"species": [{"element": "O", "occu": 1}], "abc": [0.27420613, 0.22781049, 0.28398251999999996], "xyz": [2.8831704761893198, 2.56100019429249, 12.380743895027038], "label": "O", "properties": {}}, {"species": [{"element": "O", "occu": 1}], "abc": [0.12374494, 0.88850019, 0.30012674], "xyz": [3.76145629751586, 9.988342324442192, 13.08458106502248], "label": "O", "properties": {}}, {"species": [{"element": "O", "occu": 1}], "abc": [0.8536902, 0.93624554, 0.26560548], "xyz": [9.6870482244782, 10.525086047817542, 11.57956280194896], "label": "O", "properties": {}}, {"species": [{"element": "O", "occu": 1}], "abc": [0.89270185, 0.29810964, 0.23456449], "xyz": [7.9974835987053, 3.35128924906164, 10.226273354985478], "label": "O", "properties": {}}, {"species": [{"element": "O", "occu": 1}], "abc": [0.68560577, 0.7266392, 0.284514], "xyz": [7.70062702587818, 8.1687332851992, 12.403914749928], "label": "O", "properties": {}}, {"species": [{"element": "O", "occu": 1}], "abc": [0.712279, 0.38884067, 0.29899628], "xyz": [6.8539075069307, 4.37126943284667, 13.03529656771056], "label": "O", "properties": {}}, {"species": [{"element": "O", "occu": 1}], "abc": [0.62269367, 0.56741597, 0.2497826], "xyz": [6.70420822491248, 6.37877741896197, 10.889735044375199], "label": "O", "properties": {}}, {"species": [{"element": "O", "occu": 1}], "abc": [0.12351263, 0.66704559, 0.25037657999999996], "xyz": [3.0661528716013198, 7.49879378070759, 10.915630702526158], "label": "O", "properties": {}}, {"species": [{"element": "O", "occu": 1}], "abc": [0.91412722, 0.09660493, 0.30030547999999996], "xyz": [7.53602941603678, 1.0860133986789302, 13.092373566348957], "label": "O", "properties": {}}, {"species": [{"element": "O", "occu": 1}], "abc": [0.48301411, 0.01950567, 0.28400161999999995], "xyz": [3.8831873250044397, 0.21927886051167, 12.381576594900238], "label": "O", "properties": {}}, {"species": [{"element": "O", "occu": 1}], "abc": [0.0248869, 0.49486042, 0.27347193], "xyz": [1.7465417536468, 5.5631223644164205, 11.922515258364358], "label": "O", "properties": {}}, {"species": [{"element": "O", "occu": 1}], "abc": [0.37010663, 0.62146914, 0.31073027], "xyz": [4.87474102650282, 6.98643239952114, 13.54686159311004], "label": "O", "properties": {}}, {"species": [{"element": "O", "occu": 1}], "abc": [0.6381823, 0.21118719, 0.24641117999999998], "xyz": [5.7112719167361, 2.37412436372919, 10.742751745605359], "label": "O", "properties": {}}, {"species": [{"element": "O", "occu": 1}], "abc": [0.10814287, 0.02316198, 0.25370795999999995], "xyz": [0.9282678629593799, 0.26038236992598, 11.060868383341917], "label": "O", "properties": {}}, {"species": [{"element": "O", "occu": 1}], "abc": [0.9795064, 0.33949857, 0.33420296], "xyz": [8.813976663501299, 3.8165753637245703, 14.57019698508192], "label": "O", "properties": {}}, {"species": [{"element": "O", "occu": 1}], "abc": [0.06434799, 0.65780173, 0.33375073], "xyz": [2.5690347480409597, 7.39487614611573, 14.55048118070196], "label": "O", "properties": {}}, {"species": [{"element": "O", "occu": 1}], "abc": [0.92385308, 0.11184274, 0.36804581], "xyz": [7.66070630750812, 1.25731382637474, 16.04563870779012], "label": "O", "properties": {}}, {"species": [{"element": "O", "occu": 1}], "abc": [0.77661901, 0.77118722, 0.38402032999999997], "xyz": [8.56031600375654, 8.66953326098322, 16.742077492001158], "label": "O", "properties": {}}, {"species": [{"element": "O", "occu": 1}], "abc": [0.507271, 0.81773874, 0.34898420999999996], "xyz": [6.5747279380374, 9.19285618507074, 15.214612953706919], "label": "O", "properties": {}}, {"species": [{"element": "O", "occu": 1}], "abc": [0.54295829, 0.18007165, 0.31878027], "xyz": [4.86032557487836, 2.02432965504165, 13.897816251710038], "label": "O", "properties": {}}, {"species": [{"element": "O", "occu": 1}], "abc": [0.33191121, 0.60831727, 0.36848471], "xyz": [4.53131547216184, 6.8385816942032704, 16.06477336613292], "label": "O", "properties": {}}, {"species": [{"element": "O", "occu": 1}], "abc": [0.35326616, 0.27241815, 0.38403578], "xyz": [3.64846005422094, 3.0624706310881504, 16.742751063364558], "label": "O", "properties": {}}, {"species": [{"element": "O", "occu": 1}], "abc": [0.27204742, 0.44879663, 0.33357937], "xyz": [3.55808673922058, 5.04528240393063, 14.543010424143239], "label": "O", "properties": {}}, {"species": [{"element": "O", "occu": 1}], "abc": [0.77202519, 0.54802283, 0.33412627], "xyz": [7.82514574741676, 6.16076359831683, 14.56685354250204], "label": "O", "properties": {}}, {"species": [{"element": "O", "occu": 1}], "abc": [0.56477677, 0.97873516, 0.38382336], "xyz": [7.53391885079578, 11.002745900423161, 16.73349022006272], "label": "O", "properties": {}}, {"species": [{"element": "O", "occu": 1}], "abc": [0.13336642, 0.90364454, 0.36804549999999997], "xyz": [3.88501456491968, 10.15859209341654, 16.045625192766], "label": "O", "properties": {}}, {"species": [{"element": "O", "occu": 1}], "abc": [0.673762, 0.37512418, 0.35665919999999995], "xyz": [6.506169222401799, 4.2170713818481795, 15.549218356838397], "label": "O", "properties": {}}, {"species": [{"element": "O", "occu": 1}], "abc": [0.0227415, 0.49850576, 0.39580329], "xyz": [1.7409801846326, 5.60410255127376, 17.255777455243077], "label": "O", "properties": {}}, {"species": [{"element": "O", "occu": 1}], "abc": [0.28823796, 0.09355151, 0.33044557999999996], "xyz": [2.5737849114997404, 1.0516874586695102, 14.406387045314158], "label": "O", "properties": {}}, {"species": [{"element": "O", "occu": 1}], "abc": [0.76089056, 0.90525756, 0.3375254], "xyz": [8.855685447518638, 10.176725343265561, 14.715044910040799], "label": "O", "properties": {}}, {"species": [{"element": "O", "occu": 1}], "abc": [0.63065734, 0.22030322, 0.41658913], "xyz": [5.680272679909759, 2.47660495889922, 18.16197464541876], "label": "O", "properties": {}}, {"species": [{"element": "O", "occu": 1}], "abc": [0.71099421, 0.53989136, 0.41483747], "xyz": [7.31674256115074, 6.069351230739361, 18.085607783644438], "label": "O", "properties": {}}, {"species": [{"element": "O", "occu": 1}], "abc": [0.5581908, 0.97830175, 0.45144839999999997], "xyz": [7.4804466618547, 10.99787359145175, 19.6817290804368], "label": "O", "properties": {}}, {"species": [{"element": "O", "occu": 1}], "abc": [0.44764561, 0.65681471, 0.46615660999999997], "xyz": [5.59899108292184, 7.383780263692711, 20.322960734991717], "label": "O", "properties": {}}, {"species": [{"element": "O", "occu": 1}], "abc": [0.16362492, 0.70317095, 0.43489414], "xyz": [3.49668609974678, 7.90490788888095, 18.96001545724728], "label": "O", "properties": {}}, {"species": [{"element": "O", "occu": 1}], "abc": [0.19077316, 0.06536639, 0.40285530999999997], "xyz": [1.7142834686773398, 0.73483594846839, 17.563223327484117], "label": "O", "properties": {}}, {"species": [{"element": "O", "occu": 1}], "abc": [0.95614538, 0.50861244, 0.4535588], "xyz": [9.15868498162332, 5.717719836604441, 19.7737358768976], "label": "O", "properties": {}}, {"species": [{"element": "O", "occu": 1}], "abc": [0.91829004, 0.33223616, 0.42139978], "xyz": [8.30682794216696, 3.73493279572416, 18.37170384149256], "label": "O", "properties": {}}, {"species": [{"element": "O", "occu": 1}], "abc": [0.43215182, 0.42984409, 0.41759174], "xyz": [4.765650126688779, 4.83222172080609, 18.205685285202478], "label": "O", "properties": {}}, {"species": [{"element": "O", "occu": 1}], "abc": [0.2464272, 0.86836974, 0.46528960999999996], "xyz": [4.6692084996581995, 9.76203981150174, 20.28516226430772], "label": "O", "properties": {}}, {"species": [{"element": "O", "occu": 1}], "abc": [0.79136774, 0.77861122, 0.45458838999999995], "xyz": [8.70027079354336, 8.75299239160722, 19.818622759748276], "label": "O", "properties": {}}, {"species": [{"element": "O", "occu": 1}], "abc": [0.32950956, 0.25966985, 0.44190818], "xyz": [3.4205531165935392, 2.91915677939985, 19.26580552104936], "label": "O", "properties": {}}, {"species": [{"element": "O", "occu": 1}], "abc": [0.93820012, 0.97668418, 0.41462135], "xyz": [10.482408056457878, 10.97968919140818, 18.0761856319902], "label": "O", "properties": {}}, {"species": [{"element": "O", "occu": 1}], "abc": [0.41808737, 0.7818107, 0.41816579], "xyz": [5.75650941786758, 8.788960309070701, 18.23071205809308], "label": "O", "properties": {}}, {"species": [{"element": "O", "occu": 1}], "abc": [0.83884093, 0.9654393, 0.48129823], "xyz": [9.66096307809462, 10.8532764881793, 20.983087701171957], "label": "O", "properties": {}}, {"species": [{"element": "O", "occu": 1}], "abc": [0.60623557, 0.86166915, 0.50023452], "xyz": [7.495402070420879, 9.68671311213915, 21.80865033373104], "label": "O", "properties": {}}]}, "formula": "(Li3PO4)22.0", "bandgap": 4.2937, "slab_thickness": 21.80429064853104}