{"miller": "111_0.34", "final_energy": -1097.22188997, "gamma": 0.0569627890371465, "work_function": "Not calculated", "ionization_potentail": "Not calculated", "electron_affinity": "Not calculated", "is_stochiometric": true, "incar_parameters": {"SYSTEM": "unknown system", "LCOMPAT": false, "PREC": "normal", "ENMAX": 520.0, "ENAUG": 628.945, "EDIFF": 1e-05, "IALGO": 38, "IWAVPR": 11, "NBANDS": 508, "NBANDSLOW": -1, "NBANDSHIGH": -1, "NELECT": 836.0, "TURBO": 0, "IRESTART": 0, "NREBOOT": 0, "NMIN": 0, "EREF": 0.0, "ISMEAR": 0, "SIGMA": 0.05, "KSPACING": 0.5, "KGAMMA": true, "KBLOWUP": true, "LREAL": true, "ROPT": [-0.0005, -0.0005, -0.0005], "LMAXPAW": -100, "LMAXMIX": 2, "NLSPLINE": false, "ISTART": 0, "ICHARG": 2, "INIWAV": 1, "ISPIN": 1, "LNONCOLLINEAR": false, "MAGMOM": [0.6, 0.6, 0.6, 0.6, 0.6, 0.6, 0.6, 0.6, 0.6, 0.6, 0.6, 0.6, 0.6, 0.6, 0.6, 0.6, 0.6, 0.6, 0.6, 0.6, 0.6, 0.6, 0.6, 0.6, 0.6, 0.6, 0.6, 0.6, 0.6, 0.6, 0.6, 0.6, 0.6, 0.6, 0.6, 0.6, 0.6, 0.6, 0.6, 0.6, 0.6, 0.6, 0.6, 0.6, 0.6, 0.6, 0.6, 0.6, 0.6, 0.6, 0.6, 0.6, 0.6, 0.6, 0.6, 0.6, 0.6, 0.6, 0.6, 0.6, 0.6, 0.6, 0.6, 0.6, 0.6, 0.6, 0.6, 0.6, 0.6, 0.6, 0.6, 0.6, 0.6, 0.6, 0.6, 0.6, 0.6, 0.6, 0.6, 0.6, 0.6, 0.6, 0.6, 0.6, 0.6, 0.6, 0.6, 0.6, 0.6, 0.6, 0.6, 0.6, 0.6, 0.6, 0.6, 0.6, 0.6, 0.6, 0.6, 0.6, 0.6, 0.6, 0.6, 0.6, 0.6, 0.6, 0.6, 0.6, 0.6, 0.6, 0.6, 0.6, 0.6, 0.6, 0.6, 0.6, 0.6, 0.6, 0.6, 0.6, 0.6, 0.6, 0.6, 0.6, 0.6, 0.6, 0.6, 0.6, 0.6, 0.6, 0.6, 0.6, 0.6, 0.6, 0.6, 0.6, 0.6, 0.6, 0.6, 0.6, 0.6, 0.6, 0.6, 0.6, 0.6, 0.6, 0.6, 0.6, 0.6, 0.6, 0.6, 0.6, 0.6, 0.6, 0.6, 0.6, 0.6, 0.6, 0.6, 0.6, 0.6, 0.6, 0.6, 0.6, 0.6, 0.6, 0.6, 0.6, 0.6, 0.6, 0.6, 0.6, 0.6, 0.6, 0.6, 0.6], "NUPDOWN": -1.0, "LSORBIT": false, "SAXIS": [0.0, 0.0, 1.0], "LSPIRAL": false, "QSPIRAL": [0.0, 0.0, 0.0], "LZEROZ": false, "LASPH": false, "LMETAGGA": false, "NELM": 100, "NELMDL": -5, "NELMIN": 6, "ENINI": 520.0, "LDIAG": true, "LSUBROT": false, "WEIMIN": 0.001, "EBREAK": 0.0, "DEPER": 0.3, "NRMM": 4, "TIME": 0.4, "AMIX": 0.4, "BMIX": 1.0, "AMIN": 0.1, "AMIX_MAG": 1.6, "BMIX_MAG": 1.0, "IMIX": 4, "MIXFIRST": false, "MAXMIX": -45, "WC": 100.0, "INIMIX": 1, "MIXPRE": 1, "MREMOVE": 5, "LDIPOL": false, "LMONO": false, "IDIPOL": 0, "EPSILON": 1.0, "DIPOL": [-100.0, -100.0, -100.0], "EFIELD": 0.0, "NGX": 48, "NGY": 70, "NGZ": 250, "NGXF": 96, "NGYF": 140, "NGZF": 500, "ADDGRID": false, "NSW": 150, "IBRION": 2, "MDALGO": 0, "ISIF": 2, "PSTRESS": 0.0, "EDIFFG": -0.01, "NFREE": 1, "POTIM": 0.5, "SMASS": -3.0, "SCALEE": 1.0, "TEBEG": 0.0001, "TEEND": 0.0001, "NBLOCK": 1, "KBLOCK": 150, "NPACO": 256, "APACO": 10.0, "ISYM": 0, "SYMPREC": 1e-05, "LORBIT": 11, "RWIGS": [-1.0, -1.0, -1.0], "NEDOS": 301, "EMIN": 10.0, "EMAX": -10.0, "EFERMI": 0.0, "NWRITE": 2, "LWAVE": false, "LDOWNSAMPLE": false, "LCHARG": false, "LPARD": false, "LVTOT": false, "LVHAR": false, "LELF": false, "LOPTICS": false, "STM": [0.0, 0.0, 0.0, 0.0, 0.0, 0.0, 0.0], "NPAR": 2, "NSIM": 4, "NBLK": -1, "LPLANE": true, "LSCALAPACK": true, "LSCAAWARE": false, "LSCALU": false, "LASYNC": false, "LORBITALREAL": false, "IDIOT": 3, "PHON_NSTRUCT": -1, "LMUSIC": false, "POMASS": [7.01, 30.974, 16.0], "DARWINR": [0.0, 0.0, 0.0], "DARWINV": [1.0, 1.0, 1.0], "LCORR": true, "GGA_COMPAT": true, "LBERRY": false, "ICORELEVEL": 0, "LDAU": false, "I_CONSTRAINED_M": 0, "GGA": "--", "VOSKOWN": 0, "LHFCALC": false, "PRECFOCK": "", "LSYMGRAD": false, "LHFONE": false, "LRHFCALC": false, "LTHOMAS": false, "LMODELHF": false, "LFOCKACE": false, "ENCUT4O": -1.0, "EXXOEP": 0, "FOURORBIT": 0, "AEXX": 0.0, "HFALPHA": 0.0, "MCALPHA": 0.0, "ALDAX": 1.0, "AGGAX": 1.0, "ALDAC": 1.0, "AGGAC": 1.0, "NKREDX": 1, "NKREDY": 1, "NKREDZ": 1, "SHIFTRED": false, "ODDONLY": false, "EVENONLY": false, "LMAXFOCK": 0, "NMAXFOCKAE": 0, "LFOCKAEDFT": false, "HFSCREEN": 0.0, "HFSCREENC": 0.0, "NBANDSGWLOW": 0, "LUSE_VDW": false, "Zab_VDW": -0.8491, "PARAM1": 0.1234, "PARAM2": 1.0, "PARAM3": 0.0, "MODEL_GW": 0, "MODEL_EPS0": 13.2212537, "MODEL_ALPHA": 1.0, "LEPSILON": false, "LRPA": false, "LNABLA": false, "LVEL": false, "CSHIFT": 0.1, "OMEGAMAX": -1.0, "DEG_THRESHOLD": 0.002, "RTIME": -0.1, "WPLASMAI": 0.0, "DFIELD": [0.0, 0.0, 0.0], "WPLASMA": [0.0, 0.0, 0.0, 0.0, 0.0, 0.0, 0.0, 0.0, 0.0], "NUCIND": false, "MAGPOS": [0.0, 0.0, 0.0], "LNICSALL": true, "ORBITALMAG": false, "LMAGBLOCH": false, "LCHIMAG": false, "LGAUGE": true, "MAGATOM": 0, "MAGDIPOL": [0.0, 0.0, 0.0], "AVECCONST": [0.0, 0.0, 0.0], "LFINITE_TEMPERATURE": false, "LADDER": false, "LRPAFORCE": false, "LFXC": false, "LHARTREE": true, "IBSE": 0, "KPOINT": [-1, 0, 0, 0], "LTCTC": false, "LTCTE": false, "LTETE": false, "LTRIPLET": false, "LFXCEPS": false, "LFXHEG": false, "NATURALO": 2, "LHOLEGF": false, "L2ORDER": false, "LDMP1": false, "LMP2LT": false, "LSMP2LT": false, "LGWLF": false, "ENCUTGW": -2.0, "ENCUTGWSOFT": -2.0, "ENCUTLF": -1.0, "LESF_SPLINES": false, "LMAXMP2": -1, "SCISSOR": 0.0, "NOMEGA": 0, "NOMEGAR": 0, "NBANDSGW": -1, "NBANDSO": -1, "NBANDSV": -1, "NELMGW": 1, "NELMHF": 1, "DIM": 3, "IESPILON": 4, "ANTIRES": 0, "OMEGAMIN": -30.0, "OMEGATL": -200.0, "OMEGAGRID": 0, "LSELFENERGY": false, "LSPECTRAL": false, "LSPECTRALGW": false, "LSINGLES": false, "LFERMIGW": false, "ODDONLYGW": false, "EVENONLYGW": false, "NKREDLFX": 1, "NKREDLFY": 1, "NKREDLFZ": 1, "MAXMEM": 2800, "TELESCOPE": 0, "NTAUPAR": -1, "NOMEGAPAR": -1, "DAMP_NEWTON": 0.80000001, "LAMBDA": 1.0, "OFIELD_KAPPA": 0.0, "OFIELD_K": [0.0, 0.0, 0.0], "OFIELD_Q6_NEAR": 0.0, "OFIELD_Q6_FAR": 0.0, "OFIELD_A": 0.0, "KPOINTS_OPT_MODE": 1, "LKPOINTS_OPT": false, "@module": "pymatgen.io.vasp.inputs", "@class": "Incar"}, "relaxed_structures": {"@module": "pymatgen.core.structure", "@class": "Structure", "charge": 0, "lattice": {"matrix": [[7.913034, 0.0, 0.0], [3.13141, 11.241801, 0.0], [0.0, 0.0, 43.596852]], "a": 7.913034, "b": 11.66978227353454, "c": 43.596852, "alpha": 90.0, "beta": 90.0, "gamma": 74.4347915863905, "volume": 3878.2344182324764}, "sites": [{"species": [{"element": "Li", "occu": 1}], "abc": [0.23476024, 0.72272058, 0.05687856], "xyz": [4.1208002123859595, 8.12468093896458, 2.47972616229312], "label": "Li", "properties": {}}, {"species": [{"element": "Li", "occu": 1}], "abc": [0.37945154, 0.29132483, 0.01647529], "xyz": [3.9148704232826597, 3.27501576521883, 0.71827077978708], "label": "Li", "properties": {}}, {"species": [{"element": "Li", "occu": 1}], "abc": [0.74902905, 0.28776936, 0.04330026], "xyz": [6.828216191235299, 3.2350458790173597, 1.88775502678152], "label": "Li", "properties": {}}, {"species": [{"element": "Li", "occu": 1}], "abc": [0.7685868, 0.58895886, 0.03887222], "xyz": [7.926125144143799, 6.62095830130686, 1.6947064222514399], "label": "Li", "properties": {}}, {"species": [{"element": "Li", "occu": 1}], "abc": [0.98634282, 0.98913241, 0.055987699999999994], "xyz": [10.902343390313979, 11.11962971587041, 2.4408874707203996], "label": "Li", "properties": {}}, {"species": [{"element": "Li", "occu": 1}], "abc": [0.1475846, 0.5337584, 0.013533219999999999], "xyz": [2.8392583490204, 6.0004057148784, 0.59000578942344], "label": "Li", "properties": {}}, {"species": [{"element": "Li", "occu": 1}], "abc": [0.87544884, 0.62647475, 0.13472904], "xyz": [8.88920573307806, 7.04270447102475, 5.87376201698208], "label": "Li", "properties": {}}, {"species": [{"element": "Li", "occu": 1}], "abc": [0.97502799, 0.98161016, 0.11358202], "xyz": [10.78925350694726, 11.035066078298161, 4.95181851580104], "label": "Li", "properties": {}}, {"species": [{"element": "Li", "occu": 1}], "abc": [0.10177093, 0.5286907, 0.08004046000000001], "xyz": [2.46086417418862, 5.9434356399507, 3.4895120886319204], "label": "Li", "properties": {}}, {"species": [{"element": "Li", "occu": 1}], "abc": [0.09280331, 0.19667334, 0.08253831], "xyz": [1.35022061095194, 2.2109625502853403, 3.59841048540012], "label": "Li", "properties": {}}, {"species": [{"element": "Li", "occu": 1}], "abc": [0.40576743, 0.1351247, 0.12805126], "xyz": [3.63398230650962, 1.5190449875846999, 5.582631830633519], "label": "Li", "properties": {}}, {"species": [{"element": "Li", "occu": 1}], "abc": [0.42954114, 0.47253531, 0.12243701000000001], "xyz": [4.87867544030586, 5.31214792049331, 5.33786820429252], "label": "Li", "properties": {}}, {"species": [{"element": "Li", "occu": 1}], "abc": [0.61811594, 0.02074569, 0.0792304], "xyz": [4.95613571028486, 0.23321891858769003, 3.4541960227008], "label": "Li", "properties": {}}, {"species": [{"element": "Li", "occu": 1}], "abc": [0.54856041, 0.68459136, 0.09289217], "xyz": [6.48451340600154, 7.69603983543936, 4.04980618744884], "label": "Li", "properties": {}}, {"species": [{"element": "Li", "occu": 1}], "abc": [0.21591192, 0.74374058, 0.11582176], "xyz": [4.03747505358308, 8.36098359598458, 5.04946412909952], "label": "Li", "properties": {}}, {"species": [{"element": "Li", "occu": 1}], "abc": [0.62845861, 0.85979068, 0.13477252], "xyz": [7.6653714817815395, 9.665595726214681, 5.87565760810704], "label": "Li", "properties": {}}, {"species": [{"element": "Li", "occu": 1}], "abc": [0.83509538, 0.43357393, 0.08442642], "xyz": [7.96583587532422, 4.87415183984793, 3.68072613762984], "label": "Li", "properties": {}}, {"species": [{"element": "Li", "occu": 1}], "abc": [0.35826773, 0.29154234, 0.08119017], "xyz": [3.7479233274922197, 3.2774609693543404, 3.53963582534484], "label": "Li", "properties": {}}, {"species": [{"element": "Li", "occu": 1}], "abc": [0.52262461, 0.50412821, 0.21966903000000002], "xyz": [5.71417842624284, 5.66730901530621, 9.576878189893561], "label": "Li", "properties": {}}, {"species": [{"element": "Li", "occu": 1}], "abc": [0.6218248, 0.86540647, 0.19689224], "xyz": [7.630463258665899, 9.72872731985247, 8.58388184722848], "label": "Li", "properties": {}}, {"species": [{"element": "Li", "occu": 1}], "abc": [0.75900796, 0.41175489, 0.16301281], "xyz": [7.29542917384554, 4.62886653415689, 7.10684535167412], "label": "Li", "properties": {}}, {"species": [{"element": "Li", "occu": 1}], "abc": [0.73305507, 0.07674728, 0.16892328], "xyz": [6.04101689284718, 0.8627776490512801, 7.36452323751456], "label": "Li", "properties": {}}, {"species": [{"element": "Li", "occu": 1}], "abc": [0.06139662, 0.01664206, 0.21106195], "xyz": [0.53794665464968, 0.18708672675006002, 9.2016365969814], "label": "Li", "properties": {}}, {"species": [{"element": "Li", "occu": 1}], "abc": [0.081544, 0.35352596, 0.20500191], "xyz": [1.7522951708996, 3.97426849065396, 8.93743792998732], "label": "Li", "properties": {}}, {"species": [{"element": "Li", "occu": 1}], "abc": [0.29684354, 0.92539646, 0.15396788], "xyz": [5.246728753508959, 10.40312284942446, 6.71251487711376], "label": "Li", "properties": {}}, {"species": [{"element": "Li", "occu": 1}], "abc": [0.19922058, 0.56357998, 0.17821581], "xyz": [3.34123920821152, 6.33565398274398, 7.76964829263012], "label": "Li", "properties": {}}, {"species": [{"element": "Li", "occu": 1}], "abc": [0.86531065, 0.62565487, 0.19761523], "xyz": [8.806414510478799, 7.03348754322087, 8.61540193525596], "label": "Li", "properties": {}}, {"species": [{"element": "Li", "occu": 1}], "abc": [0.28082051, 0.74399501, 0.2185763], "xyz": [4.55189565779144, 8.36384384741301, 9.5292386018076], "label": "Li", "properties": {}}, {"species": [{"element": "Li", "occu": 1}], "abc": [0.48691467, 0.31513111, 0.16829343], "xyz": [4.83977704797388, 3.54264122752911, 7.337063760282359], "label": "Li", "properties": {}}, {"species": [{"element": "Li", "occu": 1}], "abc": [0.00646448, 0.17214374, 0.16379093], "xyz": [0.5902062789057199, 1.93520566847574, 7.1407689341523595], "label": "Li", "properties": {}}, {"species": [{"element": "Li", "occu": 1}], "abc": [0.17295865, 0.3858492, 0.30323781], "xyz": [2.5768797214160997, 4.3376399224092, 13.22021392337412], "label": "Li", "properties": {}}, {"species": [{"element": "Li", "occu": 1}], "abc": [0.27377113, 0.74660577, 0.28055495], "xyz": [4.5042890341441195, 8.39319349179177, 12.231312633017401], "label": "Li", "properties": {}}, {"species": [{"element": "Li", "occu": 1}], "abc": [0.41059127, 0.29267932, 0.24709901], "xyz": [4.16552162905438, 3.2902426722553204, 10.77273896831652], "label": "Li", "properties": {}}, {"species": [{"element": "Li", "occu": 1}], "abc": [0.38381933, 0.95861887, 0.25291841], "xyz": [6.039004123853919, 10.77660257138487, 11.026446488845318], "label": "Li", "properties": {}}, {"species": [{"element": "Li", "occu": 1}], "abc": [0.71207639, 0.89817527, 0.29504872], "xyz": [8.44723970689796, 10.09710764846127, 12.863195378629438], "label": "Li", "properties": {}}, {"species": [{"element": "Li", "occu": 1}], "abc": [0.73279636, 0.23441355, 0.28874817], "xyz": [6.53268744636174, 2.6352304808035503, 12.58851123276084], "label": "Li", "properties": {}}, {"species": [{"element": "Li", "occu": 1}], "abc": [0.9460763, 0.80511672, 0.23862106], "xyz": [10.0074844766694, 9.05096194801272, 10.40312703690312], "label": "Li", "properties": {}}, {"species": [{"element": "Li", "occu": 1}], "abc": [0.85060834, 0.44564398, 0.26162081], "xyz": [8.126386730515359, 5.00984094000798, 11.40584373369012], "label": "Li", "properties": {}}, {"species": [{"element": "Li", "occu": 1}], "abc": [0.51578388, 0.5052287, 0.28170252], "xyz": [5.663493582558919, 5.6796805048887, 12.28134307246704], "label": "Li", "properties": {}}, {"species": [{"element": "Li", "occu": 1}], "abc": [0.92948312, 0.62716666, 0.30243134], "xyz": [9.318947481776679, 7.05048278555466, 13.18505437014168], "label": "Li", "properties": {}}, {"species": [{"element": "Li", "occu": 1}], "abc": [0.13739348, 0.1974493, 0.25219951], "xyz": [1.7054939911313198, 2.2196857381893, 10.99510471194252], "label": "Li", "properties": {}}, {"species": [{"element": "Li", "occu": 1}], "abc": [0.65766248, 0.05392249, 0.2480658], "xyz": [5.37295898917522, 0.60618590200449, 10.8148879688616], "label": "Li", "properties": {}}, {"species": [{"element": "Li", "occu": 1}], "abc": [0.8203562, 0.26955881, 0.38646539], "xyz": [7.335605655932899, 3.03032649981681, 16.84867441095228], "label": "Li", "properties": {}}, {"species": [{"element": "Li", "occu": 1}], "abc": [0.92160187, 0.6252669, 0.36539665], "xyz": [9.250633955102579, 7.0291260616869, 15.9301436713458], "label": "Li", "properties": {}}, {"species": [{"element": "Li", "occu": 1}], "abc": [0.06132008, 0.17407047, 0.33085966], "xyz": [1.03031388838542, 1.9568655837164701, 14.424439629790319], "label": "Li", "properties": {}}, {"species": [{"element": "Li", "occu": 1}], "abc": [0.03714866, 0.84008624, 0.33668087], "xyz": [2.92461306243284, 9.44408233291824, 14.67822606062124], "label": "Li", "properties": {}}, {"species": [{"element": "Li", "occu": 1}], "abc": [0.36549555, 0.77868254, 0.3772177], "xyz": [5.3305530065801, 8.753794156854541, 16.4455042386804], "label": "Li", "properties": {}}, {"species": [{"element": "Li", "occu": 1}], "abc": [0.38822882, 0.11681314, 0.37230111], "xyz": [3.4378576871672797, 1.31319007406514, 16.23115639210572], "label": "Li", "properties": {}}, {"species": [{"element": "Li", "occu": 1}], "abc": [0.59676616, 0.68711291, 0.32164749], "xyz": [6.8738631516325395, 7.72438659875091, 14.022818017701479], "label": "Li", "properties": {}}, {"species": [{"element": "Li", "occu": 1}], "abc": [0.49810878, 0.32628641, 0.34627507], "xyz": [4.96328823897662, 3.6680468902244106, 15.09650297807964], "label": "Li", "properties": {}}, {"species": [{"element": "Li", "occu": 1}], "abc": [0.16622546, 0.39103351, 0.36527473], "xyz": [2.5398339601947395, 4.39592090375151, 15.92482834314996], "label": "Li", "properties": {}}, {"species": [{"element": "Li", "occu": 1}], "abc": [0.57976617, 0.50735254, 0.38433299], "xyz": [6.176438232541179, 5.7035562915245395, 16.75570848374748], "label": "Li", "properties": {}}, {"species": [{"element": "Li", "occu": 1}], "abc": [0.78851506, 0.07969658, 0.33630224000000003], "xyz": [6.489109146869841, 0.8959330927405801, 14.66171898454848], "label": "Li", "properties": {}}, {"species": [{"element": "Li", "occu": 1}], "abc": [0.30952141, 0.93664317, 0.33169795], "xyz": [5.38226723002764, 10.52955612514917, 14.4609864348534], "label": "Li", "properties": {}}, {"species": [{"element": "Li", "occu": 1}], "abc": [0.5607243, 0.52942907, 0.44270761000000003], "xyz": [6.0948899346148995, 5.951736248555069, 19.30065815244372], "label": "Li", "properties": {}}, {"species": [{"element": "Li", "occu": 1}], "abc": [0.70115462, 0.05488881, 0.41751224], "xyz": [5.720139715839179, 0.6170490791468101, 18.202219335468477], "label": "Li", "properties": {}}, {"species": [{"element": "Li", "occu": 1}], "abc": [0.69260966, 0.72323593, 0.41992383], "xyz": [7.74539201186974, 8.13047440110993, 18.30735706778316], "label": "Li", "properties": {}}, {"species": [{"element": "Li", "occu": 1}], "abc": [0.0281698, 0.65968239, 0.46103492], "xyz": [2.2886446180431, 7.41601815158439, 20.09967117407184], "label": "Li", "properties": {}}, {"species": [{"element": "Li", "occu": 1}], "abc": [0.04507335, 0.96438925, 0.45638496], "xyz": [3.3765650923863997, 10.841472035039251, 19.89694755614592], "label": "Li", "properties": {}}, {"species": [{"element": "Li", "occu": 1}], "abc": [0.24806396, 0.56653658, 0.40678626], "xyz": [3.7369968616324396, 6.368891491580579, 17.73460037285352], "label": "Li", "properties": {}}, {"species": [{"element": "Li", "occu": 1}], "abc": [0.17555678, 0.23008234, 0.42091428000000003], "xyz": [2.10966890936992, 2.58653987989434, 18.350537569846562], "label": "Li", "properties": {}}, {"species": [{"element": "Li", "occu": 1}], "abc": [0.80653535, 0.26312366, 0.44417479], "xyz": [7.2060897069125, 2.95798382411166, 19.36462258176108], "label": "Li", "properties": {}}, {"species": [{"element": "Li", "occu": 1}], "abc": [0.43603859, 0.95904087, 0.41858986], "xyz": [6.4535383587087605, 10.781346611406871, 18.24920017512072], "label": "Li", "properties": {}}, {"species": [{"element": "Li", "occu": 1}], "abc": [0.96009331, 0.81752644, 0.41561913], "xyz": [10.15726147468294, 9.19046955071844, 18.11968569897876], "label": "Li", "properties": {}}, {"species": [{"element": "Li", "occu": 1}], "abc": [0.41549578, 0.95947339, 0.48287374], "xyz": [6.29233680217642, 10.78620891517539, 21.05177497746648], "label": "Li", "properties": {}}, {"species": [{"element": "Li", "occu": 1}], "abc": [0.64482063, 0.71643738, 0.48659513], "xyz": [7.34594674519722, 8.05404645492138, 21.214015866530758], "label": "Li", "properties": {}}, {"species": [{"element": "P", "occu": 1}], "abc": [0.45296839, 0.48947824, 0.053589000000000005], "xyz": [5.11711132651366, 5.502616967910241, 2.336311701828], "label": "P", "properties": {}}, {"species": [{"element": "P", "occu": 1}], "abc": [0.06655057, 0.34264813, 0.027519629999999996], "xyz": [1.59958870389268, 3.8519820904821302, 1.1997692362047598], "label": "P", "properties": {}}, {"species": [{"element": "P", "occu": 1}], "abc": [0.86456056, 0.77288971, 0.07788701], "xyz": [9.26153167313014, 8.68867231476771, 3.3956284476925203], "label": "P", "properties": {}}, {"species": [{"element": "P", "occu": 1}], "abc": [0.33709657, 0.94697912, 0.08419518000000001], "xyz": [5.63283650585258, 10.64575081819512, 3.6706448015733604], "label": "P", "properties": {}}, {"species": [{"element": "P", "occu": 1}], "abc": [0.11833362, 0.3741611, 0.13651228], "xyz": [2.10802976855408, 4.206244628141101, 5.951505667342561], "label": "P", "properties": {}}, {"species": [{"element": "P", "occu": 1}], "abc": [0.72308248, 0.22932753, 0.1119492], "xyz": [6.43989476976162, 2.57805445608153, 4.880632703918399], "label": "P", "properties": {}}, {"species": [{"element": "P", "occu": 1}], "abc": [0.51029512, 0.65911895, 0.16365073], "xyz": [6.10195430581358, 7.40968407122895, 7.134656655501959], "label": "P", "properties": {}}, {"species": [{"element": "P", "occu": 1}], "abc": [0.98595057, 0.82938896, 0.16925106], "xyz": [10.399017265962978, 9.32382563991696, 7.37881341366312], "label": "P", "properties": {}}, {"species": [{"element": "P", "occu": 1}], "abc": [0.77113798, 0.25626711, 0.22008325], "xyz": [6.90451844535642, 2.8809038534651106, 9.594936877929], "label": "P", "properties": {}}, {"species": [{"element": "P", "occu": 1}], "abc": [0.37271233, 0.11339104, 0.19611159], "xyz": [3.3043591760756197, 1.2747195068630401, 8.54984796471468], "label": "P", "properties": {}}, {"species": [{"element": "P", "occu": 1}], "abc": [0.1589091, 0.54076926, 0.24752294000000002], "xyz": [2.9508233796659997, 6.07922040783726, 10.79122098178488], "label": "P", "properties": {}}, {"species": [{"element": "P", "occu": 1}], "abc": [0.63670806, 0.71042021, 0.2526556], "xyz": [7.262909476650139, 7.986402627198211, 11.0149888001712], "label": "P", "properties": {}}, {"species": [{"element": "P", "occu": 1}], "abc": [0.4221096, 0.13827297, 0.30408429], "xyz": [3.7731569775140996, 1.55443721241897, 13.257117786655078], "label": "P", "properties": {}}, {"species": [{"element": "P", "occu": 1}], "abc": [0.02400583, 0.99496909, 0.27988240000000003], "xyz": [3.30561510710512, 11.18524451093109, 12.2019915702048], "label": "P", "properties": {}}, {"species": [{"element": "P", "occu": 1}], "abc": [0.80989481, 0.42174518, 0.33086978], "xyz": [7.72938224205734, 4.74117538626918, 14.42488082993256], "label": "P", "properties": {}}, {"species": [{"element": "P", "occu": 1}], "abc": [0.28549604, 0.59178981, 0.33640973], "xyz": [4.11227640031746, 6.65278327784781, 14.66640521016996], "label": "P", "properties": {}}, {"species": [{"element": "P", "occu": 1}], "abc": [0.07179578, 0.02198368, 0.38795281], "xyz": [0.63696236358532, 0.24713615580768, 16.913521240554118], "label": "P", "properties": {}}, {"species": [{"element": "P", "occu": 1}], "abc": [0.67714515, 0.87725217, 0.36344951000000003], "xyz": [8.105308812544799, 9.86189432195817, 15.845254496942522], "label": "P", "properties": {}}, {"species": [{"element": "P", "occu": 1}], "abc": [0.45743521, 0.30438354, 0.41588724], "xyz": [4.5728500305185396, 3.4218191843555403, 18.13137445096848], "label": "P", "properties": {}}, {"species": [{"element": "P", "occu": 1}], "abc": [0.93065817, 0.47785146, 0.42206422], "xyz": [8.86067858194638, 5.371911020879461, 18.40067133383544], "label": "P", "properties": {}}, {"species": [{"element": "P", "occu": 1}], "abc": [0.72902204, 0.90726426, 0.47233719], "xyz": [8.60979256567596, 10.199284265332262, 20.59241456652588], "label": "P", "properties": {}}, {"species": [{"element": "P", "occu": 1}], "abc": [0.34111738, 0.76155368, 0.44613908], "xyz": [5.08401023501972, 8.56123492137768, 19.45025944217616], "label": "P", "properties": {}}, {"species": [{"element": "O", "occu": 1}], "abc": [0.32332013, 0.5852567, 0.033965459999999996], "xyz": [4.39112186452142, 6.5793393553167, 1.4807871327319198], "label": "O", "properties": {}}, {"species": [{"element": "O", "occu": 1}], "abc": [0.21118284, 0.26371897, 0.04888549], "xyz": [2.49690921298426, 2.96467618066497, 2.13125347247748], "label": "O", "properties": {}}, {"species": [{"element": "O", "occu": 1}], "abc": [0.93181391, 0.27730468, 0.018589259999999996], "xyz": [8.24182979950174, 3.1174040289286804, 0.8104332170095198], "label": "O", "properties": {}}, {"species": [{"element": "O", "occu": 1}], "abc": [0.60669949, 0.53915692, 0.06531179000000001], "xyz": [6.48915506300986, 6.061094802412921, 2.84738844248508], "label": "O", "properties": {}}, {"species": [{"element": "O", "occu": 1}], "abc": [0.81383919, 0.73410679, 0.04660045], "xyz": [8.738726524276359, 8.25268244592879, 2.0316329217834], "label": "O", "properties": {}}, {"species": [{"element": "O", "occu": 1}], "abc": [0.97872086, 0.4637308, 0.04561307], "xyz": [9.19678270611724, 5.2131693711708005, 1.9885862620556398], "label": "O", "properties": {}}, {"species": [{"element": "O", "occu": 1}], "abc": [0.52405226, 0.37350115, 0.03508133], "xyz": [5.31642858727834, 4.1988256015711505, 1.52943555197316], "label": "O", "properties": {}}, {"species": [{"element": "O", "occu": 1}], "abc": [0.44000134, 0.98300392, 0.058332169999999996], "xyz": [6.5599338685927595, 11.05073445085992, 2.5430989823288397], "label": "O", "properties": {}}, {"species": [{"element": "O", "occu": 1}], "abc": [0.16536214, 0.38067245, 9.99999999999994e-05], "xyz": [2.50055775278726, 4.27944392908245, 0.0043596851999999735], "label": "O", "properties": {}}, {"species": [{"element": "O", "occu": 1}], "abc": [0.05873788, 0.7031153, 0.08538024999999999], "xyz": [2.66653712310092, 7.9042822826553, 3.7223101229729996], "label": "O", "properties": {}}, {"species": [{"element": "O", "occu": 1}], "abc": [0.13905259, 0.02231929, 0.08364611], "xyz": [1.17021872035696, 0.25090901664129, 3.64670707804572], "label": "O", "properties": {}}, {"species": [{"element": "O", "occu": 1}], "abc": [0.99356484, 0.47145217, 0.1161866], "xyz": [9.33842239978426, 5.29997147615817, 5.0653700045832], "label": "O", "properties": {}}, {"species": [{"element": "O", "occu": 1}], "abc": [0.84622956, 0.13160179, 0.13218428000000002], "xyz": [7.10834244130894, 1.47944113442379, 5.76281849188656], "label": "O", "properties": {}}, {"species": [{"element": "O", "occu": 1}], "abc": [0.57862636, 0.17743458, 0.09753588999999999], "xyz": [5.13431047813404, 1.9946842388785802, 4.25225776101828], "label": "O", "properties": {}}, {"species": [{"element": "O", "occu": 1}], "abc": [0.26309272, 0.42498044, 0.1511954], "xyz": [3.41264963813288, 4.7775455353724405, 6.5916434768808], "label": "O", "properties": {}}, {"species": [{"element": "O", "occu": 1}], "abc": [0.41633436, 0.97055118, 0.11623311], "xyz": [6.333661616612039, 10.91074322587518, 5.06739769416972], "label": "O", "properties": {}}, {"species": [{"element": "O", "occu": 1}], "abc": [0.4374686, 0.63445105, 0.13180834], "xyz": [5.448430268212899, 7.132372448341051, 5.746428691345679], "label": "O", "properties": {}}, {"species": [{"element": "O", "occu": 1}], "abc": [0.33804957, 0.812746, 0.08273547], "xyz": [5.22003869295538, 9.136728795546, 3.60700604074044], "label": "O", "properties": {}}, {"species": [{"element": "O", "occu": 1}], "abc": [0.85141157, 0.9108199, 0.07869383999999999], "xyz": [9.58939924446238, 10.239256062639901, 3.4308036957916794], "label": "O", "properties": {}}, {"species": [{"element": "O", "occu": 1}], "abc": [0.63671243, 0.33973258, 0.13205705], "xyz": [6.10216910515042, 3.8192060575765803, 5.7572716644066], "label": "O", "properties": {}}, {"species": [{"element": "O", "occu": 1}], "abc": [0.20449178, 0.26368813, 0.11657688], "xyz": [2.44386605502382, 2.9643294835221305, 5.082384983981759], "label": "O", "properties": {}}, {"species": [{"element": "O", "occu": 1}], "abc": [0.74692013, 0.7447604, 0.10435458], "xyz": [8.24255454813842, 8.3724482094804, 4.54953117978216], "label": "O", "properties": {}}, {"species": [{"element": "O", "occu": 1}], "abc": [0.09570787, 0.86834907, 0.14349695], "xyz": [3.4764965906662795, 9.76180744347507, 6.2560152916014005], "label": "O", "properties": {}}, {"species": [{"element": "O", "occu": 1}], "abc": [0.35152664, 0.46086074, 0.08204424999999999], "xyz": [4.22478618406916, 5.18090472779274, 3.576871024700999], "label": "O", "properties": {}}, {"species": [{"element": "O", "occu": 1}], "abc": [0.83127617, 0.26591966, 0.08546376], "xyz": [7.410620079120379, 2.98941589970766, 3.72595089608352], "label": "O", "properties": {}}, {"species": [{"element": "O", "occu": 1}], "abc": [0.70580144, 0.58556516, 0.16631343], "xyz": [7.41867538964456, 6.582807001253161, 7.25074199332236], "label": "O", "properties": {}}, {"species": [{"element": "O", "occu": 1}], "abc": [0.79058588, 0.90305976, 0.16608617], "xyz": [9.083783311421518, 10.15201811302776, 7.24083417273684], "label": "O", "properties": {}}, {"species": [{"element": "O", "occu": 1}], "abc": [0.64735711, 0.35439194, 0.1999797], "xyz": [6.232305286407139, 3.9840036654839404, 8.718485383904401], "label": "O", "properties": {}}, {"species": [{"element": "O", "occu": 1}], "abc": [0.49585501, 0.01530868, 0.21628177], "xyz": [3.9716553068391396, 0.17209713413268002, 9.42920431698804], "label": "O", "properties": {}}, {"species": [{"element": "O", "occu": 1}], "abc": [0.22750127, 0.06328513, 0.18138794], "xyz": [1.99839697348648, 0.71143883771913, 7.907943174764879], "label": "O", "properties": {}}, {"species": [{"element": "O", "occu": 1}], "abc": [0.91683284, 0.30642345, 0.23460998], "xyz": [8.21446689080106, 3.44475144663345, 10.228256575782959], "label": "O", "properties": {}}, {"species": [{"element": "O", "occu": 1}], "abc": [0.05880777, 0.85349018, 0.20113109], "xyz": [3.1379755680279797, 9.594766759014181, 8.768682363328681], "label": "O", "properties": {}}, {"species": [{"element": "O", "occu": 1}], "abc": [0.08455428, 0.51621419, 0.21576434], "xyz": [2.28555916919342, 5.803177197356191, 9.40664599785768], "label": "O", "properties": {}}, {"species": [{"element": "O", "occu": 1}], "abc": [0.99889703, 0.69460881, 0.16590432], "xyz": [10.079411134611119, 7.80865401486681, 7.232906085200639], "label": "O", "properties": {}}, {"species": [{"element": "O", "occu": 1}], "abc": [0.49686718, 0.79407392, 0.16673413], "xyz": [6.41829790265132, 8.92682098792992, 7.26908318895876], "label": "O", "properties": {}}, {"species": [{"element": "O", "occu": 1}], "abc": [0.28696868, 0.22361782, 0.21624627000000002], "xyz": [2.97103199950132, 2.51386703249382, 9.42765662874204], "label": "O", "properties": {}}, {"species": [{"element": "O", "occu": 1}], "abc": [0.85646585, 0.146101, 0.19987473], "xyz": [7.2347455232988995, 1.6424383679010002, 8.71390902234996], "label": "O", "properties": {}}, {"species": [{"element": "O", "occu": 1}], "abc": [0.40087705, 0.62066301, 0.18961724], "xyz": [5.1157040826138, 6.977370046481011, 8.266714748928479], "label": "O", "properties": {}}, {"species": [{"element": "O", "occu": 1}], "abc": [0.74591034, 0.74819854, 0.22659942], "xyz": [8.245330271512959, 8.41109909517054, 9.87902137702584], "label": "O", "properties": {}}, {"species": [{"element": "O", "occu": 1}], "abc": [0.00895291, 0.33816902, 0.16281931], "xyz": [1.12979053214714, 3.80162882720502, 7.09840936081212], "label": "O", "properties": {}}, {"species": [{"element": "O", "occu": 1}], "abc": [0.48240499, 0.14979148, 0.16989833000000001], "xyz": [4.28634562602646, 1.6839260096554802, 7.40703234805716], "label": "O", "properties": {}}, {"species": [{"element": "O", "occu": 1}], "abc": [0.35401894, 0.46609715, 0.25028872], "xyz": [4.26090518534546, 5.239771406967151, 10.911800283109441], "label": "O", "properties": {}}, {"species": [{"element": "O", "occu": 1}], "abc": [0.44156043, 0.78498533, 0.24990444], "xyz": [5.95219360785992, 8.82464886777933, 10.89504688482288], "label": "O", "properties": {}}, {"species": [{"element": "O", "occu": 1}], "abc": [0.29898993, 0.23627099, 0.28388579], "xyz": [3.10577882254352, 2.65611145165299, 12.376526771533081], "label": "O", "properties": {}}, {"species": [{"element": "O", "occu": 1}], "abc": [0.14827379, 0.89694994, 0.29996669], "xyz": [3.9820135531942595, 10.08333273244194, 13.07760338885988], "label": "O", "properties": {}}, {"species": [{"element": "O", "occu": 1}], "abc": [0.87824597, 0.94475591, 0.26543431], "xyz": [9.90800832510608, 10.62075793379391, 11.57210032879212], "label": "O", "properties": {}}, {"species": [{"element": "O", "occu": 1}], "abc": [0.56757402, 0.18829139, 0.31873541], "xyz": [5.08085005933658, 2.11673433639339, 13.89586049692932], "label": "O", "properties": {}}, {"species": [{"element": "O", "occu": 1}], "abc": [0.71105767, 0.73523976, 0.28439167], "xyz": [7.9289606555323795, 8.265419069207761, 12.39858154702284], "label": "O", "properties": {}}, {"species": [{"element": "O", "occu": 1}], "abc": [0.73752794, 0.39720385, 0.29897172], "xyz": [7.07989177309846, 4.4652866381338505, 13.03422582902544], "label": "O", "properties": {}}, {"species": [{"element": "O", "occu": 1}], "abc": [0.64797939, 0.57576721, 0.24977822], "xyz": [6.9304461434353595, 6.47266039714521, 10.88954409016344], "label": "O", "properties": {}}, {"species": [{"element": "O", "occu": 1}], "abc": [0.14805664, 0.67537024, 0.250434], "xyz": [3.2864383494841594, 7.59237783940224, 10.918134033767998], "label": "O", "properties": {}}, {"species": [{"element": "O", "occu": 1}], "abc": [0.93844185, 0.10509764, 0.30008275], "xyz": [7.7550260669453, 1.1814867544496401, 13.082663239503], "label": "O", "properties": {}}, {"species": [{"element": "O", "occu": 1}], "abc": [0.50745316, 0.02801769, 0.28391026], "xyz": [4.1032289831303395, 0.31496929545969005, 12.37759358650152], "label": "O", "properties": {}}, {"species": [{"element": "O", "occu": 1}], "abc": [0.04954579, 0.50336539, 0.2736068], "xyz": [1.9683009367267599, 5.658733544667391, 11.9283951657936], "label": "O", "properties": {}}, {"species": [{"element": "O", "occu": 1}], "abc": [0.39546573, 0.62976889, 0.31046572], "xyz": [5.10139836715972, 7.0797365373708905, 13.53532804591344], "label": "O", "properties": {}}, {"species": [{"element": "O", "occu": 1}], "abc": [0.66194169, 0.21985711, 0.24639466999999998], "xyz": [5.926429851812561, 2.47158987905511, 10.742031961578839], "label": "O", "properties": {}}, {"species": [{"element": "O", "occu": 1}], "abc": [0.13277309, 0.03163291, 0.25356295], "xyz": [1.14969358615816, 0.35561087927091, 11.0545464038334], "label": "O", "properties": {}}, {"species": [{"element": "O", "occu": 1}], "abc": [0.00507898, 0.34781918, 0.33407503], "xyz": [1.1293545998691201, 3.9101140055431802, 14.56461963980556], "label": "O", "properties": {}}, {"species": [{"element": "O", "occu": 1}], "abc": [0.09032173, 0.66599328, 0.33372029000000003], "xyz": [2.8002169373536203, 7.4869639210972805, 14.54915409252708], "label": "O", "properties": {}}, {"species": [{"element": "O", "occu": 1}], "abc": [0.94887378, 0.11984066, 0.36774346], "xyz": [7.88374072397912, 1.34722485142866, 16.03245719958792], "label": "O", "properties": {}}, {"species": [{"element": "O", "occu": 1}], "abc": [0.80176092, 0.78003872, 0.38381703], "xyz": [8.78698246802648, 8.769040062534721, 16.73321425198956], "label": "O", "properties": {}}, {"species": [{"element": "O", "occu": 1}], "abc": [0.53285381, 0.82617835, 0.34864124], "xyz": [6.803593462533039, 9.28773260120835, 15.199660541376481], "label": "O", "properties": {}}, {"species": [{"element": "O", "occu": 1}], "abc": [0.21593793, 0.07383268, 0.40254303], "xyz": [1.93992457445842, 0.83001229585668, 17.54960890254156], "label": "O", "properties": {}}, {"species": [{"element": "O", "occu": 1}], "abc": [0.35850842, 0.61632074, 0.3682403], "xyz": [4.76684224518968, 6.928555111252741, 16.0541178595356], "label": "O", "properties": {}}, {"species": [{"element": "O", "occu": 1}], "abc": [0.3784322, 0.28103221, 0.38383334], "xyz": [3.8745739380109, 3.15930817941021, 16.73392531664568], "label": "O", "properties": {}}, {"species": [{"element": "O", "occu": 1}], "abc": [0.29809299, 0.45699234, 0.33337706], "xyz": [3.7898503484310595, 5.1374169448043405, 14.53419034501512], "label": "O", "properties": {}}, {"species": [{"element": "O", "occu": 1}], "abc": [0.79739188, 0.55647568, 0.33415994], "xyz": [8.05234256687272, 6.255788855899681, 14.568321448508879], "label": "O", "properties": {}}, {"species": [{"element": "O", "occu": 1}], "abc": [0.5900104, 0.98758535, 0.38336335], "xyz": [7.7613069963971, 11.10223797521535, 16.7134352321742], "label": "O", "properties": {}}, {"species": [{"element": "O", "occu": 1}], "abc": [0.15894335, 0.91190838, 0.36779499], "xyz": [4.113283152839699, 10.25149253819238, 16.03470374537148], "label": "O", "properties": {}}, {"species": [{"element": "O", "occu": 1}], "abc": [0.69963503, 0.38310596, 0.35660159], "xyz": [6.73589761418462, 4.30680096423396, 15.546706742194681], "label": "O", "properties": {}}, {"species": [{"element": "O", "occu": 1}], "abc": [0.04899121, 0.50611657, 0.39574394], "xyz": [1.9725275988948399, 5.6896617627425705, 17.25318998207688], "label": "O", "properties": {}}, {"species": [{"element": "O", "occu": 1}], "abc": [0.31250534, 0.10205808, 0.33032263], "xyz": [2.79245107289436, 1.14731662580208, 14.40102681236076], "label": "O", "properties": {}}, {"species": [{"element": "O", "occu": 1}], "abc": [0.78684152, 0.91341726, 0.33720926], "xyz": [9.08658764250828, 10.268455066885261, 14.70126220124952], "label": "O", "properties": {}}, {"species": [{"element": "O", "occu": 1}], "abc": [0.65538844, 0.22892226, 0.41641604], "xyz": [5.902960463113559, 2.57349849139026, 18.15442846630608], "label": "O", "properties": {}}, {"species": [{"element": "O", "occu": 1}], "abc": [0.73686726, 0.54838283, 0.414514], "xyz": [7.54806715955714, 6.16481064667683, 18.071505509928], "label": "O", "properties": {}}, {"species": [{"element": "O", "occu": 1}], "abc": [0.58446548, 0.98577689, 0.45082954000000003], "xyz": [7.71176682618122, 11.081907627778891, 19.65474873260808], "label": "O", "properties": {}}, {"species": [{"element": "O", "occu": 1}], "abc": [0.47057306, 0.66601821, 0.46587515], "xyz": [5.8092367062401395, 7.487244179196211, 20.3106899650278], "label": "O", "properties": {}}, {"species": [{"element": "O", "occu": 1}], "abc": [0.18798646, 0.71137061, 0.43441355], "xyz": [3.71513629137974, 7.99708683486861, 18.9390632461446], "label": "O", "properties": {}}, {"species": [{"element": "O", "occu": 1}], "abc": [0.86287541, 0.97338096, 0.48127104], "xyz": [9.876017329047539, 10.942555049508961, 20.981902302766077], "label": "O", "properties": {}}, {"species": [{"element": "O", "occu": 1}], "abc": [0.98092835, 0.51557169, 0.453485], "xyz": [9.3765857308968, 5.795954340213691, 19.77051842922], "label": "O", "properties": {}}, {"species": [{"element": "O", "occu": 1}], "abc": [0.94285045, 0.34005272, 0.42114196], "xyz": [8.5256521557005, 3.82280500774872, 18.360463701109918], "label": "O", "properties": {}}, {"species": [{"element": "O", "occu": 1}], "abc": [0.45718957, 0.43848965, 0.41738557], "xyz": [4.990847486761879, 4.92941338585965, 18.196696922225637], "label": "O", "properties": {}}, {"species": [{"element": "O", "occu": 1}], "abc": [0.26968291, 0.87766868, 0.46455658], "xyz": [4.8823505172877395, 9.86657664449268, 20.25320446388616], "label": "O", "properties": {}}, {"species": [{"element": "O", "occu": 1}], "abc": [0.81783473, 0.78622521, 0.45437856], "xyz": [8.93354750971692, 8.838587352003211, 19.80947483229312], "label": "O", "properties": {}}, {"species": [{"element": "O", "occu": 1}], "abc": [0.35419866, 0.26829244, 0.44169565], "xyz": [3.64291966887484, 3.01609022028444, 19.2565398820938], "label": "O", "properties": {}}, {"species": [{"element": "O", "occu": 1}], "abc": [0.96328815, 0.98524439, 0.41434927], "xyz": [10.707736018037, 11.07592136874639, 18.064323800498038], "label": "O", "properties": {}}, {"species": [{"element": "O", "occu": 1}], "abc": [0.4430383, 0.78993339, 0.41772169], "xyz": [5.9793824479821, 8.88027397363539, 18.21135069611988], "label": "O", "properties": {}}, {"species": [{"element": "O", "occu": 1}], "abc": [0.62910577, 0.86972205, 0.49967381000000005], "xyz": [7.70159167219668, 9.777242211412052, 21.784205142846123], "label": "O", "properties": {}}]}, "formula": "(Li3PO4)22.0", "bandgap": 4.2797, "slab_thickness": 21.779845457646122}