{"miller": "111_0.45", "final_energy": -1097.22467952, "gamma": 0.05694710978914459, "work_function": "Not calculated", "ionization_potentail": "Not calculated", "electron_affinity": "Not calculated", "is_stochiometric": true, "incar_parameters": {"SYSTEM": "unknown system", "LCOMPAT": false, "PREC": "normal", "ENMAX": 520.0, "ENAUG": 628.945, "EDIFF": 1e-05, "IALGO": 38, "IWAVPR": 11, "NBANDS": 508, "NBANDSLOW": -1, "NBANDSHIGH": -1, "NELECT": 836.0, "TURBO": 0, "IRESTART": 0, "NREBOOT": 0, "NMIN": 0, "EREF": 0.0, "ISMEAR": 0, "SIGMA": 0.05, "KSPACING": 0.5, "KGAMMA": true, "KBLOWUP": true, "LREAL": true, "ROPT": [-0.0005, -0.0005, -0.0005], "LMAXPAW": -100, "LMAXMIX": 2, "NLSPLINE": false, "ISTART": 0, "ICHARG": 2, "INIWAV": 1, "ISPIN": 1, "LNONCOLLINEAR": false, "MAGMOM": [0.6, 0.6, 0.6, 0.6, 0.6, 0.6, 0.6, 0.6, 0.6, 0.6, 0.6, 0.6, 0.6, 0.6, 0.6, 0.6, 0.6, 0.6, 0.6, 0.6, 0.6, 0.6, 0.6, 0.6, 0.6, 0.6, 0.6, 0.6, 0.6, 0.6, 0.6, 0.6, 0.6, 0.6, 0.6, 0.6, 0.6, 0.6, 0.6, 0.6, 0.6, 0.6, 0.6, 0.6, 0.6, 0.6, 0.6, 0.6, 0.6, 0.6, 0.6, 0.6, 0.6, 0.6, 0.6, 0.6, 0.6, 0.6, 0.6, 0.6, 0.6, 0.6, 0.6, 0.6, 0.6, 0.6, 0.6, 0.6, 0.6, 0.6, 0.6, 0.6, 0.6, 0.6, 0.6, 0.6, 0.6, 0.6, 0.6, 0.6, 0.6, 0.6, 0.6, 0.6, 0.6, 0.6, 0.6, 0.6, 0.6, 0.6, 0.6, 0.6, 0.6, 0.6, 0.6, 0.6, 0.6, 0.6, 0.6, 0.6, 0.6, 0.6, 0.6, 0.6, 0.6, 0.6, 0.6, 0.6, 0.6, 0.6, 0.6, 0.6, 0.6, 0.6, 0.6, 0.6, 0.6, 0.6, 0.6, 0.6, 0.6, 0.6, 0.6, 0.6, 0.6, 0.6, 0.6, 0.6, 0.6, 0.6, 0.6, 0.6, 0.6, 0.6, 0.6, 0.6, 0.6, 0.6, 0.6, 0.6, 0.6, 0.6, 0.6, 0.6, 0.6, 0.6, 0.6, 0.6, 0.6, 0.6, 0.6, 0.6, 0.6, 0.6, 0.6, 0.6, 0.6, 0.6, 0.6, 0.6, 0.6, 0.6, 0.6, 0.6, 0.6, 0.6, 0.6, 0.6, 0.6, 0.6, 0.6, 0.6, 0.6, 0.6, 0.6, 0.6], "NUPDOWN": -1.0, "LSORBIT": false, "SAXIS": [0.0, 0.0, 1.0], "LSPIRAL": false, "QSPIRAL": [0.0, 0.0, 0.0], "LZEROZ": false, "LASPH": false, "LMETAGGA": false, "NELM": 100, "NELMDL": -5, "NELMIN": 6, "ENINI": 520.0, "LDIAG": true, "LSUBROT": false, "WEIMIN": 0.001, "EBREAK": 0.0, "DEPER": 0.3, "NRMM": 4, "TIME": 0.4, "AMIX": 0.4, "BMIX": 1.0, "AMIN": 0.1, "AMIX_MAG": 1.6, "BMIX_MAG": 1.0, "IMIX": 4, "MIXFIRST": false, "MAXMIX": -45, "WC": 100.0, "INIMIX": 1, "MIXPRE": 1, "MREMOVE": 5, "LDIPOL": false, "LMONO": false, "IDIPOL": 0, "EPSILON": 1.0, "DIPOL": [-100.0, -100.0, -100.0], "EFIELD": 0.0, "NGX": 48, "NGY": 70, "NGZ": 250, "NGXF": 96, "NGYF": 140, "NGZF": 500, "ADDGRID": false, "NSW": 150, "IBRION": 2, "MDALGO": 0, "ISIF": 2, "PSTRESS": 0.0, "EDIFFG": -0.01, "NFREE": 1, "POTIM": 0.5, "SMASS": -3.0, "SCALEE": 1.0, "TEBEG": 0.0001, "TEEND": 0.0001, "NBLOCK": 1, "KBLOCK": 150, "NPACO": 256, "APACO": 10.0, "ISYM": 0, "SYMPREC": 1e-05, "LORBIT": 11, "RWIGS": [-1.0, -1.0, -1.0], "NEDOS": 301, "EMIN": 10.0, "EMAX": -10.0, "EFERMI": 0.0, "NWRITE": 2, "LWAVE": false, "LDOWNSAMPLE": false, "LCHARG": false, "LPARD": false, "LVTOT": false, "LVHAR": false, "LELF": false, "LOPTICS": false, "STM": [0.0, 0.0, 0.0, 0.0, 0.0, 0.0, 0.0], "NPAR": 2, "NSIM": 4, "NBLK": -1, "LPLANE": true, "LSCALAPACK": true, "LSCAAWARE": false, "LSCALU": false, "LASYNC": false, "LORBITALREAL": false, "IDIOT": 3, "PHON_NSTRUCT": -1, "LMUSIC": false, "POMASS": [7.01, 30.974, 16.0], "DARWINR": [0.0, 0.0, 0.0], "DARWINV": [1.0, 1.0, 1.0], "LCORR": true, "GGA_COMPAT": true, "LBERRY": false, "ICORELEVEL": 0, "LDAU": false, "I_CONSTRAINED_M": 0, "GGA": "--", "VOSKOWN": 0, "LHFCALC": false, "PRECFOCK": "", "LSYMGRAD": false, "LHFONE": false, "LRHFCALC": false, "LTHOMAS": false, "LMODELHF": false, "LFOCKACE": false, "ENCUT4O": -1.0, "EXXOEP": 0, "FOURORBIT": 0, "AEXX": 0.0, "HFALPHA": 0.0, "MCALPHA": 0.0, "ALDAX": 1.0, "AGGAX": 1.0, "ALDAC": 1.0, "AGGAC": 1.0, "NKREDX": 1, "NKREDY": 1, "NKREDZ": 1, "SHIFTRED": false, "ODDONLY": false, "EVENONLY": false, "LMAXFOCK": 0, "NMAXFOCKAE": 0, "LFOCKAEDFT": false, "HFSCREEN": 0.0, "HFSCREENC": 0.0, "NBANDSGWLOW": 0, "LUSE_VDW": false, "Zab_VDW": -0.8491, "PARAM1": 0.1234, "PARAM2": 1.0, "PARAM3": 0.0, "MODEL_GW": 0, "MODEL_EPS0": 13.2212537, "MODEL_ALPHA": 1.0, "LEPSILON": false, "LRPA": false, "LNABLA": false, "LVEL": false, "CSHIFT": 0.1, "OMEGAMAX": -1.0, "DEG_THRESHOLD": 0.002, "RTIME": -0.1, "WPLASMAI": 0.0, "DFIELD": [0.0, 0.0, 0.0], "WPLASMA": [0.0, 0.0, 0.0, 0.0, 0.0, 0.0, 0.0, 0.0, 0.0], "NUCIND": false, "MAGPOS": [0.0, 0.0, 0.0], "LNICSALL": true, "ORBITALMAG": false, "LMAGBLOCH": false, "LCHIMAG": false, "LGAUGE": true, "MAGATOM": 0, "MAGDIPOL": [0.0, 0.0, 0.0], "AVECCONST": [0.0, 0.0, 0.0], "LFINITE_TEMPERATURE": false, "LADDER": false, "LRPAFORCE": false, "LFXC": false, "LHARTREE": true, "IBSE": 0, "KPOINT": [-1, 0, 0, 0], "LTCTC": false, "LTCTE": false, "LTETE": false, "LTRIPLET": false, "LFXCEPS": false, "LFXHEG": false, "NATURALO": 2, "LHOLEGF": false, "L2ORDER": false, "LDMP1": false, "LMP2LT": false, "LSMP2LT": false, "LGWLF": false, "ENCUTGW": -2.0, "ENCUTGWSOFT": -2.0, "ENCUTLF": -1.0, "LESF_SPLINES": false, "LMAXMP2": -1, "SCISSOR": 0.0, "NOMEGA": 0, "NOMEGAR": 0, "NBANDSGW": -1, "NBANDSO": -1, "NBANDSV": -1, "NELMGW": 1, "NELMHF": 1, "DIM": 3, "IESPILON": 4, "ANTIRES": 0, "OMEGAMIN": -30.0, "OMEGATL": -200.0, "OMEGAGRID": 0, "LSELFENERGY": false, "LSPECTRAL": false, "LSPECTRALGW": false, "LSINGLES": false, "LFERMIGW": false, "ODDONLYGW": false, "EVENONLYGW": false, "NKREDLFX": 1, "NKREDLFY": 1, "NKREDLFZ": 1, "MAXMEM": 2800, "TELESCOPE": 0, "NTAUPAR": -1, "NOMEGAPAR": -1, "DAMP_NEWTON": 0.80000001, "LAMBDA": 1.0, "OFIELD_KAPPA": 0.0, "OFIELD_K": [0.0, 0.0, 0.0], "OFIELD_Q6_NEAR": 0.0, "OFIELD_Q6_FAR": 0.0, "OFIELD_A": 0.0, "KPOINTS_OPT_MODE": 1, "LKPOINTS_OPT": false, "@module": "pymatgen.io.vasp.inputs", "@class": "Incar"}, "relaxed_structures": {"@module": "pymatgen.core.structure", "@class": "Structure", "charge": 0, "lattice": {"matrix": [[7.913034, 0.0, 0.0], [3.13141, 11.241801, 0.0], [0.0, 0.0, 43.596852]], "a": 7.913034, "b": 11.66978227353454, "c": 43.596852, "alpha": 90.0, "beta": 90.0, "gamma": 74.4347915863905, "volume": 3878.2344182324764}, "sites": [{"species": [{"element": "Li", "occu": 1}], "abc": [0.27210611, 0.73523878, 0.05733023], "xyz": [4.45551896811754, 8.26540805224278, 2.49941755243596], "label": "Li", "properties": {}}, {"species": [{"element": "Li", "occu": 1}], "abc": [0.41667273, 0.30478201, 0.01634224], "xyz": [4.25154291329692, 3.42629870480001, 0.71247021862848], "label": "Li", "properties": {}}, {"species": [{"element": "Li", "occu": 1}], "abc": [0.7882356, 0.30117985, 0.04393759], "xyz": [7.1804526968989, 3.3858039389098504, 1.91554060846668], "label": "Li", "properties": {}}, {"species": [{"element": "Li", "occu": 1}], "abc": [0.80593295, 0.60333713, 0.03905784], "xyz": [8.266670757323599, 6.78259595137113, 1.70279886991968], "label": "Li", "properties": {}}, {"species": [{"element": "Li", "occu": 1}], "abc": [0.65702166, 0.03360045, 0.07944003], "xyz": [5.30425151945094, 0.37772957241044997, 3.46333523078556], "label": "Li", "properties": {}}, {"species": [{"element": "Li", "occu": 1}], "abc": [0.02461114, 0.00210469, 0.05581619], "xyz": [0.20133943491165998, 0.023660506146690005, 2.43341017463388], "label": "Li", "properties": {}}, {"species": [{"element": "Li", "occu": 1}], "abc": [0.18296135, 0.54747082, 0.01406783], "xyz": [3.1621349836920998, 6.154558011746821, 0.61331310247116], "label": "Li", "properties": {}}, {"species": [{"element": "Li", "occu": 1}], "abc": [0.91139387, 0.6391639, 0.13474808], "xyz": [9.21337490880058, 7.1853533701839005, 5.8745921010441595], "label": "Li", "properties": {}}, {"species": [{"element": "Li", "occu": 1}], "abc": [0.01384821, 0.99509457, 0.11366412000000001], "xyz": [3.2256304440128396, 11.18665513212057, 4.95539781735024], "label": "Li", "properties": {}}, {"species": [{"element": "Li", "occu": 1}], "abc": [0.14103558, 0.54103534, 0.0801792], "xyz": [2.81022281377912, 6.08221162624734, 3.4955607158784003], "label": "Li", "properties": {}}, {"species": [{"element": "Li", "occu": 1}], "abc": [0.13208044, 0.2098183, 0.08232793000000001], "xyz": [1.7021841352579599, 2.3587355747583003, 3.58923857967636], "label": "Li", "properties": {}}, {"species": [{"element": "Li", "occu": 1}], "abc": [0.44576603, 0.14762336, 0.12789293], "xyz": [3.9896310171726195, 1.6595524360713603, 5.575729141056359], "label": "Li", "properties": {}}, {"species": [{"element": "Li", "occu": 1}], "abc": [0.4675961, 0.48558824, 0.12254288], "xyz": [5.220679708185799, 5.45888636202024, 5.34248380301376], "label": "Li", "properties": {}}, {"species": [{"element": "Li", "occu": 1}], "abc": [0.33542218, 0.9376311, 0.15407558999999998], "xyz": [5.59031451754512, 10.540662237611102, 6.717210694042679], "label": "Li", "properties": {}}, {"species": [{"element": "Li", "occu": 1}], "abc": [0.58544565, 0.6981743, 0.09284241], "xyz": [6.818921318365099, 7.848736543914301, 4.04763680809332], "label": "Li", "properties": {}}, {"species": [{"element": "Li", "occu": 1}], "abc": [0.25266526, 0.75624949, 0.1159747], "xyz": [4.3674760084797395, 8.50160627293149, 5.0561318316444], "label": "Li", "properties": {}}, {"species": [{"element": "Li", "occu": 1}], "abc": [0.66693207, 0.87377648, 0.13494075], "xyz": [8.01360855283718, 9.82282130664048, 5.882991906519], "label": "Li", "properties": {}}, {"species": [{"element": "Li", "occu": 1}], "abc": [0.87307082, 0.4466353, 0.08452552], "xyz": [8.30723732784088, 5.0209851621753, 3.68504658566304], "label": "Li", "properties": {}}, {"species": [{"element": "Li", "occu": 1}], "abc": [0.39698933, 0.30415594, 0.08124442], "xyz": [4.09382701800262, 3.4192605504479405, 3.54200095456584], "label": "Li", "properties": {}}, {"species": [{"element": "Li", "occu": 1}], "abc": [0.56076219, 0.51674826, 0.21975336999999998], "xyz": [6.055480944231061, 5.8091811060162595, 9.58055514839124], "label": "Li", "properties": {}}, {"species": [{"element": "Li", "occu": 1}], "abc": [0.66045058, 0.87780966, 0.19705646], "xyz": [7.97494984228032, 9.868161513597661, 8.59104132226392], "label": "Li", "properties": {}}, {"species": [{"element": "Li", "occu": 1}], "abc": [0.79666017, 0.42414488, 0.16328397], "xyz": [7.632170530336579, 4.76815233612888, 7.11866707406244], "label": "Li", "properties": {}}, {"species": [{"element": "Li", "occu": 1}], "abc": [0.77148451, 0.08967814, 0.16927104999999998], "xyz": [6.385602182480739, 1.00814380393014, 7.379684914734598], "label": "Li", "properties": {}}, {"species": [{"element": "Li", "occu": 1}], "abc": [0.10097593, 0.02963777, 0.21167382999999998], "xyz": [0.89183397662732, 0.33318191242377004, 9.228312638783159], "label": "Li", "properties": {}}, {"species": [{"element": "Li", "occu": 1}], "abc": [0.12004536, 0.36624936, 0.20488629], "xyz": [2.09679992361984, 4.11730242149736, 8.93239726195908], "label": "Li", "properties": {}}, {"species": [{"element": "Li", "occu": 1}], "abc": [0.9828641, 0.81843901, 0.23863426999999998], "xyz": [10.3403051409835, 9.200728481057011, 10.403702951318039], "label": "Li", "properties": {}}, {"species": [{"element": "Li", "occu": 1}], "abc": [0.23752016, 0.5771734, 0.1781649], "xyz": [3.68687165825944, 6.4884685052934, 7.767428776894799], "label": "Li", "properties": {}}, {"species": [{"element": "Li", "occu": 1}], "abc": [0.90326192, 0.63820968, 0.1977274], "xyz": [9.14603845791408, 7.17462621883368, 8.620292194144799], "label": "Li", "properties": {}}, {"species": [{"element": "Li", "occu": 1}], "abc": [0.31875963, 0.75756387, 0.21845077], "xyz": [4.8945988681741195, 8.51638227132987, 9.523765888976039], "label": "Li", "properties": {}}, {"species": [{"element": "Li", "occu": 1}], "abc": [0.52323252, 0.32753221, 0.16822835], "xyz": [5.16599435838178, 3.6820519259102102, 7.3342264771542], "label": "Li", "properties": {}}, {"species": [{"element": "Li", "occu": 1}], "abc": [0.04402096, 0.18450718, 0.16397599], "xyz": [0.9261069817164399, 2.07419300063118, 7.148836967583479], "label": "Li", "properties": {}}, {"species": [{"element": "Li", "occu": 1}], "abc": [0.21049275, 0.39902627, 0.30367314], "xyz": [2.9151511396442, 4.48577392111227, 13.239192940955279], "label": "Li", "properties": {}}, {"species": [{"element": "Li", "occu": 1}], "abc": [0.31064173, 0.75887929, 0.28030128000000004], "xyz": [4.83448076880772, 8.53116996120129, 12.220253419570561], "label": "Li", "properties": {}}, {"species": [{"element": "Li", "occu": 1}], "abc": [0.44880989, 0.30571858, 0.24732301999999998], "xyz": [4.508778137704059, 3.4368274383625805, 10.782505099133038], "label": "Li", "properties": {}}, {"species": [{"element": "Li", "occu": 1}], "abc": [0.42315577, 0.97123276, 0.25310184], "xyz": [6.38977397229778, 10.91840541260076, 11.034443459407681], "label": "Li", "properties": {}}, {"species": [{"element": "Li", "occu": 1}], "abc": [0.75190902, 0.91164149, 0.29559682000000004], "xyz": [8.80460491836758, 10.248492213923491, 12.88709081321064], "label": "Li", "properties": {}}, {"species": [{"element": "Li", "occu": 1}], "abc": [0.77229452, 0.24687613, 0.28901175], "xyz": [6.8842631770169795, 2.77533232511013, 12.600002491011], "label": "Li", "properties": {}}, {"species": [{"element": "Li", "occu": 1}], "abc": [0.63335156, 0.7001419, 0.32194183000000004], "xyz": [7.20416377531204, 7.8708559115619, 14.035650315119161], "label": "Li", "properties": {}}, {"species": [{"element": "Li", "occu": 1}], "abc": [0.88794346, 0.45896654, 0.26179431000000003], "xyz": [8.46353920207904, 5.15961050833854, 11.41340778751212], "label": "Li", "properties": {}}, {"species": [{"element": "Li", "occu": 1}], "abc": [0.55335109, 0.51823628, 0.28183218], "xyz": [6.00149625866186, 5.82590913074028, 12.28699584029736], "label": "Li", "properties": {}}, {"species": [{"element": "Li", "occu": 1}], "abc": [0.96734332, 0.63983174, 0.30221180000000003], "xyz": [9.65819608978628, 7.192861094563741, 13.1754831172536], "label": "Li", "properties": {}}, {"species": [{"element": "Li", "occu": 1}], "abc": [0.17559314, 0.21106787, 0.25215068], "xyz": [2.05041452578346, 2.37278299203387, 10.99297587765936], "label": "Li", "properties": {}}, {"species": [{"element": "Li", "occu": 1}], "abc": [0.69635563, 0.06659687, 0.24821065], "xyz": [5.71882788096812, 0.7486687597628701, 10.8212029728738], "label": "Li", "properties": {}}, {"species": [{"element": "Li", "occu": 1}], "abc": [0.85882442, 0.28311328, 0.38654654], "xyz": [7.68245059161508, 3.1827031542172803, 16.85221229549208], "label": "Li", "properties": {}}, {"species": [{"element": "Li", "occu": 1}], "abc": [0.95954709, 0.63865927, 0.36515969000000004], "xyz": [9.59283277244176, 7.17968042014527, 15.91981296129588], "label": "Li", "properties": {}}, {"species": [{"element": "Li", "occu": 1}], "abc": [0.10146237, 0.18741383, 0.33156949], "xyz": [1.38974472493088, 2.10686898150783, 14.455385983245481], "label": "Li", "properties": {}}, {"species": [{"element": "Li", "occu": 1}], "abc": [0.07571006, 0.85333492, 0.33713836], "xyz": [3.2712377807592397, 9.59302135699092, 14.698171184442721], "label": "Li", "properties": {}}, {"species": [{"element": "Li", "occu": 1}], "abc": [0.40416549, 0.79215586, 0.37784079000000004], "xyz": [5.678740045559261, 8.90525853910386, 16.472669001193083], "label": "Li", "properties": {}}, {"species": [{"element": "Li", "occu": 1}], "abc": [0.42770523, 0.12930733, 0.37238399], "xyz": [3.7893602932031194, 1.45364727170133, 16.23476969919948], "label": "Li", "properties": {}}, {"species": [{"element": "Li", "occu": 1}], "abc": [0.2864171, 0.57959195, 0.40717177], "xyz": [4.0813682786309, 6.51565736310195, 17.75140739526804], "label": "Li", "properties": {}}, {"species": [{"element": "Li", "occu": 1}], "abc": [0.53612611, 0.33898663, 0.34627698], "xyz": [5.30389025976604, 3.8108202361206303, 15.09658624806696], "label": "Li", "properties": {}}, {"species": [{"element": "Li", "occu": 1}], "abc": [0.20371341, 0.40426196, 0.36566406], "xyz": [2.8779010837495402, 4.54463250618996, 15.94180190553912], "label": "Li", "properties": {}}, {"species": [{"element": "Li", "occu": 1}], "abc": [0.61738572, 0.52048532, 0.3844653], "xyz": [6.5152471293756795, 5.85119239086132, 16.7614767832356], "label": "Li", "properties": {}}, {"species": [{"element": "Li", "occu": 1}], "abc": [0.82827648, 0.09244509, 0.33636217], "xyz": [6.843663426917219, 1.03924930520709, 14.664331743888841], "label": "Li", "properties": {}}, {"species": [{"element": "Li", "occu": 1}], "abc": [0.35020749, 0.94825472, 0.33180834000000003], "xyz": [5.740578088179859, 10.66009085955072, 14.465799091345682], "label": "Li", "properties": {}}, {"species": [{"element": "Li", "occu": 1}], "abc": [0.60013815, 0.54172771, 0.44346748], "xyz": [6.4452851540182, 6.08999511200571, 19.33378609237296], "label": "Li", "properties": {}}, {"species": [{"element": "Li", "occu": 1}], "abc": [0.73840912, 0.0684778, 0.41788186], "xyz": [6.057488540168079, 0.7698138005178001, 18.218333603904718], "label": "Li", "properties": {}}, {"species": [{"element": "Li", "occu": 1}], "abc": [0.73148134, 0.7359987, 0.41995675], "xyz": [8.09295040295256, 8.2739509216587, 18.308792276151], "label": "Li", "properties": {}}, {"species": [{"element": "Li", "occu": 1}], "abc": [0.06691863, 0.67341619, 0.4612851], "xyz": [2.63827158595132, 7.57041079815819, 20.110578234505198], "label": "Li", "properties": {}}, {"species": [{"element": "Li", "occu": 1}], "abc": [0.08381259, 0.97582461, 0.45617834], "xyz": [3.71891881629816, 10.970026076522611, 19.88793957458568], "label": "Li", "properties": {}}, {"species": [{"element": "Li", "occu": 1}], "abc": [0.21591406, 0.24363561, 0.42095868000000003], "xyz": [2.4714582833681398, 2.73890304413361, 18.35247327007536], "label": "Li", "properties": {}}, {"species": [{"element": "Li", "occu": 1}], "abc": [0.85123877, 0.27352857, 0.44400835], "xyz": [7.59241142851188, 3.0749537517545704, 19.3573663217142], "label": "Li", "properties": {}}, {"species": [{"element": "Li", "occu": 1}], "abc": [0.47363796, 0.97227888, 0.41893573], "xyz": [6.79251708879144, 10.93016568546288, 18.26427901832196], "label": "Li", "properties": {}}, {"species": [{"element": "Li", "occu": 1}], "abc": [0.9983604, 0.83020154, 0.41585328], "xyz": [10.499761193825, 9.33296050257354, 18.12989390187456], "label": "Li", "properties": {}}, {"species": [{"element": "Li", "occu": 1}], "abc": [0.45484885, 0.97252259, 0.48381006000000004], "xyz": [6.6446013784627995, 10.93290542478459, 21.09259558193112], "label": "Li", "properties": {}}, {"species": [{"element": "Li", "occu": 1}], "abc": [0.68850098, 0.73086755, 0.48639087000000003], "xyz": [7.73677761851882, 8.21626755445755, 21.20511077354124], "label": "Li", "properties": {}}, {"species": [{"element": "P", "occu": 1}], "abc": [0.4910462, 0.50236379, 0.05367629], "xyz": [5.4587722718147, 5.64747375678579, 2.34011727103908], "label": "P", "properties": {}}, {"species": [{"element": "P", "occu": 1}], "abc": [0.10402848, 0.35589645, 0.027578240000000004], "xyz": [1.93763860170282, 4.00091706750645, 1.2023244477004802], "label": "P", "properties": {}}, {"species": [{"element": "P", "occu": 1}], "abc": [0.90298976, 0.78592471, 0.07804219], "xyz": [9.606441168672939, 8.83520919080271, 3.40239380718588], "label": "P", "properties": {}}, {"species": [{"element": "P", "occu": 1}], "abc": [0.37493034, 0.96011548, 0.08420602], "xyz": [5.973351743278359, 10.79342716317948, 3.67111739144904], "label": "P", "properties": {}}, {"species": [{"element": "P", "occu": 1}], "abc": [0.15639005, 0.3870192, 0.13650094], "xyz": [2.4494355759837, 4.3507928295792, 5.95101127904088], "label": "P", "properties": {}}, {"species": [{"element": "P", "occu": 1}], "abc": [0.76172752, 0.24218143, 0.11215638], "xyz": [6.7859451162119795, 2.7225554419554303, 4.88966509971576], "label": "P", "properties": {}}, {"species": [{"element": "P", "occu": 1}], "abc": [0.54838171, 0.67199109, 0.16367268999999998], "xyz": [6.44364273534504, 7.554390107553091, 7.135614042371879], "label": "P", "properties": {}}, {"species": [{"element": "P", "occu": 1}], "abc": [0.02372637, 0.84250373, 0.16932193999999998], "xyz": [2.8259721776658795, 9.471259274417731, 7.381903558532879], "label": "P", "properties": {}}, {"species": [{"element": "P", "occu": 1}], "abc": [0.80936775, 0.2691857, 0.22025776], "xyz": [7.247485317090501, 3.0261320714457005, 9.60254496457152], "label": "P", "properties": {}}, {"species": [{"element": "P", "occu": 1}], "abc": [0.41110033, 0.12610724, 0.19617591999999998], "xyz": [3.6479443611096203, 1.4176724967392402, 8.552652550203838], "label": "P", "properties": {}}, {"species": [{"element": "P", "occu": 1}], "abc": [0.196676, 0.55352615, 0.24741763999999997], "xyz": [3.2896211963555, 6.222630826596151, 10.786630233269278], "label": "P", "properties": {}}, {"species": [{"element": "P", "occu": 1}], "abc": [0.6742751, 0.72329063, 0.25280129], "xyz": [7.6004813033417005, 8.13108932762463, 11.02134042553908], "label": "P", "properties": {}}, {"species": [{"element": "P", "occu": 1}], "abc": [0.46096134, 0.15116754, 0.3041837], "xyz": [4.12097030253696, 1.69939540233954, 13.2614517497124], "label": "P", "properties": {}}, {"species": [{"element": "P", "occu": 1}], "abc": [0.06337061, 0.00792016, 0.28017417], "xyz": [0.5262550597563399, 0.08903686260816002, 12.21471182371284], "label": "P", "properties": {}}, {"species": [{"element": "P", "occu": 1}], "abc": [0.84775011, 0.43480215, 0.33098799], "xyz": [8.06981924446524, 4.8879592446721505, 14.43003441380748], "label": "P", "properties": {}}, {"species": [{"element": "P", "occu": 1}], "abc": [0.3230646, 0.60505646, 0.33659653], "xyz": [4.451101013404999, 6.8019243170844605, 14.67454910212356], "label": "P", "properties": {}}, {"species": [{"element": "P", "occu": 1}], "abc": [0.11017845, 0.03516582, 0.38817551], "xyz": [0.9819644213234999, 0.39532715044182004, 16.92323025949452], "label": "P", "properties": {}}, {"species": [{"element": "P", "occu": 1}], "abc": [0.71587924, 0.89010497, 0.36373948], "xyz": [8.45206037012186, 10.00638294185097, 15.857896276116959], "label": "P", "properties": {}}, {"species": [{"element": "P", "occu": 1}], "abc": [0.49680065, 0.31759948, 0.41619323], "xyz": [4.9257346223389, 3.57039015186348, 18.14471465171196], "label": "P", "properties": {}}, {"species": [{"element": "P", "occu": 1}], "abc": [0.96917412, 0.49144677, 0.4222153], "xyz": [9.208029093525779, 5.52474679043277, 18.4072579462356], "label": "P", "properties": {}}, {"species": [{"element": "P", "occu": 1}], "abc": [0.76732736, 0.92177615, 0.47257337], "xyz": [8.95834654268174, 10.36242404484615, 20.60271127103124], "label": "P", "properties": {}}, {"species": [{"element": "P", "occu": 1}], "abc": [0.38092332, 0.77487483, 0.44661776000000003], "xyz": [5.44070997396318, 8.71098863876883, 19.47112838329152], "label": "P", "properties": {}}, {"species": [{"element": "O", "occu": 1}], "abc": [0.36035441, 0.59803883, 0.03417983], "xyz": [4.72420147103024, 6.723033517132831, 1.49013298989516], "label": "O", "properties": {}}, {"species": [{"element": "O", "occu": 1}], "abc": [0.24952456, 0.27725072, 0.04884957], "xyz": [2.84268200423024, 3.11679742134672, 2.12968747355364], "label": "O", "properties": {}}, {"species": [{"element": "O", "occu": 1}], "abc": [0.96959646, 0.28997274, 0.01888281], "xyz": [8.58047329202304, 3.2598158385047404, 0.82323107291412], "label": "O", "properties": {}}, {"species": [{"element": "O", "occu": 1}], "abc": [0.64436115, 0.55265518, 0.0653591], "xyz": [6.8294416454329, 6.212839555179181, 2.8494510095532], "label": "O", "properties": {}}, {"species": [{"element": "O", "occu": 1}], "abc": [0.85385109, 0.74734137, 0.04661523], "xyz": [9.09678494553876, 8.40146296060737, 2.03227728325596], "label": "O", "properties": {}}, {"species": [{"element": "O", "occu": 1}], "abc": [0.01617674, 0.47700498, 0.04567284], "xyz": [1.6217052580509599, 5.36239506116898, 1.99119204589968], "label": "O", "properties": {}}, {"species": [{"element": "O", "occu": 1}], "abc": [0.56271024, 0.38648433, 0.03515966], "xyz": [5.66298615707346, 4.3447799274783305, 1.53285049339032], "label": "O", "properties": {}}, {"species": [{"element": "O", "occu": 1}], "abc": [0.47856013, 0.99602817, 0.05843483], "xyz": [6.90583515155412, 11.197150477534171, 2.54757463515516], "label": "O", "properties": {}}, {"species": [{"element": "O", "occu": 1}], "abc": [0.20189485, 0.39423377, 0.00010000000000000026], "xyz": [2.8321083821906, 4.43189758981977, 0.004359685200000012], "label": "O", "properties": {}}, {"species": [{"element": "O", "occu": 1}], "abc": [0.0966259, 0.7155976, 0.08576067], "xyz": [3.0054335125966, 8.044605815277599, 3.7388952374108397], "label": "O", "properties": {}}, {"species": [{"element": "O", "occu": 1}], "abc": [0.17701532, 0.03567651, 0.08359230000000001], "xyz": [1.5124460258599801, 0.40106822579451, 3.6443611314396], "label": "O", "properties": {}}, {"species": [{"element": "O", "occu": 1}], "abc": [0.03127264, 0.48438527, 0.11623448], "xyz": [1.7642703419204597, 5.44536281267127, 5.06745742185696], "label": "O", "properties": {}}, {"species": [{"element": "O", "occu": 1}], "abc": [0.8844065, 0.1443903, 0.13241851999999998], "xyz": [7.450483933644, 1.6232070189303, 5.773030618499039], "label": "O", "properties": {}}, {"species": [{"element": "O", "occu": 1}], "abc": [0.6178693, 0.19014743, 0.09754986], "xyz": [5.4846503422324995, 2.13759956872143, 4.25286680904072], "label": "O", "properties": {}}, {"species": [{"element": "O", "occu": 1}], "abc": [0.30064842, 0.43812091, 0.15129509], "xyz": [3.75097736828938, 4.92526808415891, 6.59598964705668], "label": "O", "properties": {}}, {"species": [{"element": "O", "occu": 1}], "abc": [0.45406064, 0.98351688, 0.1162776], "xyz": [6.6727918755825595, 11.05650104510088, 5.0693373181152], "label": "O", "properties": {}}, {"species": [{"element": "O", "occu": 1}], "abc": [0.4751356, 0.64763797, 0.13184685999999998], "xyz": [5.7877841730481, 7.28061717878397, 5.748108042084719], "label": "O", "properties": {}}, {"species": [{"element": "O", "occu": 1}], "abc": [0.37512538, 0.82602174, 0.08274724], "xyz": [5.55499262305632, 9.28597202275374, 3.6075191756884797], "label": "O", "properties": {}}, {"species": [{"element": "O", "occu": 1}], "abc": [0.89030707, 0.92377397, 0.07888582], "xyz": [9.93774516274808, 10.384883139719971, 3.4391734194386396], "label": "O", "properties": {}}, {"species": [{"element": "O", "occu": 1}], "abc": [0.67439608, 0.35240651, 0.13223997999999998], "xyz": [6.44004837998582, 3.9616838565245103, 5.765246836542959], "label": "O", "properties": {}}, {"species": [{"element": "O", "occu": 1}], "abc": [0.24358892, 0.27696806, 0.11649451], "xyz": [2.79482795874788, 3.1136198138760602, 5.07879391128252], "label": "O", "properties": {}}, {"species": [{"element": "O", "occu": 1}], "abc": [0.78385203, 0.75805315, 0.10428595], "xyz": [8.57642297880052, 8.52188265972315, 4.5465391278294], "label": "O", "properties": {}}, {"species": [{"element": "O", "occu": 1}], "abc": [0.13369465, 0.88144121, 0.14359733], "xyz": [3.8180841304741997, 9.908986676019211, 6.260391543605159], "label": "O", "properties": {}}, {"species": [{"element": "O", "occu": 1}], "abc": [0.39029047, 0.47331698, 0.08217925], "xyz": [4.57053128332778, 5.32093529908098, 3.582756599721], "label": "O", "properties": {}}, {"species": [{"element": "O", "occu": 1}], "abc": [0.87035699, 0.27901993, 0.08578922], "xyz": [7.760890253008959, 3.1366865280939304, 3.7401399275354397], "label": "O", "properties": {}}, {"species": [{"element": "O", "occu": 1}], "abc": [0.7437791, 0.5981963, 0.16633134], "xyz": [7.7587471825724, 6.7248037635363005, 7.25152281294168], "label": "O", "properties": {}}, {"species": [{"element": "O", "occu": 1}], "abc": [0.82831894, 0.91613757, 0.16616182], "xyz": [9.42331828313766, 10.29903625056357, 7.24413227459064], "label": "O", "properties": {}}, {"species": [{"element": "O", "occu": 1}], "abc": [0.6854094, 0.36698047, 0.20008756], "xyz": [6.572834199682299, 4.12552141462647, 8.72318774036112], "label": "O", "properties": {}}, {"species": [{"element": "O", "occu": 1}], "abc": [0.53451376, 0.02816578, 0.21635863], "xyz": [4.317824161497639, 0.31663409376978, 9.43255517103276], "label": "O", "properties": {}}, {"species": [{"element": "O", "occu": 1}], "abc": [0.2656941, 0.07582568, 0.18159377], "xyz": [2.3398877395081996, 0.8524172052496801, 7.916916714812039], "label": "O", "properties": {}}, {"species": [{"element": "O", "occu": 1}], "abc": [0.95503385, 0.31958534, 0.23469097], "xyz": [8.5579680557303, 3.5927147947973403, 10.23178748482644], "label": "O", "properties": {}}, {"species": [{"element": "O", "occu": 1}], "abc": [0.09623077, 0.86671943, 0.2012274], "xyz": [3.47553124515248, 9.74348735489343, 8.7728811761448], "label": "O", "properties": {}}, {"species": [{"element": "O", "occu": 1}], "abc": [0.12236207, 0.52883671, 0.2156744], "xyz": [2.62425978228148, 5.9450770553147105, 9.402724896988799], "label": "O", "properties": {}}, {"species": [{"element": "O", "occu": 1}], "abc": [0.03648675, 0.70774722, 0.16593211], "xyz": [2.5049676154797, 7.95635340554322, 7.234117641717719], "label": "O", "properties": {}}, {"species": [{"element": "O", "occu": 1}], "abc": [0.5353024, 0.80689808, 0.16681912], "xyz": [6.762594808174399, 9.07098764264208, 7.272788485410239], "label": "O", "properties": {}}, {"species": [{"element": "O", "occu": 1}], "abc": [0.32564619, 0.23657214, 0.21627502999999998], "xyz": [3.31765373835786, 2.65949692002414, 9.428910474205559], "label": "O", "properties": {}}, {"species": [{"element": "O", "occu": 1}], "abc": [0.89489716, 0.15877751, 0.20014173999999998], "xyz": [7.57854913617254, 1.7849451706955102, 8.725549817802479], "label": "O", "properties": {}}, {"species": [{"element": "O", "occu": 1}], "abc": [0.438982, 0.63352715, 0.18963635999999998], "xyz": [5.4575127441695, 7.121986148397151, 8.267548320738719], "label": "O", "properties": {}}, {"species": [{"element": "O", "occu": 1}], "abc": [0.78380771, 0.76069448, 0.22672724], "xyz": [8.584343360308939, 8.55157596595848, 9.88459392664848], "label": "O", "properties": {}}, {"species": [{"element": "O", "occu": 1}], "abc": [0.04708664, 0.35041864, 0.16274058], "xyz": [1.46990261674816, 3.9393366175706404, 7.09497698065416], "label": "O", "properties": {}}, {"species": [{"element": "O", "occu": 1}], "abc": [0.52052972, 0.16218543, 0.16987460999999998], "xyz": [4.62683844972678, 1.82325632915943, 7.405998230727719], "label": "O", "properties": {}}, {"species": [{"element": "O", "occu": 1}], "abc": [0.3918645, 0.47912113, 0.25024854], "xyz": [4.6011618095863, 5.38618439835513, 10.91004856159608], "label": "O", "properties": {}}, {"species": [{"element": "O", "occu": 1}], "abc": [0.47913217, 0.79771998, 0.24992058999999997], "xyz": [6.28937747427558, 8.96780926888398, 10.895750973982679], "label": "O", "properties": {}}, {"species": [{"element": "O", "occu": 1}], "abc": [0.33742658, 0.2493121, 0.28409581], "xyz": [3.45076640310472, 2.8027170150921004, 12.38568298239012], "label": "O", "properties": {}}, {"species": [{"element": "O", "occu": 1}], "abc": [0.18743136, 0.90951726, 0.30016469], "xyz": [4.3312221674828395, 10.22461204298526, 13.08623556555588], "label": "O", "properties": {}}, {"species": [{"element": "O", "occu": 1}], "abc": [0.91738795, 0.95787299, 0.26569429], "xyz": [10.258815099156198, 10.76821753685499, 11.58343463837508], "label": "O", "properties": {}}, {"species": [{"element": "O", "occu": 1}], "abc": [0.60642729, 0.20121958, 0.31883631], "xyz": [5.42878076930566, 2.26207047566358, 13.90025941929612], "label": "O", "properties": {}}, {"species": [{"element": "O", "occu": 1}], "abc": [0.74828024, 0.74863526, 0.28452446000000003], "xyz": [8.26545092016476, 8.41600861450326, 12.40437077299992], "label": "O", "properties": {}}, {"species": [{"element": "O", "occu": 1}], "abc": [0.77567929, 0.4100128, 0.29910129], "xyz": [7.4218947769138595, 4.6092823050528, 13.03987467313908], "label": "O", "properties": {}}, {"species": [{"element": "O", "occu": 1}], "abc": [0.68548375, 0.58861909, 0.24998783], "xyz": [7.267463924814399, 6.61713867458109, 10.89868242631116], "label": "O", "properties": {}}, {"species": [{"element": "O", "occu": 1}], "abc": [0.18532456, 0.6882308, 0.25027855], "xyz": [3.62161235374304, 7.736953695670801, 10.911356903124599], "label": "O", "properties": {}}, {"species": [{"element": "O", "occu": 1}], "abc": [0.97822744, 0.11799836, 0.30043275], "xyz": [8.11024823694056, 1.32651408144636, 13.097922137703002], "label": "O", "properties": {}}, {"species": [{"element": "O", "occu": 1}], "abc": [0.54664839, 0.04094651, 0.28401596], "xyz": [4.4538676069943595, 0.46031251706451, 12.38220177375792], "label": "O", "properties": {}}, {"species": [{"element": "O", "occu": 1}], "abc": [0.08759576, 0.51601405, 0.27355485], "xyz": [2.30899978344634, 5.80092726330405, 11.9261303093322], "label": "O", "properties": {}}, {"species": [{"element": "O", "occu": 1}], "abc": [0.43302783, 0.64236802, 0.31054428], "xyz": [5.43808158324442, 7.2213734496040205, 13.53875301460656], "label": "O", "properties": {}}, {"species": [{"element": "O", "occu": 1}], "abc": [0.70044154, 0.23282204, 0.24661973], "xyz": [6.27167898530876, 2.61733904209404, 10.75184386908996], "label": "O", "properties": {}}, {"species": [{"element": "O", "occu": 1}], "abc": [0.17201197, 0.04481269, 0.25386659], "xyz": [1.50146347260988, 0.5037753432546901, 11.06778415197468], "label": "O", "properties": {}}, {"species": [{"element": "O", "occu": 1}], "abc": [0.04301295, 0.3610201, 0.33434023], "xyz": [1.4708648871313, 4.058516121200101, 14.57618152495596], "label": "O", "properties": {}}, {"species": [{"element": "O", "occu": 1}], "abc": [0.12789866, 0.67917442, 0.33376793], "xyz": [3.1388400156666396, 7.63514367393042, 14.551231046556358], "label": "O", "properties": {}}, {"species": [{"element": "O", "occu": 1}], "abc": [0.98758356, 0.13315847, 0.36796655], "xyz": [8.23175605266374, 1.49694102120447, 16.0421832213006], "label": "O", "properties": {}}, {"species": [{"element": "O", "occu": 1}], "abc": [0.84075129, 0.79268976, 0.38401735000000004], "xyz": [9.135130184675461, 8.91126053665776, 16.741947573382202], "label": "O", "properties": {}}, {"species": [{"element": "O", "occu": 1}], "abc": [0.57190741, 0.8388114, 0.34891289000000003], "xyz": [7.15218518625594, 9.4297508353314, 15.211503626222282], "label": "O", "properties": {}}, {"species": [{"element": "O", "occu": 1}], "abc": [0.25397994, 0.08707009, 0.40284965], "xyz": [2.28240405106486, 0.9788246248320901, 17.5629765693018], "label": "O", "properties": {}}, {"species": [{"element": "O", "occu": 1}], "abc": [0.39609147, 0.63021473, 0.36837877], "xyz": [5.107745976889279, 7.0847485819287295, 16.06015471563204], "label": "O", "properties": {}}, {"species": [{"element": "O", "occu": 1}], "abc": [0.41713007, 0.2937254, 0.38420134], "xyz": [4.22053908114638, 3.3020024954454006, 16.74996895818168], "label": "O", "properties": {}}, {"species": [{"element": "O", "occu": 1}], "abc": [0.33566508, 0.47013527, 0.33374969], "xyz": [4.12831547648342, 5.28516714842127, 14.55043583997588], "label": "O", "properties": {}}, {"species": [{"element": "O", "occu": 1}], "abc": [0.83510794, 0.56955412, 0.33416763], "xyz": [8.39174498979916, 6.402814075770121, 14.56865670830076], "label": "O", "properties": {}}, {"species": [{"element": "O", "occu": 1}], "abc": [0.62841944, 0.00018351, 0.38369231000000004], "xyz": [4.97327904003006, 0.0020629829015100004, 16.72777685260812], "label": "O", "properties": {}}, {"species": [{"element": "O", "occu": 1}], "abc": [0.19787721, 0.92514285, 0.36803757000000004], "xyz": [4.46281066247364, 10.40027181627285, 16.045279469729643], "label": "O", "properties": {}}, {"species": [{"element": "O", "occu": 1}], "abc": [0.73740013, 0.39616757, 0.35669577], "xyz": [7.07563539066812, 4.453636984593571, 15.55081269371604], "label": "O", "properties": {}}, {"species": [{"element": "O", "occu": 1}], "abc": [0.0868988, 0.52051316, 0.39590129], "xyz": [2.3175732733148, 5.851505362601161, 17.26004994673908], "label": "O", "properties": {}}, {"species": [{"element": "O", "occu": 1}], "abc": [0.35196838, 0.11444216, 0.33045643], "xyz": [3.14350308211052, 1.2865359887301602, 14.406860071158361], "label": "O", "properties": {}}, {"species": [{"element": "O", "occu": 1}], "abc": [0.82551054, 0.92667854, 0.33755421], "xyz": [9.43410341731976, 10.41753573765054, 14.71630093534692], "label": "O", "properties": {}}, {"species": [{"element": "O", "occu": 1}], "abc": [0.69498529, 0.24241901, 0.41667199], "xyz": [6.258555541373959, 2.72522626903701, 18.165587080575477], "label": "O", "properties": {}}, {"species": [{"element": "O", "occu": 1}], "abc": [0.77496691, 0.56111538, 0.41475303], "xyz": [7.88942181979074, 6.307947439999381, 18.08192646546156], "label": "O", "properties": {}}, {"species": [{"element": "O", "occu": 1}], "abc": [0.62172394, 0.99956743, 0.4511827], "xyz": [8.04977812181026, 11.23693813414143, 19.6701453968604], "label": "O", "properties": {}}, {"species": [{"element": "O", "occu": 1}], "abc": [0.51076319, 0.6796185, 0.46633647], "xyz": [6.16985065550346, 7.640135932918501, 20.33080206479244], "label": "O", "properties": {}}, {"species": [{"element": "O", "occu": 1}], "abc": [0.22737347, 0.72486712, 0.43492985], "xyz": [4.06907014704718, 8.14881191448312, 18.9615723008322], "label": "O", "properties": {}}, {"species": [{"element": "O", "occu": 1}], "abc": [0.90122483, 0.98835465, 0.48111965], "xyz": [10.22636635599072, 11.11088629272465, 20.9753021753418], "label": "O", "properties": {}}, {"species": [{"element": "O", "occu": 1}], "abc": [0.01910725, 0.52934162, 0.45366090000000003], "xyz": [1.8087819611806997, 5.95075315305762, 19.7781871154868], "label": "O", "properties": {}}, {"species": [{"element": "O", "occu": 1}], "abc": [0.98330591, 0.35338971, 0.42114670000000004], "xyz": [8.88754117002204, 3.9727367952677106, 18.3606703501884], "label": "O", "properties": {}}, {"species": [{"element": "O", "occu": 1}], "abc": [0.49578047, 0.45185697, 0.41756987], "xyz": [5.33807715007368, 5.0796861372029705, 18.20473182204924], "label": "O", "properties": {}}, {"species": [{"element": "O", "occu": 1}], "abc": [0.30933148, 0.8913305, 0.46490122], "xyz": [5.23887175951532, 10.0201601062305, 20.26822968295944], "label": "O", "properties": {}}, {"species": [{"element": "O", "occu": 1}], "abc": [0.85584639, 0.80023408, 0.45469045], "xyz": [9.27820258330006, 8.99607228077808, 19.8230722544634], "label": "O", "properties": {}}, {"species": [{"element": "O", "occu": 1}], "abc": [0.3939533, 0.281505, 0.44205436000000004], "xyz": [3.9988734293621997, 3.1646231905050004, 19.27217850887472], "label": "O", "properties": {}}, {"species": [{"element": "O", "occu": 1}], "abc": [0.00106032, 0.99808272, 0.41441465], "xyz": [3.13379655844608, 11.22024731977872, 18.0671741626818], "label": "O", "properties": {}}, {"species": [{"element": "O", "occu": 1}], "abc": [0.48236597, 0.80298687, 0.41809654], "xyz": [6.33145943563968, 9.027018598152871, 18.22769297609208], "label": "O", "properties": {}}, {"species": [{"element": "O", "occu": 1}], "abc": [0.66953844, 0.88404472, 0.5001592], "xyz": [8.06638691668216, 9.93825481734072, 21.8053666188384], "label": "O", "properties": {}}]}, "formula": "(Li3PO4)22.0", "bandgap": 4.2956, "slab_thickness": 21.801006933638398}