{"miller": "111_0.00", "final_energy": -1096.72128572, "gamma": 0.05977653970874263, "work_function": "Not calculated", "ionization_potentail": "Not calculated", "electron_affinity": "Not calculated", "is_stochiometric": true, "incar_parameters": {"SYSTEM": "unknown system", "LCOMPAT": false, "PREC": "normal", "ENMAX": 520.0, "ENAUG": 628.945, "EDIFF": 1e-05, "IALGO": 38, "IWAVPR": 11, "NBANDS": 508, "NBANDSLOW": -1, "NBANDSHIGH": -1, "NELECT": 836.0, "TURBO": 0, "IRESTART": 0, "NREBOOT": 0, "NMIN": 0, "EREF": 0.0, "ISMEAR": 0, "SIGMA": 0.05, "KSPACING": 0.5, "KGAMMA": true, "KBLOWUP": true, "LREAL": true, "ROPT": [-0.0005, -0.0005, -0.0005], "LMAXPAW": -100, "LMAXMIX": 2, "NLSPLINE": false, "ISTART": 0, "ICHARG": 2, "INIWAV": 1, "ISPIN": 1, "LNONCOLLINEAR": false, "MAGMOM": [0.6, 0.6, 0.6, 0.6, 0.6, 0.6, 0.6, 0.6, 0.6, 0.6, 0.6, 0.6, 0.6, 0.6, 0.6, 0.6, 0.6, 0.6, 0.6, 0.6, 0.6, 0.6, 0.6, 0.6, 0.6, 0.6, 0.6, 0.6, 0.6, 0.6, 0.6, 0.6, 0.6, 0.6, 0.6, 0.6, 0.6, 0.6, 0.6, 0.6, 0.6, 0.6, 0.6, 0.6, 0.6, 0.6, 0.6, 0.6, 0.6, 0.6, 0.6, 0.6, 0.6, 0.6, 0.6, 0.6, 0.6, 0.6, 0.6, 0.6, 0.6, 0.6, 0.6, 0.6, 0.6, 0.6, 0.6, 0.6, 0.6, 0.6, 0.6, 0.6, 0.6, 0.6, 0.6, 0.6, 0.6, 0.6, 0.6, 0.6, 0.6, 0.6, 0.6, 0.6, 0.6, 0.6, 0.6, 0.6, 0.6, 0.6, 0.6, 0.6, 0.6, 0.6, 0.6, 0.6, 0.6, 0.6, 0.6, 0.6, 0.6, 0.6, 0.6, 0.6, 0.6, 0.6, 0.6, 0.6, 0.6, 0.6, 0.6, 0.6, 0.6, 0.6, 0.6, 0.6, 0.6, 0.6, 0.6, 0.6, 0.6, 0.6, 0.6, 0.6, 0.6, 0.6, 0.6, 0.6, 0.6, 0.6, 0.6, 0.6, 0.6, 0.6, 0.6, 0.6, 0.6, 0.6, 0.6, 0.6, 0.6, 0.6, 0.6, 0.6, 0.6, 0.6, 0.6, 0.6, 0.6, 0.6, 0.6, 0.6, 0.6, 0.6, 0.6, 0.6, 0.6, 0.6, 0.6, 0.6, 0.6, 0.6, 0.6, 0.6, 0.6, 0.6, 0.6, 0.6, 0.6, 0.6, 0.6, 0.6, 0.6, 0.6, 0.6, 0.6], "NUPDOWN": -1.0, "LSORBIT": false, "SAXIS": [0.0, 0.0, 1.0], "LSPIRAL": false, "QSPIRAL": [0.0, 0.0, 0.0], "LZEROZ": false, "LASPH": false, "LMETAGGA": false, "NELM": 100, "NELMDL": -5, "NELMIN": 6, "ENINI": 520.0, "LDIAG": true, "LSUBROT": false, "WEIMIN": 0.001, "EBREAK": 0.0, "DEPER": 0.3, "NRMM": 4, "TIME": 0.4, "AMIX": 0.4, "BMIX": 1.0, "AMIN": 0.1, "AMIX_MAG": 1.6, "BMIX_MAG": 1.0, "IMIX": 4, "MIXFIRST": false, "MAXMIX": -45, "WC": 100.0, "INIMIX": 1, "MIXPRE": 1, "MREMOVE": 5, "LDIPOL": false, "LMONO": false, "IDIPOL": 0, "EPSILON": 1.0, "DIPOL": [-100.0, -100.0, -100.0], "EFIELD": 0.0, "NGX": 48, "NGY": 70, "NGZ": 250, "NGXF": 96, "NGYF": 140, "NGZF": 500, "ADDGRID": false, "NSW": 150, "IBRION": 2, "MDALGO": 0, "ISIF": 2, "PSTRESS": 0.0, "EDIFFG": -0.01, "NFREE": 1, "POTIM": 0.5, "SMASS": -3.0, "SCALEE": 1.0, "TEBEG": 0.0001, "TEEND": 0.0001, "NBLOCK": 1, "KBLOCK": 150, "NPACO": 256, "APACO": 10.0, "ISYM": 0, "SYMPREC": 1e-05, "LORBIT": 11, "RWIGS": [-1.0, -1.0, -1.0], "NEDOS": 301, "EMIN": 10.0, "EMAX": -10.0, "EFERMI": 0.0, "NWRITE": 2, "LWAVE": false, "LDOWNSAMPLE": false, "LCHARG": false, "LPARD": false, "LVTOT": false, "LVHAR": false, "LELF": false, "LOPTICS": false, "STM": [0.0, 0.0, 0.0, 0.0, 0.0, 0.0, 0.0], "NPAR": 2, "NSIM": 4, "NBLK": -1, "LPLANE": true, "LSCALAPACK": true, "LSCAAWARE": false, "LSCALU": false, "LASYNC": false, "LORBITALREAL": false, "IDIOT": 3, "PHON_NSTRUCT": -1, "LMUSIC": false, "POMASS": [7.01, 30.974, 16.0], "DARWINR": [0.0, 0.0, 0.0], "DARWINV": [1.0, 1.0, 1.0], "LCORR": true, "GGA_COMPAT": true, "LBERRY": false, "ICORELEVEL": 0, "LDAU": false, "I_CONSTRAINED_M": 0, "GGA": "--", "VOSKOWN": 0, "LHFCALC": false, "PRECFOCK": "", "LSYMGRAD": false, "LHFONE": false, "LRHFCALC": false, "LTHOMAS": false, "LMODELHF": false, "LFOCKACE": false, "ENCUT4O": -1.0, "EXXOEP": 0, "FOURORBIT": 0, "AEXX": 0.0, "HFALPHA": 0.0, "MCALPHA": 0.0, "ALDAX": 1.0, "AGGAX": 1.0, "ALDAC": 1.0, "AGGAC": 1.0, "NKREDX": 1, "NKREDY": 1, "NKREDZ": 1, "SHIFTRED": false, "ODDONLY": false, "EVENONLY": false, "LMAXFOCK": 0, "NMAXFOCKAE": 0, "LFOCKAEDFT": false, "HFSCREEN": 0.0, "HFSCREENC": 0.0, "NBANDSGWLOW": 0, "LUSE_VDW": false, "Zab_VDW": -0.8491, "PARAM1": 0.1234, "PARAM2": 1.0, "PARAM3": 0.0, "MODEL_GW": 0, "MODEL_EPS0": 13.2212537, "MODEL_ALPHA": 1.0, "LEPSILON": false, "LRPA": false, "LNABLA": false, "LVEL": false, "CSHIFT": 0.1, "OMEGAMAX": -1.0, "DEG_THRESHOLD": 0.002, "RTIME": -0.1, "WPLASMAI": 0.0, "DFIELD": [0.0, 0.0, 0.0], "WPLASMA": [0.0, 0.0, 0.0, 0.0, 0.0, 0.0, 0.0, 0.0, 0.0], "NUCIND": false, "MAGPOS": [0.0, 0.0, 0.0], "LNICSALL": true, "ORBITALMAG": false, "LMAGBLOCH": false, "LCHIMAG": false, "LGAUGE": true, "MAGATOM": 0, "MAGDIPOL": [0.0, 0.0, 0.0], "AVECCONST": [0.0, 0.0, 0.0], "LFINITE_TEMPERATURE": false, "LADDER": false, "LRPAFORCE": false, "LFXC": false, "LHARTREE": true, "IBSE": 0, "KPOINT": [-1, 0, 0, 0], "LTCTC": false, "LTCTE": false, "LTETE": false, "LTRIPLET": false, "LFXCEPS": false, "LFXHEG": false, "NATURALO": 2, "LHOLEGF": false, "L2ORDER": false, "LDMP1": false, "LMP2LT": false, "LSMP2LT": false, "LGWLF": false, "ENCUTGW": -2.0, "ENCUTGWSOFT": -2.0, "ENCUTLF": -1.0, "LESF_SPLINES": false, "LMAXMP2": -1, "SCISSOR": 0.0, "NOMEGA": 0, "NOMEGAR": 0, "NBANDSGW": -1, "NBANDSO": -1, "NBANDSV": -1, "NELMGW": 1, "NELMHF": 1, "DIM": 3, "IESPILON": 4, "ANTIRES": 0, "OMEGAMIN": -30.0, "OMEGATL": -200.0, "OMEGAGRID": 0, "LSELFENERGY": false, "LSPECTRAL": false, "LSPECTRALGW": false, "LSINGLES": false, "LFERMIGW": false, "ODDONLYGW": false, "EVENONLYGW": false, "NKREDLFX": 1, "NKREDLFY": 1, "NKREDLFZ": 1, "MAXMEM": 2800, "TELESCOPE": 0, "NTAUPAR": -1, "NOMEGAPAR": -1, "DAMP_NEWTON": 0.80000001, "LAMBDA": 1.0, "OFIELD_KAPPA": 0.0, "OFIELD_K": [0.0, 0.0, 0.0], "OFIELD_Q6_NEAR": 0.0, "OFIELD_Q6_FAR": 0.0, "OFIELD_A": 0.0, "KPOINTS_OPT_MODE": 1, "LKPOINTS_OPT": false, "@module": "pymatgen.io.vasp.inputs", "@class": "Incar"}, "relaxed_structures": {"@module": "pymatgen.core.structure", "@class": "Structure", "charge": 0, "lattice": {"matrix": [[7.913034, 0.0, 0.0], [3.13141, 11.241801, 0.0], [0.0, 0.0, 43.596852]], "a": 7.913034, "b": 11.66978227353454, "c": 43.596852, "alpha": 90.0, "beta": 90.0, "gamma": 74.4347915863905, "volume": 3878.2344182324764}, "sites": [{"species": [{"element": "Li", "occu": 1}], "abc": [0.34708118, 0.92300485, 0.012997169999999999], "xyz": [5.636771795438619, 10.37623684573485, 0.56663569690884], "label": "Li", "properties": {}}, {"species": [{"element": "Li", "occu": 1}], "abc": [0.17969535, 0.04332847, 0.06496008], "xyz": [1.5576146184346, 0.48709003737447004, 2.83205499366816], "label": "Li", "properties": {}}, {"species": [{"element": "Li", "occu": 1}], "abc": [0.30416793, 0.23279865, 0.05730408000000001], "xyz": [3.1358791923961196, 2.61707609636865, 2.4982774947561603], "label": "Li", "properties": {}}, {"species": [{"element": "Li", "occu": 1}], "abc": [0.6645784, 0.5455131, 0.07530667], "xyz": [6.9670566513366, 6.1325497130931, 3.2831337466028403], "label": "Li", "properties": {}}, {"species": [{"element": "Li", "occu": 1}], "abc": [0.83955231, 0.10518079, 0.02380349], "xyz": [6.972770151422439, 1.18242151020279, 1.03775723061348], "label": "Li", "properties": {}}, {"species": [{"element": "Li", "occu": 1}], "abc": [0.802844, 0.80774198, 0.025063109999999996], "xyz": [8.8823031822878, 9.08047459850598, 1.0926726973297198], "label": "Li", "properties": {}}, {"species": [{"element": "Li", "occu": 1}], "abc": [0.45413207, 0.81254926, 0.06255302], "xyz": [6.137987388656979, 9.134517083617261, 2.72711475509304], "label": "Li", "properties": {}}, {"species": [{"element": "Li", "occu": 1}], "abc": [0.13556896, 0.15903525, 0.015245989999999997], "xyz": [1.5707663620271397, 1.7878426324852499, 0.6646771696234799], "label": "Li", "properties": {}}, {"species": [{"element": "Li", "occu": 1}], "abc": [0.19738533, 0.45142658, 0.037199720000000006], "xyz": [2.97551853426902, 5.0748477784705806, 1.6217906872814403], "label": "Li", "properties": {}}, {"species": [{"element": "Li", "occu": 1}], "abc": [0.09502573, 0.70731772, 0.08350094], "xyz": [2.96684361395002, 7.951525052013721, 3.64037812304088], "label": "Li", "properties": {}}, {"species": [{"element": "Li", "occu": 1}], "abc": [0.84990136, 0.94007509, 0.14650066], "xyz": [9.66905889590314, 10.56813708683709, 6.38696759192232], "label": "Li", "properties": {}}, {"species": [{"element": "Li", "occu": 1}], "abc": [0.99345539, 0.49021375, 0.11312218], "xyz": [9.39630651744076, 5.5108854249637504, 4.93177093937736], "label": "Li", "properties": {}}, {"species": [{"element": "Li", "occu": 1}], "abc": [0.96445779, 0.15375013, 0.12055019], "xyz": [8.11324197841816, 1.7284283651841303, 5.25560879200188], "label": "Li", "properties": {}}, {"species": [{"element": "Li", "occu": 1}], "abc": [0.64403412, 0.22279703, 0.07548708], "xyz": [5.79393273643238, 2.5046398746510303, 3.29099905467216], "label": "Li", "properties": {}}, {"species": [{"element": "Li", "occu": 1}], "abc": [0.31394571, 0.43208779, 0.15730139], "xyz": [3.83730710386804, 4.857444949709791, 6.85784541922428], "label": "Li", "properties": {}}, {"species": [{"element": "Li", "occu": 1}], "abc": [0.51832204, 0.00179575, 0.1045132], "xyz": [4.10712315497686, 0.02018746414575, 4.5564465124464], "label": "Li", "properties": {}}, {"species": [{"element": "Li", "occu": 1}], "abc": [0.42715432, 0.64303263, 0.12865366], "xyz": [5.39368546531518, 7.22884486296663, 5.60889457427832], "label": "Li", "properties": {}}, {"species": [{"element": "Li", "occu": 1}], "abc": [0.09093317, 0.70109129, 0.14750553], "xyz": [2.91496154235668, 7.88152876501329, 6.430776760591559], "label": "Li", "properties": {}}, {"species": [{"element": "Li", "occu": 1}], "abc": [0.844543, 0.9436118, 0.0854767], "xyz": [9.6377329001, 10.6078960768518, 3.7265150393484], "label": "Li", "properties": {}}, {"species": [{"element": "Li", "occu": 1}], "abc": [0.71939198, 0.39020497, 0.12011994000000001], "xyz": [6.9144649421750195, 4.38660662195097, 5.236851246428881], "label": "Li", "properties": {}}, {"species": [{"element": "Li", "occu": 1}], "abc": [0.23734273, 0.25275024, 0.11880341999999999], "xyz": [2.66956572118122, 2.8413679007822403, 5.17945511883384], "label": "Li", "properties": {}}, {"species": [{"element": "Li", "occu": 1}], "abc": [0.75315401, 0.58296763, 0.16976368], "xyz": [7.785243954624639, 6.55360608590163, 7.4011620319353595], "label": "Li", "properties": {}}, {"species": [{"element": "Li", "occu": 1}], "abc": [0.50274468, 0.82367322, 0.23106447], "xyz": [6.55749430399932, 9.259570428269221, 10.07368350104844], "label": "Li", "properties": {}}, {"species": [{"element": "Li", "occu": 1}], "abc": [0.6394409, 0.37202848, 0.198068], "xyz": [6.224891285247399, 4.1822701384924805, 8.635141281935999], "label": "Li", "properties": {}}, {"species": [{"element": "Li", "occu": 1}], "abc": [0.61575251, 0.03580044, 0.20315503000000001], "xyz": [4.98457640303574, 0.4024614221924401, 8.85691977596556], "label": "Li", "properties": {}}, {"species": [{"element": "Li", "occu": 1}], "abc": [0.29223822, 0.09125955, 0.16228735], "xyz": [2.5982620384249797, 1.02592170044955, 7.075217579422199], "label": "Li", "properties": {}}, {"species": [{"element": "Li", "occu": 1}], "abc": [0.96258051, 0.31277977, 0.24001735], "xyz": [8.596374002943039, 3.5162079311657704, 10.4640008853822], "label": "Li", "properties": {}}, {"species": [{"element": "Li", "occu": 1}], "abc": [0.17122077, 0.88387679, 0.18853155], "xyz": [4.12265639349008, 9.93636698169879, 8.2193820826806], "label": "Li", "properties": {}}, {"species": [{"element": "Li", "occu": 1}], "abc": [0.08092009, 0.52451362, 0.21270921], "xyz": [2.28279061825726, 5.8964777378296205, 9.27345194740692], "label": "Li", "properties": {}}, {"species": [{"element": "Li", "occu": 1}], "abc": [0.74649786, 0.58409082, 0.23220928], "xyz": [7.73609078176344, 6.566232764366821, 10.123593613186559], "label": "Li", "properties": {}}, {"species": [{"element": "Li", "occu": 1}], "abc": [0.50856103, 0.82289839, 0.16894565], "xyz": [6.601092968894919, 9.25085994360039, 7.3654984990938], "label": "Li", "properties": {}}, {"species": [{"element": "Li", "occu": 1}], "abc": [0.3682077, 0.27442881, 0.20296779], "xyz": [3.7729891690839, 3.0850740706868103, 8.84875670139708], "label": "Li", "properties": {}}, {"species": [{"element": "Li", "occu": 1}], "abc": [0.88812287, 0.13204541, 0.19830003000000002], "xyz": [7.44123478381568, 1.4844282221834102, 8.64525705950556], "label": "Li", "properties": {}}, {"species": [{"element": "Li", "occu": 1}], "abc": [0.40261935, 0.46484764, 0.25422905999999995], "xyz": [4.641569153980299, 5.225724664199641, 11.083586702919117], "label": "Li", "properties": {}}, {"species": [{"element": "Li", "occu": 1}], "abc": [0.15350419, 0.70480108, 0.31512372], "xyz": [3.4217050245352594, 7.92323348594508, 13.73840218252944], "label": "Li", "properties": {}}, {"species": [{"element": "Li", "occu": 1}], "abc": [0.29068761, 0.25307666, 0.28177496999999996], "xyz": [3.0927077251993396, 2.84503744946466, 12.284501664394437], "label": "Li", "properties": {}}, {"species": [{"element": "Li", "occu": 1}], "abc": [0.26683061, 0.91771137, 0.2870797], "xyz": [4.98517025030244, 10.31672859697737, 12.5157711931044], "label": "Li", "properties": {}}, {"species": [{"element": "Li", "occu": 1}], "abc": [0.94359798, 0.97589412, 0.24539384], "xyz": [10.522647504380519, 10.97080749411012, 10.698398924191679], "label": "Li", "properties": {}}, {"species": [{"element": "Li", "occu": 1}], "abc": [0.61498438, 0.19756115, 0.32255420999999995], "xyz": [5.4850372691304194, 2.22094313363115, 14.062348155346918], "label": "Li", "properties": {}}, {"species": [{"element": "Li", "occu": 1}], "abc": [0.82614841, 0.7650577, 0.27221598999999996], "xyz": [8.93304978973294, 8.6006264169177, 11.867760228063478], "label": "Li", "properties": {}}, {"species": [{"element": "Li", "occu": 1}], "abc": [0.7326998, 0.40710959, 0.29657641999999995], "xyz": [7.0727054704151, 4.5766449959715905, 12.929798289429838], "label": "Li", "properties": {}}, {"species": [{"element": "Li", "occu": 1}], "abc": [0.39785957, 0.46686279, 0.31636716], "xyz": [4.6102151138692795, 5.248378579484791, 13.79261225218032], "label": "Li", "properties": {}}, {"species": [{"element": "Li", "occu": 1}], "abc": [0.16176731, 0.70501286, 0.25288130999999997], "xyz": [3.48775454405114, 7.92561427456086, 11.024829045636118], "label": "Li", "properties": {}}, {"species": [{"element": "Li", "occu": 1}], "abc": [0.01782973, 0.15683923, 0.28693238], "xyz": [0.63221519291512, 1.76315541265323, 12.50934850486776], "label": "Li", "properties": {}}, {"species": [{"element": "Li", "occu": 1}], "abc": [0.53689714, 0.01480735, 0.28187976], "xyz": [4.29485320718626, 0.16646128203735, 12.28907017851552], "label": "Li", "properties": {}}, {"species": [{"element": "Li", "occu": 1}], "abc": [0.05840386, 0.34926958, 0.33853806], "xyz": [1.5558579854190402, 3.9264191137135804, 14.759193698187119], "label": "Li", "properties": {}}, {"species": [{"element": "Li", "occu": 1}], "abc": [0.81163972, 0.58156119, 0.40155975], "xyz": [8.24363922608838, 6.53779516730319, 17.506740989906998], "label": "Li", "properties": {}}, {"species": [{"element": "Li", "occu": 1}], "abc": [0.94108356, 0.13706318, 0.36451009999999995], "xyz": [7.87602721960484, 1.5408369939871802, 15.891492882205197], "label": "Li", "properties": {}}, {"species": [{"element": "Li", "occu": 1}], "abc": [0.91427601, 0.79798912, 0.37210499999999996], "xyz": [9.73352826277354, 8.97083488720512, 16.222606613459998], "label": "Li", "properties": {}}, {"species": [{"element": "Li", "occu": 1}], "abc": [0.59215968, 0.85707777, 0.32775327], "xyz": [7.369641581024819, 9.63509773186377, 14.289010804706038], "label": "Li", "properties": {}}, {"species": [{"element": "Li", "occu": 1}], "abc": [0.26438825, 0.0668023, 0.40936033], "xyz": [2.3012986016934995, 0.7509781629423, 17.84682172168116], "label": "Li", "properties": {}}, {"species": [{"element": "Li", "occu": 1}], "abc": [0.47837669, 0.64531942, 0.35653893999999997], "xyz": [5.80617069775966, 7.25455250107542, 15.543975399416878], "label": "Li", "properties": {}}, {"species": [{"element": "Li", "occu": 1}], "abc": [0.39181017, 0.2868853, 0.38055040999999995], "xyz": [3.99876269402878, 3.2251074524253003, 16.590799903309318], "label": "Li", "properties": {}}, {"species": [{"element": "Li", "occu": 1}], "abc": [0.06281161, 0.34478995, 0.39997933999999996], "xyz": [1.5767091028542402, 3.8760600046999505, 17.437840089037678], "label": "Li", "properties": {}}, {"species": [{"element": "Li", "occu": 1}], "abc": [0.81494187, 0.5888163, 0.33760597], "xyz": [8.292487975316579, 6.6193556701563, 14.71855750840644], "label": "Li", "properties": {}}, {"species": [{"element": "Li", "occu": 1}], "abc": [0.66991611, 0.03663493, 0.36636064999999995], "xyz": [5.4157879417290395, 0.41184259270893003, 15.972171036673798], "label": "Li", "properties": {}}, {"species": [{"element": "Li", "occu": 1}], "abc": [0.18858008, 0.89931293, 0.36455645999999997], "xyz": [4.30835808689402, 10.109896995786931, 15.893514032263917], "label": "Li", "properties": {}}, {"species": [{"element": "Li", "occu": 1}], "abc": [0.72765793, 0.24540597, 0.42030277], "xyz": [6.526448648977319, 2.75880507895197, 18.32387765888004], "label": "Li", "properties": {}}, {"species": [{"element": "Li", "occu": 1}], "abc": [0.55923777, 0.36681026, 0.47253984], "xyz": [5.573900804360779, 4.12360794767826, 20.601249468583678], "label": "Li", "properties": {}}, {"species": [{"element": "Li", "occu": 1}], "abc": [0.60488546, 0.0561165, 0.42805917], "xyz": [4.962202980350639, 0.6308505258165, 18.662032281732838], "label": "Li", "properties": {}}, {"species": [{"element": "Li", "occu": 1}], "abc": [0.24216965, 0.74457224, 0.4098657], "xyz": [4.247857632276499, 8.37033295220424, 17.8688542627764], "label": "Li", "properties": {}}, {"species": [{"element": "Li", "occu": 1}], "abc": [0.10406235, 0.48167457, 0.46038359999999995], "xyz": [2.3317694789136, 5.4148896627005705, 20.0712756724272], "label": "Li", "properties": {}}, {"species": [{"element": "Li", "occu": 1}], "abc": [0.06684205, 0.18280144, 0.46097146], "xyz": [1.1013496715100999, 2.05501741099344, 20.09690451784392], "label": "Li", "properties": {}}, {"species": [{"element": "Li", "occu": 1}], "abc": [0.77127708, 0.13127715, 0.46986040999999995], "xyz": [6.514224337742219, 1.4757915961471502, 20.484434755429316], "label": "Li", "properties": {}}, {"species": [{"element": "Li", "occu": 1}], "abc": [0.4525056, 0.47604543, 0.42260209], "xyz": [5.071385617946699, 5.3516079910194305, 18.42412077262068], "label": "Li", "properties": {}}, {"species": [{"element": "Li", "occu": 1}], "abc": [0.70863062, 0.83878354, 0.44736224999999996], "xyz": [8.23399335449248, 9.429437638755541, 19.503585803636998], "label": "Li", "properties": {}}, {"species": [{"element": "P", "occu": 1}], "abc": [0.08135446, 0.85992493, 0.027381020000000002], "xyz": [3.33653813308294, 9.66710493799893, 1.19372627654904], "label": "P", "properties": {}}, {"species": [{"element": "P", "occu": 1}], "abc": [0.55294138, 0.03425496, 0.03481775], "xyz": [4.48271026424052, 0.38508744358296004, 1.517944293723], "label": "P", "properties": {}}, {"species": [{"element": "P", "occu": 1}], "abc": [0.96690533, 0.3012173, 0.06239032], "xyz": [8.59438961646422, 3.3862249443573003, 2.7200215472726397], "label": "P", "properties": {}}, {"species": [{"element": "P", "occu": 1}], "abc": [0.73325995, 0.73529691, 0.1134545], "xyz": [8.104827012131398, 8.26606153813491, 4.946259045234], "label": "P", "properties": {}}, {"species": [{"element": "P", "occu": 1}], "abc": [0.21376164, 0.9041689, 0.1191934], "xyz": [4.52282666036476, 10.164486844188902, 5.1964570191768], "label": "P", "properties": {}}, {"species": [{"element": "P", "occu": 1}], "abc": [0.34911778, 0.45342563, 0.0890671], "xyz": [4.18244241518282, 5.097320700759631, 3.8830451767692], "label": "P", "properties": {}}, {"species": [{"element": "P", "occu": 1}], "abc": [0.60431999, 0.19016572, 0.14645713], "xyz": [5.3774914650148595, 2.13780518126172, 6.385069820954759], "label": "P", "properties": {}}, {"species": [{"element": "P", "occu": 1}], "abc": [0.38856141, 0.61971332, 0.1980737], "xyz": [5.015276135799139, 6.96669382048932, 8.6353897839924], "label": "P", "properties": {}}, {"species": [{"element": "P", "occu": 1}], "abc": [0.86609793, 0.78795042, 0.20304676], "xyz": [9.32085819211182, 8.85798181950642, 8.85219954479952], "label": "P", "properties": {}}, {"species": [{"element": "P", "occu": 1}], "abc": [0.00065157, 0.33438335, 0.1714424], "xyz": [1.0522472615868799, 3.7590710784133505, 7.474348939324799], "label": "P", "properties": {}}, {"species": [{"element": "P", "occu": 1}], "abc": [0.25445308, 0.07257952, 0.23045619], "xyz": [2.2407721081679197, 0.81592452051552, 10.047164407913879], "label": "P", "properties": {}}, {"species": [{"element": "P", "occu": 1}], "abc": [0.04042347, 0.50092319, 0.2820315], "xyz": [1.8884681789058797, 5.63127881826519, 12.295685564838], "label": "P", "properties": {}}, {"species": [{"element": "P", "occu": 1}], "abc": [0.51798935, 0.66960875, 0.28706675], "xyz": [6.1956868740254, 7.5276083153587505, 12.515206613871], "label": "P", "properties": {}}, {"species": [{"element": "P", "occu": 1}], "abc": [0.65201516, 0.21650377, 0.25456657], "xyz": [5.83738020001114, 2.4338922980897704, 11.09830107643764], "label": "P", "properties": {}}, {"species": [{"element": "P", "occu": 1}], "abc": [0.90571992, 0.95456169, 0.31365737], "xyz": [10.156116543120179, 10.73099256120369, 13.674473938599238], "label": "P", "properties": {}}, {"species": [{"element": "P", "occu": 1}], "abc": [0.69388749, 0.38509386, 0.36590203], "xyz": [6.696642064687261, 4.32914854044186, 15.952176648409559], "label": "P", "properties": {}}, {"species": [{"element": "P", "occu": 1}], "abc": [0.1742224, 0.55349014, 0.37177103], "xyz": [3.1118323340589997, 6.2222260093421395, 16.20804657279756], "label": "P", "properties": {}}, {"species": [{"element": "P", "occu": 1}], "abc": [0.30249019, 0.09920686, 0.33856453], "xyz": [2.70427251160906, 1.11526377795486, 14.760347706859559], "label": "P", "properties": {}}, {"species": [{"element": "P", "occu": 1}], "abc": [0.55825999, 0.8357499, 0.39585193999999996], "xyz": [7.03460587606866, 9.395334061569901, 17.257898442092877], "label": "P", "properties": {}}, {"species": [{"element": "P", "occu": 1}], "abc": [0.35404091, 0.25450242, 0.45039978999999997], "xyz": [3.59848918123314, 2.86106555965842, 19.63601298546108], "label": "P", "properties": {}}, {"species": [{"element": "P", "occu": 1}], "abc": [0.82587223, 0.429009, 0.45782430999999996], "xyz": [7.878558108335819, 4.822833805209, 19.959698685072116], "label": "P", "properties": {}}, {"species": [{"element": "P", "occu": 1}], "abc": [0.94091156, 0.98793001, 0.42255546], "xyz": [10.53907907788714, 11.10611257434801, 18.42208785141192], "label": "P", "properties": {}}, {"species": [{"element": "O", "occu": 1}], "abc": [0.27942198, 0.79944161, 0.03157602], "xyz": [4.714455080057419, 8.987163490739611, 1.37661507068904], "label": "O", "properties": {}}, {"species": [{"element": "O", "occu": 1}], "abc": [0.34775096, 0.09157151, 0.034158], "xyz": [3.03851311214174, 1.02942869268951, 1.489181270616], "label": "O", "properties": {}}, {"species": [{"element": "O", "occu": 1}], "abc": [0.22346241, 0.55053451, 0.06952736], "xyz": [3.49221491801104, 6.18899940505251, 3.0311740238707197], "label": "O", "properties": {}}, {"species": [{"element": "O", "occu": 1}], "abc": [0.83699065, 0.23752947, 0.0490731], "xyz": [7.366937628784799, 2.67025903337547, 2.1394326778812], "label": "O", "properties": {}}, {"species": [{"element": "O", "occu": 1}], "abc": [0.62180065, 0.06069237, 0.06713997000000001], "xyz": [5.110382379013799, 0.68229154575837, 2.92709133537444], "label": "O", "properties": {}}, {"species": [{"element": "O", "occu": 1}], "abc": [0.99410622, 0.81809507, 0.00010000000000000026], "xyz": [10.42818740162018, 9.19686197602107, 0.004359685200000012], "label": "O", "properties": {}}, {"species": [{"element": "O", "occu": 1}], "abc": [0.57268912, 0.89803234, 0.03146763], "xyz": [7.34381592778948, 10.09550085784434, 1.37188960790076], "label": "O", "properties": {}}, {"species": [{"element": "O", "occu": 1}], "abc": [0.07045994, 0.00016972, 0.025045269999999998], "xyz": [0.5580833637631599, 0.00190795846572, 1.09189492949004], "label": "O", "properties": {}}, {"species": [{"element": "O", "occu": 1}], "abc": [0.4217633, 0.34421721, 0.06769555000000001], "xyz": [4.4153125464183, 3.86962137559521, 2.9513128744086004], "label": "O", "properties": {}}, {"species": [{"element": "O", "occu": 1}], "abc": [0.97662875, 0.83987683, 0.056696170000000004], "xyz": [10.3580952083578, 9.441728187370831, 2.47177453245684], "label": "O", "properties": {}}, {"species": [{"element": "O", "occu": 1}], "abc": [0.63886309, 0.08422204, 0.00894592], "xyz": [5.31907909079146, 0.9468074134940401, 0.39001395024383995], "label": "O", "properties": {}}, {"species": [{"element": "O", "occu": 1}], "abc": [0.08470621, 0.32670302, 0.03553814], "xyz": [1.69332422359934, 3.6727303369390203, 1.54935102993528], "label": "O", "properties": {}}, {"species": [{"element": "O", "occu": 1}], "abc": [0.92896632, 0.66240931, 0.1162976], "xyz": [9.425217212441979, 7.446673643567311, 5.0702092551552], "label": "O", "properties": {}}, {"species": [{"element": "O", "occu": 1}], "abc": [0.01977531, 0.98209243, 0.11588733], "xyz": [3.2318167566168396, 11.04048766166643, 5.05232277468516], "label": "O", "properties": {}}, {"species": [{"element": "O", "occu": 1}], "abc": [0.88002353, 0.43111704, 0.15050189], "xyz": [8.31366032391642, 4.84653197138904, 6.56140862405028], "label": "O", "properties": {}}, {"species": [{"element": "O", "occu": 1}], "abc": [0.10009661, 0.21164757, 0.08412296], "xyz": [1.4548231953884398, 2.37929986407357, 3.6674962369219197], "label": "O", "properties": {}}, {"species": [{"element": "O", "occu": 1}], "abc": [0.45685454, 0.14002871, 0.13260018], "xyz": [4.053592810855459, 1.57417489210671, 5.78095042263336], "label": "O", "properties": {}}, {"species": [{"element": "O", "occu": 1}], "abc": [0.5024739, 0.49820187, 0.10252698], "xyz": [5.5361673725493, 5.60068628036787, 4.46985357306696], "label": "O", "properties": {}}, {"species": [{"element": "O", "occu": 1}], "abc": [0.28731078, 0.93071357, 0.15090539], "xyz": [5.187945750940219, 10.46289674193957, 6.578999953832279], "label": "O", "properties": {}}, {"species": [{"element": "O", "occu": 1}], "abc": [0.65638894, 0.70523806, 0.08263279], "xyz": [7.40241751290856, 7.92814592814606, 3.60252951597708], "label": "O", "properties": {}}, {"species": [{"element": "O", "occu": 1}], "abc": [0.22101689, 0.7704061, 0.11687037], "xyz": [4.16137153074526, 8.6607520653861, 5.09518022407524], "label": "O", "properties": {}}, {"species": [{"element": "O", "occu": 1}], "abc": [0.72027862, 0.87076668, 0.11589758], "xyz": [8.42631669895188, 9.78898573399068, 5.05276964241816], "label": "O", "properties": {}}, {"species": [{"element": "O", "occu": 1}], "abc": [0.87312183, 0.41466292, 0.08061764], "xyz": [8.207522341249419, 4.66155802871892, 3.51467531966928], "label": "O", "properties": {}}, {"species": [{"element": "O", "occu": 1}], "abc": [0.0855588, 0.22221426, 0.15183364], "xyz": [1.3728736493058, 2.49808849028226, 6.6194687317012795], "label": "O", "properties": {}}, {"species": [{"element": "O", "occu": 1}], "abc": [0.62717077, 0.69966493, 0.14052917], "xyz": [7.1537613852674795, 7.86549390973893, 6.1266294261728405], "label": "O", "properties": {}}, {"species": [{"element": "O", "occu": 1}], "abc": [0.32531576, 0.93819822, 0.09297337], "xyz": [5.51211795770604, 10.547037687794221, 4.05334625183124], "label": "O", "properties": {}}, {"species": [{"element": "O", "occu": 1}], "abc": [0.24396994, 0.41679933, 0.11599733], "xyz": [3.23571202015326, 4.68557512479333, 5.057118428405159], "label": "O", "properties": {}}, {"species": [{"element": "O", "occu": 1}], "abc": [0.71196758, 0.22670741, 0.11986801999999999], "xyz": [6.3437375181858195, 2.54859958844541, 5.225868327473039], "label": "O", "properties": {}}, {"species": [{"element": "O", "occu": 1}], "abc": [0.58406889, 0.54561147, 0.20065667], "xyz": [6.33029019818496, 6.133655569057471, 8.74799914480284], "label": "O", "properties": {}}, {"species": [{"element": "O", "occu": 1}], "abc": [0.67075144, 0.86228354, 0.20045528], "xyz": [8.00784225026036, 9.69361996225554, 8.73921917477856], "label": "O", "properties": {}}, {"species": [{"element": "O", "occu": 1}], "abc": [0.52864992, 0.31494401, 0.23452706], "xyz": [5.16944361341138, 3.54053788656201, 10.22464152481512], "label": "O", "properties": {}}, {"species": [{"element": "O", "occu": 1}], "abc": [0.72947808, 0.09176161, 0.16628065], "xyz": [6.05972807246482, 1.03156575905961, 7.2493128885138], "label": "O", "properties": {}}, {"species": [{"element": "O", "occu": 1}], "abc": [0.10854118, 0.02318734, 0.21572184], "xyz": [0.93149911608952, 0.26066746199934004, 9.40479313164768], "label": "O", "properties": {}}, {"species": [{"element": "O", "occu": 1}], "abc": [0.14685411, 0.38393857, 0.18593276], "xyz": [2.3643306429534396, 4.31616100016457, 8.10608301967152], "label": "O", "properties": {}}, {"species": [{"element": "O", "occu": 1}], "abc": [0.94158975, 0.81343735, 0.23464237], "xyz": [9.998037557964999, 9.14450081466735, 10.22966867781924], "label": "O", "properties": {}}, {"species": [{"element": "O", "occu": 1}], "abc": [0.31346079, 0.59460994, 0.16647094], "xyz": [4.342393401152259, 6.68448661810194, 7.25760893348088], "label": "O", "properties": {}}, {"species": [{"element": "O", "occu": 1}], "abc": [0.8784184, 0.65302595, 0.20041021], "xyz": [8.9958466555151, 7.34118777773595, 8.73725426465892], "label": "O", "properties": {}}, {"species": [{"element": "O", "occu": 1}], "abc": [0.37533852, 0.75456057, 0.20104818], "xyz": [5.332904984773379, 8.48261977038657, 8.76506774832936], "label": "O", "properties": {}}, {"species": [{"element": "O", "occu": 1}], "abc": [0.52052498, 0.30023798, 0.16686144], "xyz": [5.05910007754112, 3.37521562380198, 7.2746335041868795], "label": "O", "properties": {}}, {"species": [{"element": "O", "occu": 1}], "abc": [0.73774498, 0.10652165, 0.234293], "xyz": [6.171364070095819, 1.19749519149165, 10.214437245635999], "label": "O", "properties": {}}, {"species": [{"element": "O", "occu": 1}], "abc": [0.2808369, 0.58121186, 0.22428767], "xyz": [4.0422845686772, 6.533868068959861, 9.778236354414839], "label": "O", "properties": {}}, {"species": [{"element": "O", "occu": 1}], "abc": [0.97352631, 0.82532733, 0.17667165], "xyz": [10.28798504535984, 9.27816560372133, 7.702327777645801], "label": "O", "properties": {}}, {"species": [{"element": "O", "occu": 1}], "abc": [0.88947065, 0.29978644, 0.19761615], "xyz": [7.9771657515325, 3.37013950097844, 8.6154420443598], "label": "O", "properties": {}}, {"species": [{"element": "O", "occu": 1}], "abc": [0.36458307, 0.10895414, 0.20429644], "xyz": [3.22613831227178, 1.2248407600061402, 8.90668165880688], "label": "O", "properties": {}}, {"species": [{"element": "O", "occu": 1}], "abc": [0.23568871, 0.42640591, 0.28477546], "xyz": [3.2002645062792396, 4.7935703854439105, 12.415313582851919], "label": "O", "properties": {}}, {"species": [{"element": "O", "occu": 1}], "abc": [0.3228481, 0.74424916, 0.28436253], "xyz": [4.885257254251, 8.36670095113716, 12.39731113475556], "label": "O", "properties": {}}, {"species": [{"element": "O", "occu": 1}], "abc": [0.17749505, 0.19743187, 0.31868152], "xyz": [2.0227644975184, 2.2194897935978704, 13.893511062575039], "label": "O", "properties": {}}, {"species": [{"element": "O", "occu": 1}], "abc": [0.37759102, 0.97405986, 0.2505092], "xyz": [6.03807136555728, 10.95018710820786, 10.9214125170384], "label": "O", "properties": {}}, {"species": [{"element": "O", "occu": 1}], "abc": [0.75925264, 0.90536229, 0.29913579999999995], "xyz": [8.84305248343866, 10.17790269708429, 13.041379200501597], "label": "O", "properties": {}}, {"species": [{"element": "O", "occu": 1}], "abc": [0.79750378, 0.26607274, 0.2694142], "xyz": [7.14385736503192, 2.99113679460474, 11.7456110040984], "label": "O", "properties": {}}, {"species": [{"element": "O", "occu": 1}], "abc": [0.5927826, 0.69459793, 0.31869508999999996], "xyz": [6.8657797723897005, 7.808531704071931, 13.894102671856677], "label": "O", "properties": {}}, {"species": [{"element": "O", "occu": 1}], "abc": [0.96548096, 0.47518142, 0.25041547999999997], "xyz": [9.12787151323484, 5.34189496253742, 10.917326620068959], "label": "O", "properties": {}}, {"species": [{"element": "O", "occu": 1}], "abc": [0.52969951, 0.53493002, 0.28416701], "xyz": [5.86661544634154, 6.01357683376602, 12.38878707825252], "label": "O", "properties": {}}, {"species": [{"element": "O", "occu": 1}], "abc": [0.02881451, 0.63577002, 0.28454176], "xyz": [2.21886679565154, 7.147200046606021, 12.405124998539518], "label": "O", "properties": {}}, {"species": [{"element": "O", "occu": 1}], "abc": [0.16902674, 0.18259253, 0.25073366999999996], "xyz": [1.9092864148964601, 2.05266888634653, 10.931198702406839], "label": "O", "properties": {}}, {"species": [{"element": "O", "occu": 1}], "abc": [0.38586871, 0.98887504, 0.31819951999999996], "xyz": [6.149965410772539, 11.116736413547041, 13.872497379911037], "label": "O", "properties": {}}, {"species": [{"element": "O", "occu": 1}], "abc": [0.93240251, 0.46421054, 0.30842312], "xyz": [8.83176629037674, 5.21856251278254, 13.446277116018239], "label": "O", "properties": {}}, {"species": [{"element": "O", "occu": 1}], "abc": [0.62671121, 0.70734582, 0.26088374], "xyz": [7.174176887117339, 7.951840946621821, 11.373709801986479], "label": "O", "properties": {}}, {"species": [{"element": "O", "occu": 1}], "abc": [0.54190121, 0.17992895, 0.28069929], "xyz": [4.8515140126906395, 2.02272545003895, 12.23760540263508], "label": "O", "properties": {}}, {"species": [{"element": "O", "occu": 1}], "abc": [0.01687231, 0.9892415, 0.28748548999999995], "xyz": [3.23123188820354, 11.1208560839415, 12.533462359677477], "label": "O", "properties": {}}, {"species": [{"element": "O", "occu": 1}], "abc": [0.88812321, 0.30779561, 0.36913418], "xyz": [7.99158340802924, 3.46017699629361, 16.09308821360136], "label": "O", "properties": {}}, {"species": [{"element": "O", "occu": 1}], "abc": [0.97827622, 0.62585586, 0.3689916], "xyz": [9.70094428881408, 7.035747032803861, 16.086872174443197], "label": "O", "properties": {}}, {"species": [{"element": "O", "occu": 1}], "abc": [0.80735874, 0.07795012, 0.40094627], "xyz": [6.63275094508636, 0.8762997369661201, 17.479995193142038], "label": "O", "properties": {}}, {"species": [{"element": "O", "occu": 1}], "abc": [0.02649962, 0.85749044, 0.33448557999999995], "xyz": [2.8948465327674797, 9.63973688588244, 14.582518327394157], "label": "O", "properties": {}}, {"species": [{"element": "O", "occu": 1}], "abc": [0.40423617, 0.79159509, 0.38246399999999997], "xyz": [5.6775433380166795, 8.89895447435709, 16.674226403328], "label": "O", "properties": {}}, {"species": [{"element": "O", "occu": 1}], "abc": [0.45034139, 0.14901866, 0.35237718999999995], "xyz": [4.03020525278786, 1.67523812100666, 15.362536200605877], "label": "O", "properties": {}}, {"species": [{"element": "O", "occu": 1}], "abc": [0.25195428, 0.58424724, 0.40244390999999996], "xyz": [3.823240433893919, 6.56799120687924, 17.54528758257132], "label": "O", "properties": {}}, {"species": [{"element": "O", "occu": 1}], "abc": [0.61981145, 0.35832731, 0.33425436999999997], "xyz": [6.0266587992464, 4.02824431188531, 14.572438299243238], "label": "O", "properties": {}}, {"species": [{"element": "O", "occu": 1}], "abc": [0.18828929, 0.41790086, 0.36940674999999995], "xyz": [2.79855848561846, 4.69795830584886, 16.104971407550998], "label": "O", "properties": {}}, {"species": [{"element": "O", "occu": 1}], "abc": [0.68555131, 0.51900989, 0.36822288999999997], "xyz": [7.05002358441944, 5.83460590041189, 16.053358838342277], "label": "O", "properties": {}}, {"species": [{"element": "O", "occu": 1}], "abc": [0.82144329, 0.06682919, 0.33328365], "xyz": [6.70937827669976, 0.75128045497119, 14.530117963069799], "label": "O", "properties": {}}, {"species": [{"element": "O", "occu": 1}], "abc": [0.03332326, 0.87430756, 0.40432813999999995], "xyz": [3.00150352583044, 9.82879160231556, 17.627434079015277], "label": "O", "properties": {}}, {"species": [{"element": "O", "occu": 1}], "abc": [0.5832241, 0.35062284, 0.39220104], "xyz": [5.7130160003238, 3.94163219333484, 17.09873069512608], "label": "O", "properties": {}}, {"species": [{"element": "O", "occu": 1}], "abc": [0.27924899, 0.58938527, 0.34455555], "xyz": [4.05531368066636, 6.62575191767127, 15.0215373191286], "label": "O", "properties": {}}, {"species": [{"element": "O", "occu": 1}], "abc": [0.19467525, 0.0629765, 0.36516212], "xyz": [1.7376771140734997, 0.7079692806765001, 15.919918901646238], "label": "O", "properties": {}}, {"species": [{"element": "O", "occu": 1}], "abc": [0.66348977, 0.87224566, 0.36894096], "xyz": [7.98157589084278, 9.80561213283366, 16.08466442985792], "label": "O", "properties": {}}, {"species": [{"element": "O", "occu": 1}], "abc": [0.55918209, 0.19724315, 0.45121482999999996], "xyz": [5.04247606270256, 2.2173682409131503, 19.671546163715156], "label": "O", "properties": {}}, {"species": [{"element": "O", "occu": 1}], "abc": [0.62779267, 0.48937786, 0.45364124], "xyz": [6.50018746724338, 5.50148851592586, 19.77733000137648], "label": "O", "properties": {}}, {"species": [{"element": "O", "occu": 1}], "abc": [0.68361151, 0.73833722, 0.41534487999999997], "xyz": [7.721477675501539, 8.300240098133221, 18.107729262317758], "label": "O", "properties": {}}, {"species": [{"element": "O", "occu": 1}], "abc": [0.07199702, 0.05093186, 0.43569268], "xyz": [0.7292034028812799, 0.5725658346798601, 18.99482928744336], "label": "O", "properties": {}}, {"species": [{"element": "O", "occu": 1}], "abc": [0.91271818, 0.47025086, 0.48523668999999997], "xyz": [8.69491823627072, 5.28646658819886, 21.154792158899877], "label": "O", "properties": {}}, {"species": [{"element": "O", "occu": 1}], "abc": [0.28651549, 0.22820017, 0.41795962], "xyz": [2.9817951082363594, 2.56538089930617, 18.22172369511624], "label": "O", "properties": {}}, {"species": [{"element": "O", "occu": 1}], "abc": [0.83712154, 0.28854972, 0.4599098], "xyz": [7.5277386868575595, 3.2438185308457204, 20.0506194839496], "label": "O", "properties": {}}, {"species": [{"element": "O", "occu": 1}], "abc": [0.3343456, 0.39075641, 0.45381204999999997], "xyz": [3.8693066303885004, 4.39280580069441, 19.784776779666597], "label": "O", "properties": {}}, {"species": [{"element": "O", "occu": 1}], "abc": [0.4869796, 0.94495413, 0.41732561999999995], "xyz": [6.8125249443297, 10.62298628358813, 18.19408329094824], "label": "O", "properties": {}}, {"species": [{"element": "O", "occu": 1}], "abc": [0.26684736, 0.2046996, 0.47611493], "xyz": [2.7525706069262394, 2.3011921679796004, 20.75711213820036], "label": "O", "properties": {}}, {"species": [{"element": "O", "occu": 1}], "abc": [0.93094356, 0.44958635, 0.42860695], "xyz": [8.77442723461454, 5.054160279016351, 18.6859137653214], "label": "O", "properties": {}}, {"species": [{"element": "O", "occu": 1}], "abc": [0.82330975, 0.96279792, 0.44949806], "xyz": [9.5297930789487, 10.823582619853921, 19.596700396107117], "label": "O", "properties": {}}]}, "formula": "(Li3PO4)22.0", "bandgap": 4.2957, "slab_thickness": 21.150432473699876}