{"miller": "001_0.06", "final_energy": -1006.13518346, "sigma": 0.009020306921439626, "incar_parameters": {"SYSTEM": "unknown system", "LCOMPAT": false, "PREC": "normal", "ENMAX": 520.0, "ENAUG": 628.945, "EDIFF": 1e-05, "IALGO": 38, "IWAVPR": 11, "NBANDS": 461, "NBANDSLOW": -1, "NBANDSHIGH": -1, "NELECT": 760.0, "TURBO": 0, "IRESTART": 0, "NREBOOT": 0, "NMIN": 0, "EREF": 0.0, "ISMEAR": 0, "SIGMA": 0.05, "KSPACING": 0.5, "KGAMMA": true, "KBLOWUP": true, "LREAL": true, "ROPT": [-0.0005, -0.0005, -0.0005], "LMAXPAW": -100, "LMAXMIX": 2, "NLSPLINE": false, "ISTART": 0, "ICHARG": 2, "INIWAV": 1, "ISPIN": 1, "LNONCOLLINEAR": false, "MAGMOM": [0.6, 0.6, 0.6, 0.6, 0.6, 0.6, 0.6, 0.6, 0.6, 0.6, 0.6, 0.6, 0.6, 0.6, 0.6, 0.6, 0.6, 0.6, 0.6, 0.6, 0.6, 0.6, 0.6, 0.6, 0.6, 0.6, 0.6, 0.6, 0.6, 0.6, 0.6, 0.6, 0.6, 0.6, 0.6, 0.6, 0.6, 0.6, 0.6, 0.6, 0.6, 0.6, 0.6, 0.6, 0.6, 0.6, 0.6, 0.6, 0.6, 0.6, 0.6, 0.6, 0.6, 0.6, 0.6, 0.6, 0.6, 0.6, 0.6, 0.6, 0.6, 0.6, 0.6, 0.6, 0.6, 0.6, 0.6, 0.6, 0.6, 0.6, 0.6, 0.6, 0.6, 0.6, 0.6, 0.6, 0.6, 0.6, 0.6, 0.6, 0.6, 0.6, 0.6, 0.6, 0.6, 0.6, 0.6, 0.6, 0.6, 0.6, 0.6, 0.6, 0.6, 0.6, 0.6, 0.6, 0.6, 0.6, 0.6, 0.6, 0.6, 0.6, 0.6, 0.6, 0.6, 0.6, 0.6, 0.6, 0.6, 0.6, 0.6, 0.6, 0.6, 0.6, 0.6, 0.6, 0.6, 0.6, 0.6, 0.6, 0.6, 0.6, 0.6, 0.6, 0.6, 0.6, 0.6, 0.6, 0.6, 0.6, 0.6, 0.6, 0.6, 0.6, 0.6, 0.6, 0.6, 0.6, 0.6, 0.6, 0.6, 0.6, 0.6, 0.6, 0.6, 0.6, 0.6, 0.6, 0.6, 0.6, 0.6, 0.6, 0.6, 0.6, 0.6, 0.6, 0.6, 0.6, 0.6, 0.6], "NUPDOWN": -1.0, "LSORBIT": false, "SAXIS": [0.0, 0.0, 1.0], "LSPIRAL": false, "QSPIRAL": [0.0, 0.0, 0.0], "LZEROZ": false, "LASPH": false, "LMETAGGA": false, "NELM": 100, "NELMDL": -5, "NELMIN": 6, "ENINI": 520.0, "LDIAG": true, "LSUBROT": false, "WEIMIN": 0.001, "EBREAK": 1e-08, "DEPER": 0.3, "NRMM": 4, "TIME": 0.4, "AMIX": 0.4, "BMIX": 1.0, "AMIN": 0.1, "AMIX_MAG": 1.6, "BMIX_MAG": 1.0, "IMIX": 4, "MIXFIRST": false, "MAXMIX": -45, "WC": 100.0, "INIMIX": 1, "MIXPRE": 1, "MREMOVE": 5, "LDIPOL": false, "LMONO": false, "IDIPOL": 0, "EPSILON": 1.0, "DIPOL": [-100.0, -100.0, -100.0], "EFIELD": 0.0, "NGX": 28, "NGY": 36, "NGZ": 300, "NGXF": 56, "NGYF": 72, "NGZF": 600, "ADDGRID": false, "NSW": 150, "IBRION": 2, "MDALGO": 0, "ISIF": 3, "PSTRESS": 0.0, "EDIFFG": -0.01, "NFREE": 1, "POTIM": 0.5, "SMASS": -3.0, "SCALEE": 1.0, "TEBEG": 0.0001, "TEEND": 0.0001, "NBLOCK": 1, "KBLOCK": 150, "NPACO": 256, "APACO": 10.0, "ISYM": 0, "SYMPREC": 1e-05, "LORBIT": 11, "RWIGS": [-1.0, -1.0, -1.0], "NEDOS": 301, "EMIN": 10.0, "EMAX": -10.0, "EFERMI": 0.0, "NWRITE": 2, "LWAVE": false, "LDOWNSAMPLE": false, "LCHARG": false, "LPARD": false, "LVTOT": false, "LVHAR": false, "LELF": false, "LOPTICS": false, "STM": [0.0, 0.0, 0.0, 0.0, 0.0, 0.0, 0.0], "NPAR": 1, "NSIM": 4, "NBLK": -1, "LPLANE": true, "LSCALAPACK": true, "LSCAAWARE": false, "LSCALU": false, "LASYNC": false, "LORBITALREAL": false, "IDIOT": 3, "PHON_NSTRUCT": -1, "LMUSIC": false, "POMASS": [7.01, 30.974, 16.0], "DARWINR": [0.0, 0.0, 0.0], "DARWINV": [1.0, 1.0, 1.0], "LCORR": true, "GGA_COMPAT": true, "LBERRY": false, "ICORELEVEL": 0, "LDAU": false, "I_CONSTRAINED_M": 0, "GGA": "--", "VOSKOWN": 0, "LHFCALC": false, "PRECFOCK": "", "LSYMGRAD": false, "LHFONE": false, "LRHFCALC": false, "LTHOMAS": false, "LMODELHF": false, "LFOCKACE": false, "ENCUT4O": -1.0, "EXXOEP": 0, "FOURORBIT": 0, "AEXX": 0.0, "HFALPHA": 0.0, "MCALPHA": 0.0, "ALDAX": 1.0, "AGGAX": 1.0, "ALDAC": 1.0, "AGGAC": 1.0, "NKREDX": 1, "NKREDY": 1, "NKREDZ": 1, "SHIFTRED": false, "ODDONLY": false, "EVENONLY": false, "LMAXFOCK": 0, "NMAXFOCKAE": 0, "LFOCKAEDFT": false, "HFSCREEN": 0.0, "HFSCREENC": 0.0, "NBANDSGWLOW": 0, "LUSE_VDW": false, "Zab_VDW": -0.8491, "PARAM1": 0.1234, "PARAM2": 1.0, "PARAM3": 0.0, "MODEL_GW": 0, "MODEL_EPS0": 6.06302573, "MODEL_ALPHA": 1.0, "LEPSILON": false, "LRPA": false, "LNABLA": false, "LVEL": false, "CSHIFT": 0.1, "OMEGAMAX": -1.0, "DEG_THRESHOLD": 0.002, "RTIME": -0.1, "WPLASMAI": 0.0, "DFIELD": [0.0, 0.0, 0.0], "WPLASMA": [0.0, 0.0, 0.0, 0.0, 0.0, 0.0, 0.0, 0.0, 0.0], "NUCIND": false, "MAGPOS": [0.0, 0.0, 0.0], "LNICSALL": true, "ORBITALMAG": false, "LMAGBLOCH": false, "LCHIMAG": false, "LGAUGE": true, "MAGATOM": 0, "MAGDIPOL": [0.0, 0.0, 0.0], "AVECCONST": [0.0, 0.0, 0.0], "LFINITE_TEMPERATURE": false, "LADDER": false, "LRPAFORCE": false, "LFXC": false, "LHARTREE": true, "IBSE": 0, "KPOINT": [-1, 0, 0, 0], "LTCTC": false, "LTCTE": false, "LTETE": false, "LTRIPLET": false, "LFXCEPS": false, "LFXHEG": false, "NATURALO": 2, "LHOLEGF": false, "L2ORDER": false, "LDMP1": false, "LMP2LT": false, "LSMP2LT": false, "LGWLF": false, "ENCUTGW": -2.0, "ENCUTGWSOFT": -2.0, "ENCUTLF": -1.0, "LESF_SPLINES": false, "LMAXMP2": -1, "SCISSOR": 0.0, "NOMEGA": 0, "NOMEGAR": 0, "NBANDSGW": -1, "NBANDSO": -1, "NBANDSV": -1, "NELMGW": 1, "NELMHF": 1, "DIM": 3, "IESPILON": 4, "ANTIRES": 0, "OMEGAMIN": -30.0, "OMEGATL": -200.0, "OMEGAGRID": 0, "LSELFENERGY": false, "LSPECTRAL": false, "LSPECTRALGW": false, "LSINGLES": false, "LFERMIGW": false, "ODDONLYGW": false, "EVENONLYGW": false, "NKREDLFX": 1, "NKREDLFY": 1, "NKREDLFZ": 1, "MAXMEM": 2800, "TELESCOPE": 0, "NTAUPAR": -1, "NOMEGAPAR": -1, "DAMP_NEWTON": 0.80000001, "LAMBDA": 1.0, "OFIELD_KAPPA": 0.0, "OFIELD_K": [0.0, 0.0, 0.0], "OFIELD_Q6_NEAR": 0.0, "OFIELD_Q6_FAR": 0.0, "OFIELD_A": 0.0, "KPOINTS_OPT_MODE": 1, "LKPOINTS_OPT": false, "@module": "pymatgen.io.vasp.inputs", "@class": "Incar"}, "relaxed_structures": {"@module": "pymatgen.core.structure", "@class": "Structure", "charge": 0, "lattice": {"matrix": [[4.977846, 0.0, 0.0], [0.0, 6.151192, 0.0], [0.0, 0.0, 52.80285483]], "a": 4.977846, "b": 6.151192, "c": 52.80285483, "alpha": 90.0, "beta": 90.0, "gamma": 90.0, "volume": 1616.806860799999}, "sites": [{"species": [{"element": "Li", "occu": 1}], "abc": [0.80207057, 0.49874974, 0.11711691], "xyz": [3.9925837785922207, 3.06790541069008, 6.184107196868176], "label": "Li", "properties": {}}, {"species": [{"element": "Li", "occu": 1}], "abc": [0.30186727, 0.50232475, 0.08281559], "xyz": [1.5026487825004202, 3.089895983602, 4.372899576430799], "label": "Li", "properties": {}}, {"species": [{"element": "Li", "occu": 1}], "abc": [0.69302771, 0.4870564, 0.01746958], "xyz": [3.44978521411266, 2.9959774312288, 0.9224436966810713], "label": "Li", "properties": {}}, {"species": [{"element": "Li", "occu": 1}], "abc": [0.69302964, 0.01293645, 0.01746735], "xyz": [3.4497948213554404, 0.0795745877484, 0.9223259463148005], "label": "Li", "properties": {}}, {"species": [{"element": "Li", "occu": 1}], "abc": [0.30186808, 0.99766691, 0.08281495], "xyz": [1.5026528145556801, 6.13684071545672, 4.372865782603708], "label": "Li", "properties": {}}, {"species": [{"element": "Li", "occu": 1}], "abc": [0.80207211, 0.00123809, 0.11711733], "xyz": [3.9925914444750603, 0.00761572930328, 6.184129374067204], "label": "Li", "properties": {}}, {"species": [{"element": "Li", "occu": 1}], "abc": [0.20239114, 0.74999197, 0.13504384], "xyz": [1.00747192668444, 4.61334460592824, 7.1307002792057474], "label": "Li", "properties": {}}, {"species": [{"element": "Li", "occu": 1}], "abc": [0.69800559, 0.24999601, 0.06584578], "xyz": [3.47456433415914, 1.5377734567439199, 3.476845162508118], "label": "Li", "properties": {}}, {"species": [{"element": "Li", "occu": 1}], "abc": [0.29705196, 0.74996484, 0.03543514], "xyz": [1.4786789108781602, 4.6131777240892795, 1.871076553300726], "label": "Li", "properties": {}}, {"species": [{"element": "Li", "occu": 1}], "abc": [0.80332231, 0.49824072, 0.31724413], "xyz": [3.99881474754426, 3.0647743309382403, 16.75139574205965], "label": "Li", "properties": {}}, {"species": [{"element": "Li", "occu": 1}], "abc": [0.19667408, 0.50175218, 0.1827581], "xyz": [0.9790132824316801, 3.08637399559856, 9.650149423306624], "label": "Li", "properties": {}}, {"species": [{"element": "Li", "occu": 1}], "abc": [0.30274815, 0.50159546, 0.28282901], "xyz": [1.5070336674849, 3.0854099807883197, 14.934179156742617], "label": "Li", "properties": {}}, {"species": [{"element": "Li", "occu": 1}], "abc": [0.69725317, 0.49839723, 0.21717276], "xyz": [3.4708189032718204, 3.06573705399816, 11.467341719310431], "label": "Li", "properties": {}}, {"species": [{"element": "Li", "occu": 1}], "abc": [0.6972542, 0.00159497, 0.21717239], "xyz": [3.4708240304532003, 0.00981096670424, 11.467322182254144], "label": "Li", "properties": {}}, {"species": [{"element": "Li", "occu": 1}], "abc": [0.30274705, 0.99839839, 0.28282902], "xyz": [1.5070281918543003, 6.141340189380879, 14.934179684771166], "label": "Li", "properties": {}}, {"species": [{"element": "Li", "occu": 1}], "abc": [0.19667379, 0.99823456, 0.18275814], "xyz": [0.97901183885634, 6.14033243959552, 9.650151535420816], "label": "Li", "properties": {}}, {"species": [{"element": "Li", "occu": 1}], "abc": [0.80332422, 0.00175386, 0.31724433], "xyz": [3.9988242552301205, 0.01078832960112, 16.751406302630617], "label": "Li", "properties": {}}, {"species": [{"element": "Li", "occu": 1}], "abc": [0.20342457, 0.74999631, 0.33523459], "xyz": [1.01261618207622, 4.61337130210152, 17.70134338976457], "label": "Li", "properties": {}}, {"species": [{"element": "Li", "occu": 1}], "abc": [0.79658321, 0.25003577, 0.16476349], "xyz": [3.96526854556566, 1.53801802813784, 8.699982643754158], "label": "Li", "properties": {}}, {"species": [{"element": "Li", "occu": 1}], "abc": [0.70321619, 0.24999887, 0.26482077], "xyz": [3.5005018985267404, 1.53779104915304, 13.983292674278818], "label": "Li", "properties": {}}, {"species": [{"element": "Li", "occu": 1}], "abc": [0.29678213, 0.74999884, 0.23517907], "xyz": [1.47733573869198, 4.61338686461728, 12.418126292264407], "label": "Li", "properties": {}}, {"species": [{"element": "Li", "occu": 1}], "abc": [0.19791954, 0.50125804, 0.38288181], "xyz": [0.9852129905108401, 3.08333444558368, 20.217252630477642], "label": "Li", "properties": {}}, {"species": [{"element": "Li", "occu": 1}], "abc": [0.30697691, 0.5129314, 0.48253415], "xyz": [1.52808378353586, 3.1551395242288, 25.479180672967445], "label": "Li", "properties": {}}, {"species": [{"element": "Li", "occu": 1}], "abc": [0.6981325, 0.49767563, 0.41718661], "xyz": [3.4751960725950006, 3.06129835385096, 22.028644004849827], "label": "Li", "properties": {}}, {"species": [{"element": "Li", "occu": 1}], "abc": [0.69813073, 0.00232204, 0.41718659], "xyz": [3.4751872618075805, 0.01428331387168, 22.028642948792733], "label": "Li", "properties": {}}, {"species": [{"element": "Li", "occu": 1}], "abc": [0.30697645, 0.98706055, 0.48253407], "xyz": [1.5280814937267002, 6.0715989586756, 25.479176448739057], "label": "Li", "properties": {}}, {"species": [{"element": "Li", "occu": 1}], "abc": [0.19791436, 0.99875058, 0.38288389], "xyz": [0.9851872052685602, 6.14350657769136, 20.21736246041569], "label": "Li", "properties": {}}, {"species": [{"element": "Li", "occu": 1}], "abc": [0.79760694, 0.24999656, 0.36495742], "xyz": [3.9703645158512404, 1.53777683989952, 19.270793667391338], "label": "Li", "properties": {}}, {"species": [{"element": "Li", "occu": 1}], "abc": [0.70289642, 0.2499988, 0.46456127], "xyz": [3.49891013271132, 1.5377906185696, 24.530161299450437], "label": "Li", "properties": {}}, {"species": [{"element": "Li", "occu": 1}], "abc": [0.30199375, 0.74999659, 0.43415787], "xyz": [1.5032783804625, 4.61337302443528, 22.924774982912012], "label": "Li", "properties": {}}, {"species": [{"element": "Li", "occu": 1}], "abc": [0.69796805, 0.50120946, 0.61712037], "xyz": [3.4743774658203, 3.08303562067632, 32.58571730974589], "label": "Li", "properties": {}}, {"species": [{"element": "Li", "occu": 1}], "abc": [0.19834175, 0.49737961, 0.58281744], "xyz": [0.9873146868705002, 3.05947747799512, 30.774424676712236], "label": "Li", "properties": {}}, {"species": [{"element": "Li", "occu": 1}], "abc": [0.80693945, 0.51298962, 0.51748507], "xyz": [4.0168203134247005, 3.1554976466270404, 27.324689027902387], "label": "Li", "properties": {}}, {"species": [{"element": "Li", "occu": 1}], "abc": [0.80694174, 0.98701145, 0.51748514], "xyz": [4.01683171269204, 6.0712969351484, 27.324692724102228], "label": "Li", "properties": {}}, {"species": [{"element": "Li", "occu": 1}], "abc": [0.19834088, 0.00262199, 0.58281725], "xyz": [0.98731035614448, 0.016128363912079998, 30.774414644169816], "label": "Li", "properties": {}}, {"species": [{"element": "Li", "occu": 1}], "abc": [0.69797685, 0.99877933, 0.61712194], "xyz": [3.4744212708651, 6.14368342446136, 32.58580021022797], "label": "Li", "properties": {}}, {"species": [{"element": "Li", "occu": 1}], "abc": [0.29725251, 0.24999573, 0.63510108], "xyz": [1.4796772178934603, 1.53777173441016, 33.53515012961622], "label": "Li", "properties": {}}, {"species": [{"element": "Li", "occu": 1}], "abc": [0.80279289, 0.74999861, 0.56590012], "xyz": [3.9961793763149402, 4.61338544984312, 29.88114188463958], "label": "Li", "properties": {}}, {"species": [{"element": "Li", "occu": 1}], "abc": [0.20304193, 0.25000008, 0.53543103], "xyz": [1.0107114590827802, 1.53779849209536, 28.272286948567377], "label": "Li", "properties": {}}, {"species": [{"element": "Li", "occu": 1}], "abc": [0.69715373, 0.50168906, 0.81721849], "xyz": [3.4703239062655804, 3.08598573235952, 43.15146929186181], "label": "Li", "properties": {}}, {"species": [{"element": "Li", "occu": 1}], "abc": [0.30283627, 0.49830959, 0.68278096], "xyz": [1.5074723152744203, 3.06519796353128, 36.052783911568035], "label": "Li", "properties": {}}, {"species": [{"element": "Li", "occu": 1}], "abc": [0.19730137, 0.49839221, 0.78282734], "xyz": [0.9821358354490201, 3.06570617501432, 41.335518390975054], "label": "Li", "properties": {}}, {"species": [{"element": "Li", "occu": 1}], "abc": [0.80268907, 0.50159673, 0.7171721], "xyz": [3.9956625763432205, 3.0854177928021604, 37.868734284426246], "label": "Li", "properties": {}}, {"species": [{"element": "Li", "occu": 1}], "abc": [0.80268805, 0.99839433, 0.71717192], "xyz": [3.9956574989403, 6.14131521554136, 37.86872477991237], "label": "Li", "properties": {}}, {"species": [{"element": "Li", "occu": 1}], "abc": [0.1972999, 0.00159981, 0.78282802], "xyz": [0.9821285180154001, 0.00984073847352, 41.335554296916335], "label": "Li", "properties": {}}, {"species": [{"element": "Li", "occu": 1}], "abc": [0.30283484, 0.00167642, 0.68278041], "xyz": [1.5074651969546402, 0.01031198129264, 36.052754869997884], "label": "Li", "properties": {}}, {"species": [{"element": "Li", "occu": 1}], "abc": [0.69714958, 0.99830951, 0.81721866], "xyz": [3.4703032482046807, 6.14079347143592, 43.15147826834713], "label": "Li", "properties": {}}, {"species": [{"element": "Li", "occu": 1}], "abc": [0.29652215, 0.24999814, 0.83521346], "xyz": [1.4760415982889001, 1.53778655878288, 44.10165508044201], "label": "Li", "properties": {}}, {"species": [{"element": "Li", "occu": 1}], "abc": [0.703473, 0.74999445, 0.6647852], "xyz": [3.5017802591580005, 4.6133598608844, 35.10255640873252], "label": "Li", "properties": {}}, {"species": [{"element": "Li", "occu": 1}], "abc": [0.79679678, 0.74999681, 0.76482099], "xyz": [3.9663316641358803, 4.61337437769752, 40.38473170590689], "label": "Li", "properties": {}}, {"species": [{"element": "Li", "occu": 1}], "abc": [0.20319515, 0.24999556, 0.73517951], "xyz": [1.0114741646469, 1.53777068870752, 38.819576940520534], "label": "Li", "properties": {}}, {"species": [{"element": "Li", "occu": 1}], "abc": [0.3020662, 0.49876729, 0.88287864], "xyz": [1.5036390254052001, 3.06801336410968, 46.61851266042783], "label": "Li", "properties": {}}, {"species": [{"element": "Li", "occu": 1}], "abc": [0.19306117, 0.48701817, 0.98251592], "xyz": [0.9610287728398201, 2.99574227115864, 51.879645491923895], "label": "Li", "properties": {}}, {"species": [{"element": "Li", "occu": 1}], "abc": [0.80168033, 0.50266232, 0.91718041], "xyz": [3.9906412239691806, 3.09197244148544, 48.42974404214988], "label": "Li", "properties": {}}, {"species": [{"element": "Li", "occu": 1}], "abc": [0.8017435, 0.99774422, 0.91716416], "xyz": [3.9909556745010004, 6.13731626411024, 48.4288859957589], "label": "Li", "properties": {}}, {"species": [{"element": "Li", "occu": 1}], "abc": [0.19306471, 0.01298639, 0.98251554], "xyz": [0.9610463944146601, 0.07988177827688, 51.879625426839056], "label": "Li", "properties": {}}, {"species": [{"element": "Li", "occu": 1}], "abc": [0.30205396, 0.00123412, 0.88287896], "xyz": [1.5035780965701602, 0.00759130907104, 46.618529557341375], "label": "Li", "properties": {}}, {"species": [{"element": "Li", "occu": 1}], "abc": [0.70273496, 0.75000074, 0.86489789], "xyz": [3.4981064096961605, 4.613398551882081, 45.669077728443305], "label": "Li", "properties": {}}, {"species": [{"element": "Li", "occu": 1}], "abc": [0.79705968, 0.75000856, 0.96455798], "xyz": [3.9676403398492806, 4.61344665420352, 50.93141499305805], "label": "Li", "properties": {}}, {"species": [{"element": "Li", "occu": 1}], "abc": [0.19721518, 0.25002606, 0.93410065], "xyz": [0.9817067949022801, 1.53795830006352, 49.32318101855864], "label": "Li", "properties": {}}, {"species": [{"element": "P", "occu": 1}], "abc": [0.30596371, 0.249968, 0.13222453], "xyz": [1.52304022996866, 1.537601161856, 6.9818326625549805], "label": "P", "properties": {}}, {"species": [{"element": "P", "occu": 1}], "abc": [0.80565092, 0.74999489, 0.06744996], "xyz": [4.010406209518321, 4.613362567408879, 3.561550446169307], "label": "P", "properties": {}}, {"species": [{"element": "P", "occu": 1}], "abc": [0.18801055, 0.24999036, 0.03303301], "xyz": [0.9358875642753001, 1.53773870250912, 1.7442372316279384], "label": "P", "properties": {}}, {"species": [{"element": "P", "occu": 1}], "abc": [0.30744805, 0.24999053, 0.33234889], "xyz": [1.5304290459003, 1.5377397482117598, 17.54897019158164], "label": "P", "properties": {}}, {"species": [{"element": "P", "occu": 1}], "abc": [0.69253427, 0.7499882, 0.16765401], "xyz": [3.4473289457824206, 4.6133214159344, 8.852610351697368], "label": "P", "properties": {}}, {"species": [{"element": "P", "occu": 1}], "abc": [0.80685274, 0.74999681, 0.26772287], "xyz": [4.0163886843980405, 4.61337437769752, 14.136531839280963], "label": "P", "properties": {}}, {"species": [{"element": "P", "occu": 1}], "abc": [0.1931532, 0.24999125, 0.23227787], "xyz": [0.9614868840072001, 1.53774417707, 12.264934649831613], "label": "P", "properties": {}}, {"species": [{"element": "P", "occu": 1}], "abc": [0.69402258, 0.74999087, 0.36777886], "xyz": [3.45473752376268, 4.6133378396170395, 19.419773754122893], "label": "P", "properties": {}}, {"species": [{"element": "P", "occu": 1}], "abc": [0.8120302, 0.74999815, 0.46696873], "xyz": [4.0421612829492, 4.6133826202948, 24.657282060339465], "label": "P", "properties": {}}, {"species": [{"element": "P", "occu": 1}], "abc": [0.1943421, 0.24999852, 0.43255153], "xyz": [0.9674050451166001, 1.53778889623584, 22.83995564508439], "label": "P", "properties": {}}, {"species": [{"element": "P", "occu": 1}], "abc": [0.19401124, 0.74997856, 0.63223827], "xyz": [0.9657580749890401, 4.61326211844352, 33.38398558878034], "label": "P", "properties": {}}, {"species": [{"element": "P", "occu": 1}], "abc": [0.69450044, 0.24999651, 0.56744899], "xyz": [3.45711623725224, 1.53777653233992, 29.962926642400124], "label": "P", "properties": {}}, {"species": [{"element": "P", "occu": 1}], "abc": [0.31209906, 0.74999442, 0.53305044], "xyz": [1.5535810574247602, 4.61335967634864, 28.146585000387628], "label": "P", "properties": {}}, {"species": [{"element": "P", "occu": 1}], "abc": [0.19273301, 0.75000379, 0.83234356], "xyz": [0.9593952428964602, 4.613417313017679, 43.950116167365394], "label": "P", "properties": {}}, {"species": [{"element": "P", "occu": 1}], "abc": [0.80725363, 0.25000127, 0.66765739], "xyz": [4.01838425308098, 1.53780581201384, 35.25421624034669], "label": "P", "properties": {}}, {"species": [{"element": "P", "occu": 1}], "abc": [0.69314985, 0.24999005, 0.76771093], "xyz": [3.4503932082231, 1.5377367956396, 40.537328788194294], "label": "P", "properties": {}}, {"species": [{"element": "P", "occu": 1}], "abc": [0.30683727, 0.74999129, 0.73228895], "xyz": [1.5273886771204201, 4.61334042311768, 38.666947120463135], "label": "P", "properties": {}}, {"species": [{"element": "P", "occu": 1}], "abc": [0.80597916, 0.25001277, 0.86775639], "xyz": [4.01204013768936, 1.53787655072184, 45.820014688974865], "label": "P", "properties": {}}, {"species": [{"element": "P", "occu": 1}], "abc": [0.6878922, 0.25002543, 0.96695], "xyz": [3.4242214362012002, 1.53795442481256, 51.0577204778685], "label": "P", "properties": {}}, {"species": [{"element": "P", "occu": 1}], "abc": [0.30557179, 0.75003284, 0.93254471], "xyz": [1.52108931256434, 4.61359600514528, 49.24102294461445], "label": "P", "properties": {}}, {"species": [{"element": "O", "occu": 1}], "abc": [0.20249114, 0.45701296, 0.11823682], "xyz": [1.0079697112844401, 2.81117446344832, 6.243241642020841], "label": "O", "properties": {}}, {"species": [{"element": "O", "occu": 1}], "abc": [0.70131492, 0.5439895, 0.08157519], "xyz": [3.49103766926232, 3.346183860484, 4.307402915299668], "label": "O", "properties": {}}, {"species": [{"element": "O", "occu": 1}], "abc": [0.28740666, 0.4581019, 0.0188288], "xyz": [1.43066609285436, 2.8178727424648002, 0.994214393023104], "label": "O", "properties": {}}, {"species": [{"element": "O", "occu": 1}], "abc": [0.2874206, 0.04188665, 0.01882805], "xyz": [1.4307354840276003, 0.2576528263868, 0.9941747908819815], "label": "O", "properties": {}}, {"species": [{"element": "O", "occu": 1}], "abc": [0.70133032, 0.9559968, 0.08157584], "xyz": [3.49111432809072, 5.8805198681855995, 4.307437237155307], "label": "O", "properties": {}}, {"species": [{"element": "O", "occu": 1}], "abc": [0.20248542, 0.04293014, 0.11823541], "xyz": [1.00794123800532, 0.26407153372687997, 6.24316718999553], "label": "O", "properties": {}}, {"species": [{"element": "O", "occu": 1}], "abc": [0.79561815, 0.74997968, 0.1398584], "xyz": [3.9604646255049003, 4.61326900777856, 7.384922791956072], "label": "O", "properties": {}}, {"species": [{"element": "O", "occu": 1}], "abc": [0.2028212, 0.24997253, 0.16001905], "xyz": [1.0096126991352001, 1.53762902675576, 8.44946266718451], "label": "O", "properties": {}}, {"species": [{"element": "O", "occu": 1}], "abc": [0.29968885, 0.2499939, 0.06051625], "xyz": [1.4918049432171, 1.5377604777287999, 3.1954307636059878], "label": "O", "properties": {}}, {"species": [{"element": "O", "occu": 1}], "abc": [0.704657, 0.74999188, 0.03947651], "xyz": [3.507674028822, 4.613344052320961, 2.084472426725043], "label": "O", "properties": {}}, {"species": [{"element": "O", "occu": 1}], "abc": [0.61951359, 0.24997354, 0.13194378], "xyz": [3.08384324592714, 1.53763523945968, 6.9670082610614585], "label": "O", "properties": {}}, {"species": [{"element": "O", "occu": 1}], "abc": [0.11895705, 0.74998881, 0.0679415], "xyz": [0.5921498755143, 4.61332516816152, 3.5875051614324454], "label": "O", "properties": {}}, {"species": [{"element": "O", "occu": 1}], "abc": [0.87579307, 0.24998169, 0.03393347], "xyz": [4.35956303032722, 1.53768537167448, 1.79178409028816], "label": "O", "properties": {}}, {"species": [{"element": "O", "occu": 1}], "abc": [0.20414105, 0.45706065, 0.31833573], "xyz": [1.0161827091783, 2.8114678137948, 16.809035338392075], "label": "O", "properties": {}}, {"species": [{"element": "O", "occu": 1}], "abc": [0.79582572, 0.5429115, 0.18166607], "xyz": [3.96149787699912, 3.3395528755079997, 9.592487121746618], "label": "O", "properties": {}}, {"species": [{"element": "O", "occu": 1}], "abc": [0.70387892, 0.54290466, 0.28174982], "xyz": [3.50380086640632, 3.33951080135472, 14.87719484383863], "label": "O", "properties": {}}, {"species": [{"element": "O", "occu": 1}], "abc": [0.2961186, 0.45708703, 0.21825195], "xyz": [1.4740327885356002, 2.81163008223976, 11.524326032214418], "label": "O", "properties": {}}, {"species": [{"element": "O", "occu": 1}], "abc": [0.29612963, 0.04290198, 0.21825107], "xyz": [1.47408769417698, 0.26389831616016, 11.524279565702168], "label": "O", "properties": {}}, {"species": [{"element": "O", "occu": 1}], "abc": [0.70388297, 0.95709364, 0.28174959], "xyz": [3.5038210266826204, 5.8872667416188795, 14.87718269918202], "label": "O", "properties": {}}, {"species": [{"element": "O", "occu": 1}], "abc": [0.79584522, 0.95705807, 0.18166632], "xyz": [3.9615949449961203, 5.88704794371944, 9.592500322460326], "label": "O", "properties": {}}, {"species": [{"element": "O", "occu": 1}], "abc": [0.20415476, 0.04292072, 0.3183348], "xyz": [1.01625095544696, 0.26401358949824, 16.808986231737084], "label": "O", "properties": {}}, {"species": [{"element": "O", "occu": 1}], "abc": [0.79714473, 0.74999475, 0.33998305], "xyz": [3.96806370565158, 4.613361706242, 17.952075633810633], "label": "O", "properties": {}}, {"species": [{"element": "O", "occu": 1}], "abc": [0.20435225, 0.24998801, 0.3601446], "xyz": [1.0172340302535001, 1.53772424720792, 19.016663031608417], "label": "O", "properties": {}}, {"species": [{"element": "O", "occu": 1}], "abc": [0.29684212, 0.24999634, 0.26005565], "xyz": [1.47763435967352, 1.5377754866372801, 13.731680734671292], "label": "O", "properties": {}}, {"species": [{"element": "O", "occu": 1}], "abc": [0.70316217, 0.74999567, 0.23994529], "xyz": [3.5002329952858204, 4.6133673653386404, 12.66979631501225], "label": "O", "properties": {}}, {"species": [{"element": "O", "occu": 1}], "abc": [0.6209338, 0.24999861, 0.33211771], "xyz": [3.0909128325948, 1.5377894498431202, 17.53676322760204], "label": "O", "properties": {}}, {"species": [{"element": "O", "occu": 1}], "abc": [0.37904133, 0.74998456, 0.16788269], "xyz": [1.8868093683751803, 4.61329902559552, 8.864685308539894], "label": "O", "properties": {}}, {"species": [{"element": "O", "occu": 1}], "abc": [0.12034809, 0.74999622, 0.26792719], "xyz": [0.5990742584141401, 4.61337074849424, 14.147320518579827], "label": "O", "properties": {}}, {"species": [{"element": "O", "occu": 1}], "abc": [0.87966241, 0.25000113, 0.23207316], "xyz": [4.37882400896886, 1.53780495084696, 12.254125377419363], "label": "O", "properties": {}}, {"species": [{"element": "O", "occu": 1}], "abc": [0.79748965, 0.54294329, 0.38176606], "xyz": [3.9697806642939004, 3.33974842190168, 20.15833784520107], "label": "O", "properties": {}}, {"species": [{"element": "O", "occu": 1}], "abc": [0.71260809, 0.54188801, 0.48117424], "xyz": [3.5472533303741405, 3.33325719200792, 25.407373542655577], "label": "O", "properties": {}}, {"species": [{"element": "O", "occu": 1}], "abc": [0.29867096, 0.45600653, 0.41842547], "xyz": [1.48673804355216, 2.80498371928376, 22.094059349584523], "label": "O", "properties": {}}, {"species": [{"element": "O", "occu": 1}], "abc": [0.29865998, 0.04398447, 0.41842628], "xyz": [1.48668338680308, 0.27055691998824, 22.09410211989693], "label": "O", "properties": {}}, {"species": [{"element": "O", "occu": 1}], "abc": [0.71260986, 0.95810226, 0.48117541], "xyz": [3.5472621411615606, 5.89347095689392, 25.40743532199573], "label": "O", "properties": {}}, {"species": [{"element": "O", "occu": 1}], "abc": [0.79748724, 0.95703051, 0.38176668], "xyz": [3.9697686676850408, 5.88687841686792, 20.158370582971067], "label": "O", "properties": {}}, {"species": [{"element": "O", "occu": 1}], "abc": [0.29531609, 0.24999121, 0.46052564], "xyz": [1.47003801734214, 1.53774393102232, 24.317068514412842], "label": "O", "properties": {}}, {"species": [{"element": "O", "occu": 1}], "abc": [0.70034408, 0.74999887, 0.43948752], "xyz": [3.4862049772516803, 4.61338704915304, 23.206195718156724], "label": "O", "properties": {}}, {"species": [{"element": "O", "occu": 1}], "abc": [0.3804725, 0.74999873, 0.36805994], "xyz": [1.893933512235, 4.613386187986159, 19.43461558055851], "label": "O", "properties": {}}, {"species": [{"element": "O", "occu": 1}], "abc": [0.12423587, 0.74998948, 0.46607564], "xyz": [0.61842702853602, 4.61332928946016, 24.610124358719343], "label": "O", "properties": {}}, {"species": [{"element": "O", "occu": 1}], "abc": [0.88103461, 0.24999094, 0.43205993], "xyz": [4.385654609250061, 1.53774227020048, 22.81399776164996], "label": "O", "properties": {}}, {"species": [{"element": "O", "occu": 1}], "abc": [0.2974841, 0.5429144, 0.61825209], "xyz": [1.4808300372486, 3.3395707139648003, 32.6454753566141], "label": "O", "properties": {}}, {"species": [{"element": "O", "occu": 1}], "abc": [0.79880037, 0.45596689, 0.58157846], "xyz": [3.9763052266030203, 2.80473988603288, 30.709002995634965], "label": "O", "properties": {}}, {"species": [{"element": "O", "occu": 1}], "abc": [0.21265579, 0.54186011, 0.51884621], "xyz": [1.05856777362834, 3.33308557375112, 27.396561105725695], "label": "O", "properties": {}}, {"species": [{"element": "O", "occu": 1}], "abc": [0.21266129, 0.95813822, 0.51884606], "xyz": [1.0585951517813401, 5.8936921537582405, 27.39655318529747], "label": "O", "properties": {}}, {"species": [{"element": "O", "occu": 1}], "abc": [0.79878259, 0.04401627, 0.58157698], "xyz": [3.97621672050114, 0.27075252789384, 30.708924847409815], "label": "O", "properties": {}}, {"species": [{"element": "O", "occu": 1}], "abc": [0.29747309, 0.95704966, 0.61825272], "xyz": [1.48077523116414, 5.88699621219472, 32.645508622412635], "label": "O", "properties": {}}, {"species": [{"element": "O", "occu": 1}], "abc": [0.70416102, 0.24999692, 0.63986602], "xyz": [3.5052051167629203, 1.53777905432864, 33.78675256470988], "label": "O", "properties": {}}, {"species": [{"element": "O", "occu": 1}], "abc": [0.29699729, 0.74997207, 0.66003721], "xyz": [1.4784067720373402, 4.61322219720744, 34.85184898202823], "label": "O", "properties": {}}, {"species": [{"element": "O", "occu": 1}], "abc": [0.20027181, 0.75000049, 0.5605256], "xyz": [0.9969222283212601, 4.6133970140840805, 29.597351885298647], "label": "O", "properties": {}}, {"species": [{"element": "O", "occu": 1}], "abc": [0.79547517, 0.2499967, 0.53947152], "xyz": [3.9597528930838206, 1.5377777010664, 28.485636355479443], "label": "O", "properties": {}}, {"species": [{"element": "O", "occu": 1}], "abc": [0.88045491, 0.74997076, 0.63195425], "xyz": [4.38276895192386, 4.61321413914592, 33.36898852195153], "label": "O", "properties": {}}, {"species": [{"element": "O", "occu": 1}], "abc": [0.38119726, 0.2499988, 0.56793783], "xyz": [1.89754125590196, 1.5377906185696, 29.988738789955217], "label": "O", "properties": {}}, {"species": [{"element": "O", "occu": 1}], "abc": [0.62428756, 0.74999812, 0.53397758], "xyz": [3.10760733339576, 4.61338243575904, 28.19554063921471], "label": "O", "properties": {}}, {"species": [{"element": "O", "occu": 1}], "abc": [0.29595772, 0.54292423, 0.8183309], "xyz": [1.47323195267112, 3.33963118018216, 43.21020771560325], "label": "O", "properties": {}}, {"species": [{"element": "O", "occu": 1}], "abc": [0.70402564, 0.45707069, 0.68167197], "xyz": [3.5045312159714403, 2.81152957176248, 35.99422607359012], "label": "O", "properties": {}}, {"species": [{"element": "O", "occu": 1}], "abc": [0.79622559, 0.45707654, 0.78173098], "xyz": [3.9634883682791404, 2.81156555623568, 41.27762745305363], "label": "O", "properties": {}}, {"species": [{"element": "O", "occu": 1}], "abc": [0.203767, 0.54290447, 0.71826951], "xyz": [1.014320745882, 3.3395096326282396, 37.92668066534524], "label": "O", "properties": {}}, {"species": [{"element": "O", "occu": 1}], "abc": [0.2037602, 0.95707526, 0.71826909], "xyz": [1.0142868965292, 5.88715368270992, 37.92665848814621], "label": "O", "properties": {}}, {"species": [{"element": "O", "occu": 1}], "abc": [0.79621971, 0.0429028, 0.78173131], "xyz": [3.9634590985446603, 0.26390336013759996, 41.277644877995726], "label": "O", "properties": {}}, {"species": [{"element": "O", "occu": 1}], "abc": [0.70404294, 0.04291669, 0.68167066], "xyz": [3.5046173327072405, 0.26398880019448, 35.99415690185029], "label": "O", "properties": {}}, {"species": [{"element": "O", "occu": 1}], "abc": [0.295967, 0.95707768, 0.81833108], "xyz": [1.473278147082, 5.88716856859456, 43.210217220117116], "label": "O", "properties": {}}, {"species": [{"element": "O", "occu": 1}], "abc": [0.70293792, 0.25000048, 0.83995825], "xyz": [3.4991167133203205, 1.53780095257216, 44.35219353801085], "label": "O", "properties": {}}, {"species": [{"element": "O", "occu": 1}], "abc": [0.29582831, 0.75000638, 0.86013534], "xyz": [1.47258776962026, 4.61343324460496, 45.41760149217269], "label": "O", "properties": {}}, {"species": [{"element": "O", "occu": 1}], "abc": [0.20326337, 0.74999109, 0.76006989], "xyz": [1.01181375330102, 4.6133391928792795, 40.13386006232407], "label": "O", "properties": {}}, {"species": [{"element": "O", "occu": 1}], "abc": [0.79671463, 0.24998592, 0.73993025], "xyz": [3.96592273408698, 1.53771139121664, 39.07042957507561], "label": "O", "properties": {}}, {"species": [{"element": "O", "occu": 1}], "abc": [0.87922962, 0.75000053, 0.83210851], "xyz": [4.37666964699852, 4.61339726013176, 43.937704856337604], "label": "O", "properties": {}}, {"species": [{"element": "O", "occu": 1}], "abc": [0.12075051, 0.24999756, 0.66788915], "xyz": [0.6010774432014601, 1.53778299109152, 35.2664538299821], "label": "O", "properties": {}}, {"species": [{"element": "O", "occu": 1}], "abc": [0.37966067, 0.24999328, 0.76792631], "xyz": [1.8898923475168201, 1.53775666398976, 40.54870146706758], "label": "O", "properties": {}}, {"species": [{"element": "O", "occu": 1}], "abc": [0.6203269, 0.74999319, 0.73207301], "xyz": [3.0878917778574, 4.61335211038248, 38.65554487199114], "label": "O", "properties": {}}, {"species": [{"element": "O", "occu": 1}], "abc": [0.70251045, 0.45705813, 0.8817447], "xyz": [3.4969888334907004, 2.81145231279096, 46.55863739122191], "label": "O", "properties": {}}, {"species": [{"element": "O", "occu": 1}], "abc": [0.78729682, 0.45814544, 0.98116052], "xyz": [3.9190423262497203, 2.81814056536448, 51.80807650248731], "label": "O", "properties": {}}, {"species": [{"element": "O", "occu": 1}], "abc": [0.20128544, 0.544064, 0.91841395], "xyz": [1.0019679223622402, 3.346642124288, 48.49487847569688], "label": "O", "properties": {}}, {"species": [{"element": "O", "occu": 1}], "abc": [0.20121798, 0.95602887, 0.91842295], "xyz": [1.00163211687108, 5.88071713691304, 48.49535370139035], "label": "O", "properties": {}}, {"species": [{"element": "O", "occu": 1}], "abc": [0.78737168, 0.04188336, 0.98115033], "xyz": [3.9194149678012806, 0.25763258896512004, 51.807538441396595], "label": "O", "properties": {}}, {"species": [{"element": "O", "occu": 1}], "abc": [0.70249351, 0.04296598, 0.88174338], "xyz": [3.4969045087794606, 0.26429199244816, 46.558567691453526], "label": "O", "properties": {}}, {"species": [{"element": "O", "occu": 1}], "abc": [0.20454909, 0.7499935, 0.96052032], "xyz": [1.0182138694601401, 4.613354017252, 50.718215018225145], "label": "O", "properties": {}}, {"species": [{"element": "O", "occu": 1}], "abc": [0.79971545, 0.25014332, 0.93947429], "xyz": [3.9808603539207, 1.53867958883744, 49.60692455138732], "label": "O", "properties": {}}, {"species": [{"element": "O", "occu": 1}], "abc": [0.11952027, 0.25000052, 0.86804155], "xyz": [0.59495349793842, 1.53780119861984, 45.83507195105819], "label": "O", "properties": {}}, {"species": [{"element": "O", "occu": 1}], "abc": [0.37569906, 0.25000825, 0.96602249], "xyz": [1.87017206302476, 1.537848747334, 51.00874530198512], "label": "O", "properties": {}}, {"species": [{"element": "O", "occu": 1}], "abc": [0.6188833, 0.75006128, 0.9320577], "xyz": [3.0807057593718006, 4.6137709450457605, 49.215307426283694], "label": "O", "properties": {}}]}, "formula": "(Li3PO4)20.0", "bandgap": 5.7212}