{"miller": "001_0.00", "final_energy": -804.74471332, "sigma": 0.009885009765688057, "incar_parameters": {"SYSTEM": "unknown system", "LCOMPAT": false, "PREC": "normal", "ENMAX": 520.0, "ENAUG": 628.945, "EDIFF": 1e-05, "IALGO": 38, "IWAVPR": 11, "NBANDS": 369, "NBANDSLOW": -1, "NBANDSHIGH": -1, "NELECT": 608.0, "TURBO": 0, "IRESTART": 0, "NREBOOT": 0, "NMIN": 0, "EREF": 0.0, "ISMEAR": 0, "SIGMA": 0.05, "KSPACING": 0.5, "KGAMMA": true, "KBLOWUP": true, "LREAL": true, "ROPT": [-0.0005, -0.0005, -0.0005], "LMAXPAW": -100, "LMAXMIX": 2, "NLSPLINE": false, "ISTART": 0, "ICHARG": 2, "INIWAV": 1, "ISPIN": 1, "LNONCOLLINEAR": false, "MAGMOM": [0.6, 0.6, 0.6, 0.6, 0.6, 0.6, 0.6, 0.6, 0.6, 0.6, 0.6, 0.6, 0.6, 0.6, 0.6, 0.6, 0.6, 0.6, 0.6, 0.6, 0.6, 0.6, 0.6, 0.6, 0.6, 0.6, 0.6, 0.6, 0.6, 0.6, 0.6, 0.6, 0.6, 0.6, 0.6, 0.6, 0.6, 0.6, 0.6, 0.6, 0.6, 0.6, 0.6, 0.6, 0.6, 0.6, 0.6, 0.6, 0.6, 0.6, 0.6, 0.6, 0.6, 0.6, 0.6, 0.6, 0.6, 0.6, 0.6, 0.6, 0.6, 0.6, 0.6, 0.6, 0.6, 0.6, 0.6, 0.6, 0.6, 0.6, 0.6, 0.6, 0.6, 0.6, 0.6, 0.6, 0.6, 0.6, 0.6, 0.6, 0.6, 0.6, 0.6, 0.6, 0.6, 0.6, 0.6, 0.6, 0.6, 0.6, 0.6, 0.6, 0.6, 0.6, 0.6, 0.6, 0.6, 0.6, 0.6, 0.6, 0.6, 0.6, 0.6, 0.6, 0.6, 0.6, 0.6, 0.6, 0.6, 0.6, 0.6, 0.6, 0.6, 0.6, 0.6, 0.6, 0.6, 0.6, 0.6, 0.6, 0.6, 0.6, 0.6, 0.6, 0.6, 0.6, 0.6, 0.6], "NUPDOWN": -1.0, "LSORBIT": false, "SAXIS": [0.0, 0.0, 1.0], "LSPIRAL": false, "QSPIRAL": [0.0, 0.0, 0.0], "LZEROZ": false, "LASPH": false, "LMETAGGA": false, "NELM": 100, "NELMDL": -5, "NELMIN": 6, "ENINI": 520.0, "LDIAG": true, "LSUBROT": false, "WEIMIN": 0.001, "EBREAK": 1e-08, "DEPER": 0.3, "NRMM": 4, "TIME": 0.4, "AMIX": 0.4, "BMIX": 1.0, "AMIN": 0.1, "AMIX_MAG": 1.6, "BMIX_MAG": 1.0, "IMIX": 4, "MIXFIRST": false, "MAXMIX": -45, "WC": 100.0, "INIMIX": 1, "MIXPRE": 1, "MREMOVE": 5, "LDIPOL": false, "LMONO": false, "IDIPOL": 0, "EPSILON": 1.0, "DIPOL": [-100.0, -100.0, -100.0], "EFIELD": 0.0, "NGX": 28, "NGY": 36, "NGZ": 240, "NGXF": 56, "NGYF": 72, "NGZF": 480, "ADDGRID": false, "NSW": 150, "IBRION": 2, "MDALGO": 0, "ISIF": 3, "PSTRESS": 0.0, "EDIFFG": -0.01, "NFREE": 1, "POTIM": 0.5, "SMASS": -3.0, "SCALEE": 1.0, "TEBEG": 0.0001, "TEEND": 0.0001, "NBLOCK": 1, "KBLOCK": 150, "NPACO": 256, "APACO": 10.0, "ISYM": 0, "SYMPREC": 1e-05, "LORBIT": 11, "RWIGS": [-1.0, -1.0, -1.0], "NEDOS": 301, "EMIN": 10.0, "EMAX": -10.0, "EFERMI": 0.0, "NWRITE": 2, "LWAVE": false, "LDOWNSAMPLE": false, "LCHARG": false, "LPARD": false, "LVTOT": false, "LVHAR": false, "LELF": false, "LOPTICS": false, "STM": [0.0, 0.0, 0.0, 0.0, 0.0, 0.0, 0.0], "NPAR": 1, "NSIM": 4, "NBLK": -1, "LPLANE": true, "LSCALAPACK": true, "LSCAAWARE": false, "LSCALU": false, "LASYNC": false, "LORBITALREAL": false, "IDIOT": 3, "PHON_NSTRUCT": -1, "LMUSIC": false, "POMASS": [7.01, 30.974, 16.0], "DARWINR": [0.0, 0.0, 0.0], "DARWINV": [1.0, 1.0, 1.0], "LCORR": true, "GGA_COMPAT": true, "LBERRY": false, "ICORELEVEL": 0, "LDAU": false, "I_CONSTRAINED_M": 0, "GGA": "--", "VOSKOWN": 0, "LHFCALC": false, "PRECFOCK": "", "LSYMGRAD": false, "LHFONE": false, "LRHFCALC": false, "LTHOMAS": false, "LMODELHF": false, "LFOCKACE": false, "ENCUT4O": -1.0, "EXXOEP": 0, "FOURORBIT": 0, "AEXX": 0.0, "HFALPHA": 0.0, "MCALPHA": 0.0, "ALDAX": 1.0, "AGGAX": 1.0, "ALDAC": 1.0, "AGGAC": 1.0, "NKREDX": 1, "NKREDY": 1, "NKREDZ": 1, "SHIFTRED": false, "ODDONLY": false, "EVENONLY": false, "LMAXFOCK": 0, "NMAXFOCKAE": 0, "LFOCKAEDFT": false, "HFSCREEN": 0.0, "HFSCREENC": 0.0, "NBANDSGWLOW": 0, "LUSE_VDW": false, "Zab_VDW": -0.8491, "PARAM1": 0.1234, "PARAM2": 1.0, "PARAM3": 0.0, "MODEL_GW": 0, "MODEL_EPS0": 6.07109497, "MODEL_ALPHA": 1.0, "LEPSILON": false, "LRPA": false, "LNABLA": false, "LVEL": false, "CSHIFT": 0.1, "OMEGAMAX": -1.0, "DEG_THRESHOLD": 0.002, "RTIME": -0.1, "WPLASMAI": 0.0, "DFIELD": [0.0, 0.0, 0.0], "WPLASMA": [0.0, 0.0, 0.0, 0.0, 0.0, 0.0, 0.0, 0.0, 0.0], "NUCIND": false, "MAGPOS": [0.0, 0.0, 0.0], "LNICSALL": true, "ORBITALMAG": false, "LMAGBLOCH": false, "LCHIMAG": false, "LGAUGE": true, "MAGATOM": 0, "MAGDIPOL": [0.0, 0.0, 0.0], "AVECCONST": [0.0, 0.0, 0.0], "LFINITE_TEMPERATURE": false, "LADDER": false, "LRPAFORCE": false, "LFXC": false, "LHARTREE": true, "IBSE": 0, "KPOINT": [-1, 0, 0, 0], "LTCTC": false, "LTCTE": false, "LTETE": false, "LTRIPLET": false, "LFXCEPS": false, "LFXHEG": false, "NATURALO": 2, "LHOLEGF": false, "L2ORDER": false, "LDMP1": false, "LMP2LT": false, "LSMP2LT": false, "LGWLF": false, "ENCUTGW": -2.0, "ENCUTGWSOFT": -2.0, "ENCUTLF": -1.0, "LESF_SPLINES": false, "LMAXMP2": -1, "SCISSOR": 0.0, "NOMEGA": 0, "NOMEGAR": 0, "NBANDSGW": -1, "NBANDSO": -1, "NBANDSV": -1, "NELMGW": 1, "NELMHF": 1, "DIM": 3, "IESPILON": 4, "ANTIRES": 0, "OMEGAMIN": -30.0, "OMEGATL": -200.0, "OMEGAGRID": 0, "LSELFENERGY": false, "LSPECTRAL": false, "LSPECTRALGW": false, "LSINGLES": false, "LFERMIGW": false, "ODDONLYGW": false, "EVENONLYGW": false, "NKREDLFX": 1, "NKREDLFY": 1, "NKREDLFZ": 1, "MAXMEM": 2800, "TELESCOPE": 0, "NTAUPAR": -1, "NOMEGAPAR": -1, "DAMP_NEWTON": 0.80000001, "LAMBDA": 1.0, "OFIELD_KAPPA": 0.0, "OFIELD_K": [0.0, 0.0, 0.0], "OFIELD_Q6_NEAR": 0.0, "OFIELD_Q6_FAR": 0.0, "OFIELD_A": 0.0, "KPOINTS_OPT_MODE": 1, "LKPOINTS_OPT": false, "@module": "pymatgen.io.vasp.inputs", "@class": "Incar"}, "relaxed_structures": {"@module": "pymatgen.core.structure", "@class": "Structure", "charge": 0, "lattice": {"matrix": [[4.977846, 0.0, 0.0], [0.0, 6.151192, 0.0], [0.0, 0.0, 42.29850385]], "a": 4.977846, "b": 6.151192, "c": 42.29850385, "alpha": 90.0, "beta": 90.0, "gamma": 90.0, "volume": 1295.166926985928}, "sites": [{"species": [{"element": "Li", "occu": 1}], "abc": [0.81930974, 0.49860774, 0.14641237], "xyz": [4.07839771202004, 3.0670319414260803, 6.193024196132624], "label": "Li", "properties": {}}, {"species": [{"element": "Li", "occu": 1}], "abc": [0.32228414, 0.50133549, 0.1039305], "xyz": [1.60428081716244, 3.08381085540408, 4.396104654382425], "label": "Li", "properties": {}}, {"species": [{"element": "Li", "occu": 1}], "abc": [0.72063428, 0.48750308, 0.02238503], "xyz": [3.58720646816088, 2.99872504567136, 0.9468532776373656], "label": "Li", "properties": {}}, {"species": [{"element": "Li", "occu": 1}], "abc": [0.72063243, 0.01248772, 0.02238522], "xyz": [3.58719725914578, 0.07681436336224, 0.9468613143530971], "label": "Li", "properties": {}}, {"species": [{"element": "Li", "occu": 1}], "abc": [0.3222749, 0.99865354, 0.10393006], "xyz": [1.6042348218654001, 6.14290966601968, 4.396086043040731], "label": "Li", "properties": {}}, {"species": [{"element": "Li", "occu": 1}], "abc": [0.81919202, 0.0012506, 0.1464068], "xyz": [4.077811719988921, 0.007692680715199999, 6.19278859346618], "label": "Li", "properties": {}}, {"species": [{"element": "Li", "occu": 1}], "abc": [0.21761268, 0.74962141, 0.16894356], "xyz": [1.08324240868728, 4.61106522022072, 7.146059823092706], "label": "Li", "properties": {}}, {"species": [{"element": "Li", "occu": 1}], "abc": [0.72110934, 0.24999625, 0.08222456], "xyz": [3.5895712436816405, 1.5377749330300001, 3.4779758677245565], "label": "Li", "properties": {}}, {"species": [{"element": "Li", "occu": 1}], "abc": [0.3186723, 0.74999728, 0.04451913], "xyz": [1.5863016338658003, 4.61337726875776, 1.8830925917036505], "label": "Li", "properties": {}}, {"species": [{"element": "Li", "occu": 1}], "abc": [0.82228697, 0.49866312, 0.39607035], "xyz": [4.09321790446662, 3.06737259443904, 16.75318322434585], "label": "Li", "properties": {}}, {"species": [{"element": "Li", "occu": 1}], "abc": [0.21559695, 0.50176794, 0.22863996], "xyz": [1.0732084151697001, 3.08647093838448, 9.671128228323846], "label": "Li", "properties": {}}, {"species": [{"element": "Li", "occu": 1}], "abc": [0.31927236, 0.50135688, 0.35359076], "xyz": [1.58928864013656, 3.08394242940096, 14.956360123184428], "label": "Li", "properties": {}}, {"species": [{"element": "Li", "occu": 1}], "abc": [0.71560347, 0.49822894, 0.27135857], "xyz": [3.5621638707256205, 3.06470186989648, 11.478061517875496], "label": "Li", "properties": {}}, {"species": [{"element": "Li", "occu": 1}], "abc": [0.71562076, 0.00181021, 0.27136076], "xyz": [3.56224993768296, 0.01113494927032, 11.478154151598925], "label": "Li", "properties": {}}, {"species": [{"element": "Li", "occu": 1}], "abc": [0.31931943, 0.99868682, 0.35358704], "xyz": [1.5895229473477803, 6.1431143776894395, 14.956202772750105], "label": "Li", "properties": {}}, {"species": [{"element": "Li", "occu": 1}], "abc": [0.2156146, 0.99819515, 0.22863854], "xyz": [1.0732962741516001, 6.1400900211188, 9.67106816444838], "label": "Li", "properties": {}}, {"species": [{"element": "Li", "occu": 1}], "abc": [0.82228366, 0.00134267, 0.39606948], "xyz": [4.093201427796361, 0.00825902096264, 16.753146424647497], "label": "Li", "properties": {}}, {"species": [{"element": "Li", "occu": 1}], "abc": [0.22111257, 0.74999941, 0.41777561], "xyz": [1.10066432212422, 4.61339037079672, 17.6712832480211], "label": "Li", "properties": {}}, {"species": [{"element": "Li", "occu": 1}], "abc": [0.81507462, 0.24986502, 0.20607593], "xyz": [4.0573159368685205, 1.5369677121038399, 8.716703518497331], "label": "Li", "properties": {}}, {"species": [{"element": "Li", "occu": 1}], "abc": [0.7175707, 0.25038758, 0.33105708], "xyz": [3.5719564387122005, 1.54018207899536, 14.003219172949759], "label": "Li", "properties": {}}, {"species": [{"element": "Li", "occu": 1}], "abc": [0.31507506, 0.75014668, 0.29392163], "xyz": [1.5683951271207601, 4.61429625684256, 12.432445198153276], "label": "Li", "properties": {}}, {"species": [{"element": "Li", "occu": 1}], "abc": [0.2206352, 0.51248986, 0.47761461], "xyz": [1.0982880477792, 3.1524235269131196, 20.20238341990125], "label": "Li", "properties": {}}, {"species": [{"element": "Li", "occu": 1}], "abc": [0.22063394, 0.98750982, 0.47761497], "xyz": [1.0982817756932401, 6.07436250470544, 20.20239864736264], "label": "Li", "properties": {}}, {"species": [{"element": "Li", "occu": 1}], "abc": [0.81867077, 0.2499984, 0.45548087], "xyz": [4.07521701776142, 1.5377881580928001, 19.26615933329635], "label": "Li", "properties": {}}, {"species": [{"element": "Li", "occu": 1}], "abc": [0.73068086, 0.50135734, 0.64659011], "xyz": [3.6372167962275603, 3.0839452589492797, 27.349794257206927], "label": "Li", "properties": {}}, {"species": [{"element": "Li", "occu": 1}], "abc": [0.22926746, 0.49806295, 0.60391997], "xyz": [1.1412581086911602, 3.0636808335364, 25.544911176136885], "label": "Li", "properties": {}}, {"species": [{"element": "Li", "occu": 1}], "abc": [0.82799068, 0.51273998, 0.52250271], "xyz": [4.1216100944752805, 3.15396206305616, 22.101082890570435], "label": "Li", "properties": {}}, {"species": [{"element": "Li", "occu": 1}], "abc": [0.82799097, 0.98725587, 0.52250264], "xyz": [4.121611538050621, 6.07280040949704, 22.101079929675166], "label": "Li", "properties": {}}, {"species": [{"element": "Li", "occu": 1}], "abc": [0.22926965, 0.00194128, 0.6039193], "xyz": [1.1412690101739, 0.011941186005760001, 25.54488283613931], "label": "Li", "properties": {}}, {"species": [{"element": "Li", "occu": 1}], "abc": [0.73071876, 0.99867394, 0.64659733], "xyz": [3.6374054565909604, 6.1430351503364795, 27.350099652404722], "label": "Li", "properties": {}}, {"species": [{"element": "Li", "occu": 1}], "abc": [0.33145752, 0.24999979, 0.66902816], "xyz": [1.6499444901019202, 1.53779670824968, 28.298890201518418], "label": "Li", "properties": {}}, {"species": [{"element": "Li", "occu": 1}], "abc": [0.82772421, 0.75000186, 0.58252191], "xyz": [4.12028364785166, 4.61340544121712, 24.639805252844354], "label": "Li", "properties": {}}, {"species": [{"element": "Li", "occu": 1}], "abc": [0.23083939, 0.2499982, 0.54482874], "xyz": [1.1490829341539401, 1.5377869278544, 23.045440556480653], "label": "Li", "properties": {}}, {"species": [{"element": "Li", "occu": 1}], "abc": [0.7292677, 0.5019364, 0.89608093], "xyz": [3.6301823033742, 3.0875071681887998, 37.902882667516586], "label": "Li", "properties": {}}, {"species": [{"element": "Li", "occu": 1}], "abc": [0.33719658, 0.49821439, 0.72854043], "xyz": [1.6785126469666802, 3.0646123700528802, 30.81617018323566], "label": "Li", "properties": {}}, {"species": [{"element": "Li", "occu": 1}], "abc": [0.23068244, 0.49864307, 0.8534093], "xyz": [1.14830166122424, 3.0672492630394403, 36.09793656167581], "label": "Li", "properties": {}}, {"species": [{"element": "Li", "occu": 1}], "abc": [0.83716676, 0.50186269, 0.77146139], "xyz": [4.16728720759896, 3.0870537638264794, 32.631662575041354], "label": "Li", "properties": {}}, {"species": [{"element": "Li", "occu": 1}], "abc": [0.83718062, 0.9981525, 0.77146641], "xyz": [4.16735620054452, 6.13982767278, 32.63187491353068], "label": "Li", "properties": {}}, {"species": [{"element": "Li", "occu": 1}], "abc": [0.23067743, 0.00135382, 0.85340892], "xyz": [1.1482767222157801, 0.00832760675344, 36.09792048824435], "label": "Li", "properties": {}}, {"species": [{"element": "Li", "occu": 1}], "abc": [0.33716618, 0.00185499, 0.72853994], "xyz": [1.6783613204482801, 0.01141039964808, 30.81614945696877], "label": "Li", "properties": {}}, {"species": [{"element": "Li", "occu": 1}], "abc": [0.72926654, 0.99806004, 0.89608089], "xyz": [3.6301765290728403, 6.13925893356768, 37.90288097557643], "label": "Li", "properties": {}}, {"species": [{"element": "Li", "occu": 1}], "abc": [0.32772344, 0.24999865, 0.9174787], "xyz": [1.63135681491024, 1.5377896958908, 38.807976324243], "label": "Li", "properties": {}}, {"species": [{"element": "Li", "occu": 1}], "abc": [0.73743217, 0.75000133, 0.70618589], "xyz": [3.6708237777058206, 4.61340218108536, 29.870606586980678], "label": "Li", "properties": {}}, {"species": [{"element": "Li", "occu": 1}], "abc": [0.83151556, 0.75002781, 0.83097267], "xyz": [4.139156404283761, 4.61356506464952, 35.14890068123978], "label": "Li", "properties": {}}, {"species": [{"element": "Li", "occu": 1}], "abc": [0.2375504, 0.2500259, 0.79380491], "xyz": [1.1824893084384, 1.5379573158728002, 33.576760041783906], "label": "Li", "properties": {}}, {"species": [{"element": "Li", "occu": 1}], "abc": [0.32798879, 0.48725142, 0.97749821], "xyz": [1.63267768634634, 2.99717703669264, 41.34671179905311], "label": "Li", "properties": {}}, {"species": [{"element": "Li", "occu": 1}], "abc": [0.32799, 0.01274089, 0.97749837], "xyz": [1.6326837095400002, 0.07837166064088, 41.34671856681373], "label": "Li", "properties": {}}, {"species": [{"element": "Li", "occu": 1}], "abc": [0.73086512, 0.75000438, 0.95516763], "xyz": [3.6381340141315204, 4.61342094222096, 40.40216167495038], "label": "Li", "properties": {}}, {"species": [{"element": "P", "occu": 1}], "abc": [0.32428695, 0.24990994, 0.16552026], "xyz": [1.6142504969097002, 1.53724402364848, 7.001259354863001], "label": "P", "properties": {}}, {"species": [{"element": "P", "occu": 1}], "abc": [0.82801316, 0.74998064, 0.08454037], "xyz": [4.121721996453361, 4.61327491292288, 3.5759311659254247], "label": "P", "properties": {}}, {"species": [{"element": "P", "occu": 1}], "abc": [0.2127176, 0.24999767, 0.0413133], "xyz": [1.0588754542896002, 1.53778366772264, 1.747490779106205], "label": "P", "properties": {}}, {"species": [{"element": "P", "occu": 1}], "abc": [0.32802102, 0.24999811, 0.41545682], "xyz": [1.63283812232292, 1.53778637424712, 17.573201900278757], "label": "P", "properties": {}}, {"species": [{"element": "P", "occu": 1}], "abc": [0.70980413, 0.74988053, 0.2096062], "xyz": [3.53329564930398, 4.61265911709176, 8.86602865768387], "label": "P", "properties": {}}, {"species": [{"element": "P", "occu": 1}], "abc": [0.82430544, 0.75007169, 0.33447626], "xyz": [4.10326553728224, 4.61383497895448, 14.147845371343603], "label": "P", "properties": {}}, {"species": [{"element": "P", "occu": 1}], "abc": [0.20980123, 0.25011077, 0.29039257], "xyz": [1.0443582135505802, 1.5384793675378399, 12.283171240156395], "label": "P", "properties": {}}, {"species": [{"element": "P", "occu": 1}], "abc": [0.71272233, 0.74999875, 0.45868935], "xyz": [3.54782199950118, 4.61338631101, 19.401873236929], "label": "P", "properties": {}}, {"species": [{"element": "P", "occu": 1}], "abc": [0.2259984, 0.75000707, 0.66553806], "xyz": [1.1249852314464, 4.61343748892744, 28.151264193231533], "label": "P", "properties": {}}, {"species": [{"element": "P", "occu": 1}], "abc": [0.72177348, 0.24999877, 0.58471796], "xyz": [3.5928772303240804, 1.53779043403384, 24.73269488222415], "label": "P", "properties": {}}, {"species": [{"element": "P", "occu": 1}], "abc": [0.33578585, 0.7500008, 0.54151804], "xyz": [1.6714902502791, 4.6133989209536, 22.905402899784455], "label": "P", "properties": {}}, {"species": [{"element": "P", "occu": 1}], "abc": [0.2217783, 0.7500009, 0.91528557], "xyz": [1.1039782235418, 4.6133995360728, 38.71521020649445], "label": "P", "properties": {}}, {"species": [{"element": "P", "occu": 1}], "abc": [0.84062969, 0.25002436, 0.70968529], "xyz": [4.18452513984774, 1.53794784303712, 30.01862597135337], "label": "P", "properties": {}}, {"species": [{"element": "P", "occu": 1}], "abc": [0.72599485, 0.2500048, 0.83446129], "xyz": [3.6138905600931, 1.5378275257216, 35.29646408774097], "label": "P", "properties": {}}, {"species": [{"element": "P", "occu": 1}], "abc": [0.34064969, 0.74999912, 0.79031411], "xyz": [1.69570169676774, 4.61338858695104, 33.42910442454433], "label": "P", "properties": {}}, {"species": [{"element": "P", "occu": 1}], "abc": [0.8357838, 0.24999705, 0.95848311], "xyz": [4.1604030456948005, 1.5377798539836, 40.54240151849498], "label": "P", "properties": {}}, {"species": [{"element": "O", "occu": 1}], "abc": [0.22084879, 0.45701461, 0.14805827], "xyz": [1.09935126590634, 2.81118461291512, 6.262643303619339], "label": "O", "properties": {}}, {"species": [{"element": "O", "occu": 1}], "abc": [0.72277382, 0.54383202, 0.10208289], "xyz": [3.5978567687917202, 3.34521517076784, 4.317953515684127], "label": "O", "properties": {}}, {"species": [{"element": "O", "occu": 1}], "abc": [0.31313061, 0.45857832, 0.02390756], "xyz": [1.55871595446606, 2.82080329335744, 1.0112540187041061], "label": "O", "properties": {}}, {"species": [{"element": "O", "occu": 1}], "abc": [0.31310947, 0.04141144, 0.02390644], "xyz": [1.5586107228016202, 0.25472971843648, 1.011206644379794], "label": "O", "properties": {}}, {"species": [{"element": "O", "occu": 1}], "abc": [0.72274092, 0.95614408, 0.10207845], "xyz": [3.5976929976583203, 5.88142581574336, 4.317765710327033], "label": "O", "properties": {}}, {"species": [{"element": "O", "occu": 1}], "abc": [0.22074273, 0.04289212, 0.14805356], "xyz": [1.0988233155595801, 0.26383766540704, 6.262444077666206], "label": "O", "properties": {}}, {"species": [{"element": "O", "occu": 1}], "abc": [0.81337304, 0.74990259, 0.17492178], "xyz": [4.048845733671841, 4.61279481238728, 7.398929584778854], "label": "O", "properties": {}}, {"species": [{"element": "O", "occu": 1}], "abc": [0.32095617, 0.2499973, 0.0758069], "xyz": [1.5976703870098201, 1.5377813917816001, 3.206518451506565], "label": "O", "properties": {}}, {"species": [{"element": "O", "occu": 1}], "abc": [0.72842317, 0.74997759, 0.04957486], "xyz": [3.6259783630918205, 4.613256151787279, 2.096942406573211], "label": "O", "properties": {}}, {"species": [{"element": "O", "occu": 1}], "abc": [0.63783033, 0.2499117, 0.16508522], "xyz": [3.1750211568691804, 1.5372548497463998, 6.982857813748097], "label": "O", "properties": {}}, {"species": [{"element": "O", "occu": 1}], "abc": [0.14121799, 0.74998886, 0.08529146], "xyz": [0.70296140664954, 4.61332547572112, 3.6077011491821214], "label": "O", "properties": {}}, {"species": [{"element": "O", "occu": 1}], "abc": [0.90023509, 0.2499951, 0.04212507], "xyz": [4.481231641816141, 1.5377678591592, 1.7818274355765196], "label": "O", "properties": {}}, {"species": [{"element": "O", "occu": 1}], "abc": [0.22277994, 0.45615793, 0.39791611], "xyz": [1.1089642332092402, 2.80591500975256, 16.831256110812024], "label": "O", "properties": {}}, {"species": [{"element": "O", "occu": 1}], "abc": [0.81320563, 0.54286063, 0.22710313], "xyz": [4.04801239247298, 3.3392399643709596, 9.606122618652051], "label": "O", "properties": {}}, {"species": [{"element": "O", "occu": 1}], "abc": [0.7208496, 0.54299544, 0.35194107], "xyz": [3.5882782979616, 3.34006920656448, 14.886580704368122], "label": "O", "properties": {}}, {"species": [{"element": "O", "occu": 1}], "abc": [0.31321424, 0.45713124, 0.27289759], "xyz": [1.55913225172704, 2.81190202643808, 11.543159761270724], "label": "O", "properties": {}}, {"species": [{"element": "O", "occu": 1}], "abc": [0.31318046, 0.04309919, 0.27288989], "xyz": [1.55896410008916, 0.26511139273448003, 11.542834062791078], "label": "O", "properties": {}}, {"species": [{"element": "O", "occu": 1}], "abc": [0.72080579, 0.95710457, 0.35194437], "xyz": [3.5880602185283403, 5.88733397414744, 14.886720289430826], "label": "O", "properties": {}}, {"species": [{"element": "O", "occu": 1}], "abc": [0.81320217, 0.95689301, 0.2271071], "xyz": [4.04799516912582, 5.8860326279679205, 9.606290543712335], "label": "O", "properties": {}}, {"species": [{"element": "O", "occu": 1}], "abc": [0.2227675, 0.04383535, 0.39791601], "xyz": [1.108902308805, 0.2696396542372, 16.831251880961638], "label": "O", "properties": {}}, {"species": [{"element": "O", "occu": 1}], "abc": [0.82096087, 0.75000135, 0.42419453], "xyz": [4.08661678288602, 4.6134023041092, 17.942793960353942], "label": "O", "properties": {}}, {"species": [{"element": "O", "occu": 1}], "abc": [0.22125974, 0.24995532, 0.20021808], "xyz": [1.1013969117200402, 1.53752316474144, 8.468925227719609], "label": "O", "properties": {}}, {"species": [{"element": "O", "occu": 1}], "abc": [0.3134043, 0.25007864, 0.32507596], "xyz": [1.5600783411378003, 1.5382817297388802, 13.750226745602447], "label": "O", "properties": {}}, {"species": [{"element": "O", "occu": 1}], "abc": [0.72126825, 0.75004117, 0.29978049], "xyz": [3.5903622731895006, 4.61364724457464, 12.680266210419887], "label": "O", "properties": {}}, {"species": [{"element": "O", "occu": 1}], "abc": [0.64122754, 0.25000348, 0.41470682], "xyz": [3.1919319450788404, 1.53781940614816, 17.541478022391257], "label": "O", "properties": {}}, {"species": [{"element": "O", "occu": 1}], "abc": [0.39635458, 0.74990434, 0.2098987], "xyz": [1.9729920606346802, 4.61280557697328, 8.878400970059996], "label": "O", "properties": {}}, {"species": [{"element": "O", "occu": 1}], "abc": [0.13785531, 0.75005205, 0.33491203], "xyz": [0.6862225034622601, 4.6137141695435995, 14.166277790366317], "label": "O", "properties": {}}, {"species": [{"element": "O", "occu": 1}], "abc": [0.89635558, 0.2501126, 0.29010347], "xyz": [4.461920038480681, 1.5384906242192, 12.270942742693359], "label": "O", "properties": {}}, {"species": [{"element": "O", "occu": 1}], "abc": [0.81310805, 0.54140933, 0.47609591], "xyz": [4.047526654260301, 3.3303127394213603, 20.138144682104254], "label": "O", "properties": {}}, {"species": [{"element": "O", "occu": 1}], "abc": [0.81311113, 0.95858751, 0.47609573], "xyz": [4.047541986025981, 5.8964558228119195, 20.138137068373563], "label": "O", "properties": {}}, {"species": [{"element": "O", "occu": 1}], "abc": [0.22843768, 0.24999968, 0.45042192], "xyz": [1.13712759163728, 1.53779603161856, 19.052173317244392], "label": "O", "properties": {}}, {"species": [{"element": "O", "occu": 1}], "abc": [0.40024569, 0.75000007, 0.45787541], "xyz": [1.99236140698374, 4.6133944305834405, 19.367444792705328], "label": "O", "properties": {}}, {"species": [{"element": "O", "occu": 1}], "abc": [0.32940989, 0.54289629, 0.64809072], "xyz": [1.63975170329694, 3.3394593158776797, 27.413267815069275], "label": "O", "properties": {}}, {"species": [{"element": "O", "occu": 1}], "abc": [0.82670408, 0.4561193, 0.6022605], "xyz": [4.11520559781168, 2.8056773892056, 25.474718077952925], "label": "O", "properties": {}}, {"species": [{"element": "O", "occu": 1}], "abc": [0.23576474, 0.54141141, 0.52408174], "xyz": [1.17360056795004, 3.3303255339007203, 22.1678734971047], "label": "O", "properties": {}}, {"species": [{"element": "O", "occu": 1}], "abc": [0.23575657, 0.95858333, 0.52408063], "xyz": [1.17355989894822, 5.8964301108293595, 22.16782654576543], "label": "O", "properties": {}}, {"species": [{"element": "O", "occu": 1}], "abc": [0.82670427, 0.04388346, 0.60226157], "xyz": [4.1152065436024206, 0.26993558808432, 25.474763337352048], "label": "O", "properties": {}}, {"species": [{"element": "O", "occu": 1}], "abc": [0.32940807, 0.9571185, 0.64809005], "xyz": [1.6397426436172202, 5.887419660252, 27.413239475071695], "label": "O", "properties": {}}, {"species": [{"element": "O", "occu": 1}], "abc": [0.73698278, 0.25001502, 0.67500982], "xyz": [3.66858678349188, 1.53789039090384, 28.551905470057807], "label": "O", "properties": {}}, {"species": [{"element": "O", "occu": 1}], "abc": [0.2275126, 0.7500072, 0.57600302], "xyz": [1.1325226858596003, 4.6134382885824, 24.36406595908163], "label": "O", "properties": {}}, {"species": [{"element": "O", "occu": 1}], "abc": [0.82068985, 0.2499937, 0.54973383], "xyz": [4.085267687063101, 1.5377592474904, 23.252918524730248], "label": "O", "properties": {}}, {"species": [{"element": "O", "occu": 1}], "abc": [0.91235813, 0.7500051, 0.66512852], "xyz": [4.541578267987981, 4.6134253710792, 28.133941263964804], "label": "O", "properties": {}}, {"species": [{"element": "O", "occu": 1}], "abc": [0.40845206, 0.25000559, 0.58544752], "xyz": [2.0332114530627603, 1.53783238516328, 24.763554178692953], "label": "O", "properties": {}}, {"species": [{"element": "O", "occu": 1}], "abc": [0.64829357, 0.75000426, 0.54236127], "xyz": [3.2271055542502203, 4.6134202040779195, 22.941070267185893], "label": "O", "properties": {}}, {"species": [{"element": "O", "occu": 1}], "abc": [0.32669537, 0.54388592, 0.89774077], "xyz": [1.6262392407730202, 3.34554672001664, 37.973091416146964], "label": "O", "properties": {}}, {"species": [{"element": "O", "occu": 1}], "abc": [0.73728372, 0.45704555, 0.72718076], "xyz": [3.6700848164671203, 2.8113749307956, 30.75865817650593], "label": "O", "properties": {}}, {"species": [{"element": "O", "occu": 1}], "abc": [0.82940238, 0.45711512, 0.85191039], "xyz": [4.12863731967348, 2.81180286922304, 36.03453491127001], "label": "O", "properties": {}}, {"species": [{"element": "O", "occu": 1}], "abc": [0.2373253, 0.54297018, 0.77281997], "xyz": [1.1813687953038001, 3.3399138274545597, 32.68912847640189], "label": "O", "properties": {}}, {"species": [{"element": "O", "occu": 1}], "abc": [0.23731308, 0.9570127, 0.77281811], "xyz": [1.1813079660256802, 5.8867688641384, 32.68904980118472], "label": "O", "properties": {}}, {"species": [{"element": "O", "occu": 1}], "abc": [0.82940945, 0.04289973, 0.85191113], "xyz": [4.1286725130447, 0.26388447597816, 36.03456621216285], "label": "O", "properties": {}}, {"species": [{"element": "O", "occu": 1}], "abc": [0.73730836, 0.0429934, 0.72718134], "xyz": [3.6702074705925605, 0.2644606581328, 30.758682709638162], "label": "O", "properties": {}}, {"species": [{"element": "O", "occu": 1}], "abc": [0.3267032, 0.95611427, 0.89774085], "xyz": [1.6262782173072003, 5.88124244870984, 37.973094800027276], "label": "O", "properties": {}}, {"species": [{"element": "O", "occu": 1}], "abc": [0.72750081, 0.24999157, 0.92399789], "xyz": [3.6213869970552603, 1.53774614545144, 39.08372830755688], "label": "O", "properties": {}}, {"species": [{"element": "O", "occu": 1}], "abc": [0.3289082, 0.7500085, 0.70023569], "xyz": [1.6372543677372, 4.6134462851319995, 29.618922029372406], "label": "O", "properties": {}}, {"species": [{"element": "O", "occu": 1}], "abc": [0.23702079, 0.75002662, 0.82498974], "xyz": [1.1798529914183402, 4.61355774473104, 34.8958316936005], "label": "O", "properties": {}}, {"species": [{"element": "O", "occu": 1}], "abc": [0.82890816, 0.24998733, 0.79976392], "xyz": [4.126177168623361, 1.53772006439736, 33.82881724921109], "label": "O", "properties": {}}, {"species": [{"element": "O", "occu": 1}], "abc": [0.90844842, 0.75000114, 0.91455497], "xyz": [4.522116333703321, 4.61340101235888, 38.68430691958164], "label": "O", "properties": {}}, {"species": [{"element": "O", "occu": 1}], "abc": [0.15406703, 0.25002228, 0.70996936], "xyz": [0.7669219490173801, 1.5379350485577599, 30.03064170734204], "label": "O", "properties": {}}, {"species": [{"element": "O", "occu": 1}], "abc": [0.41235396, 0.25000581, 0.83486937], "xyz": [2.05263451037016, 1.53783373842552, 35.31372526119208], "label": "O", "properties": {}}, {"species": [{"element": "O", "occu": 1}], "abc": [0.65408674, 0.74998783, 0.79003435], "xyz": [3.2559430623620402, 4.61331913999336, 33.41727099510725], "label": "O", "properties": {}}, {"species": [{"element": "O", "occu": 1}], "abc": [0.73575635, 0.45857632, 0.9759203], "xyz": [3.6624818038221, 2.82079099097344, 41.27996856684316], "label": "O", "properties": {}}, {"species": [{"element": "O", "occu": 1}], "abc": [0.73576056, 0.04141226, 0.97591941], "xyz": [3.6625027605537603, 0.25473476241392, 41.27993092117473], "label": "O", "properties": {}}, {"species": [{"element": "O", "occu": 1}], "abc": [0.32067764, 0.74999384, 0.95026904], "xyz": [1.59628390756344, 4.61335610865728, 40.194958646975806], "label": "O", "properties": {}}, {"species": [{"element": "O", "occu": 1}], "abc": [0.14828966, 0.24999572, 0.95763927], "xyz": [0.73816309087236, 1.53777167289824, 40.506708349006196], "label": "O", "properties": {}}]}, "formula": "(Li3PO4)16.0", "bandgap": 5.6686}