{"miller": "001_0.08", "final_energy": -1006.13501272, "sigma": 0.009023094997014572, "incar_parameters": {"SYSTEM": "unknown system", "LCOMPAT": false, "PREC": "normal", "ENMAX": 520.0, "ENAUG": 628.945, "EDIFF": 1e-05, "IALGO": 38, "IWAVPR": 11, "NBANDS": 461, "NBANDSLOW": -1, "NBANDSHIGH": -1, "NELECT": 760.0, "TURBO": 0, "IRESTART": 0, "NREBOOT": 0, "NMIN": 0, "EREF": 0.0, "ISMEAR": 0, "SIGMA": 0.05, "KSPACING": 0.5, "KGAMMA": true, "KBLOWUP": true, "LREAL": true, "ROPT": [-0.0005, -0.0005, -0.0005], "LMAXPAW": -100, "LMAXMIX": 2, "NLSPLINE": false, "ISTART": 0, "ICHARG": 2, "INIWAV": 1, "ISPIN": 1, "LNONCOLLINEAR": false, "MAGMOM": [0.6, 0.6, 0.6, 0.6, 0.6, 0.6, 0.6, 0.6, 0.6, 0.6, 0.6, 0.6, 0.6, 0.6, 0.6, 0.6, 0.6, 0.6, 0.6, 0.6, 0.6, 0.6, 0.6, 0.6, 0.6, 0.6, 0.6, 0.6, 0.6, 0.6, 0.6, 0.6, 0.6, 0.6, 0.6, 0.6, 0.6, 0.6, 0.6, 0.6, 0.6, 0.6, 0.6, 0.6, 0.6, 0.6, 0.6, 0.6, 0.6, 0.6, 0.6, 0.6, 0.6, 0.6, 0.6, 0.6, 0.6, 0.6, 0.6, 0.6, 0.6, 0.6, 0.6, 0.6, 0.6, 0.6, 0.6, 0.6, 0.6, 0.6, 0.6, 0.6, 0.6, 0.6, 0.6, 0.6, 0.6, 0.6, 0.6, 0.6, 0.6, 0.6, 0.6, 0.6, 0.6, 0.6, 0.6, 0.6, 0.6, 0.6, 0.6, 0.6, 0.6, 0.6, 0.6, 0.6, 0.6, 0.6, 0.6, 0.6, 0.6, 0.6, 0.6, 0.6, 0.6, 0.6, 0.6, 0.6, 0.6, 0.6, 0.6, 0.6, 0.6, 0.6, 0.6, 0.6, 0.6, 0.6, 0.6, 0.6, 0.6, 0.6, 0.6, 0.6, 0.6, 0.6, 0.6, 0.6, 0.6, 0.6, 0.6, 0.6, 0.6, 0.6, 0.6, 0.6, 0.6, 0.6, 0.6, 0.6, 0.6, 0.6, 0.6, 0.6, 0.6, 0.6, 0.6, 0.6, 0.6, 0.6, 0.6, 0.6, 0.6, 0.6, 0.6, 0.6, 0.6, 0.6, 0.6, 0.6], "NUPDOWN": -1.0, "LSORBIT": false, "SAXIS": [0.0, 0.0, 1.0], "LSPIRAL": false, "QSPIRAL": [0.0, 0.0, 0.0], "LZEROZ": false, "LASPH": false, "LMETAGGA": false, "NELM": 100, "NELMDL": -5, "NELMIN": 6, "ENINI": 520.0, "LDIAG": true, "LSUBROT": false, "WEIMIN": 0.001, "EBREAK": 1e-08, "DEPER": 0.3, "NRMM": 4, "TIME": 0.4, "AMIX": 0.4, "BMIX": 1.0, "AMIN": 0.1, "AMIX_MAG": 1.6, "BMIX_MAG": 1.0, "IMIX": 4, "MIXFIRST": false, "MAXMIX": -45, "WC": 100.0, "INIMIX": 1, "MIXPRE": 1, "MREMOVE": 5, "LDIPOL": false, "LMONO": false, "IDIPOL": 0, "EPSILON": 1.0, "DIPOL": [-100.0, -100.0, -100.0], "EFIELD": 0.0, "NGX": 28, "NGY": 36, "NGZ": 300, "NGXF": 56, "NGYF": 72, "NGZF": 600, "ADDGRID": false, "NSW": 150, "IBRION": 2, "MDALGO": 0, "ISIF": 3, "PSTRESS": 0.0, "EDIFFG": -0.01, "NFREE": 1, "POTIM": 0.5, "SMASS": -3.0, "SCALEE": 1.0, "TEBEG": 0.0001, "TEEND": 0.0001, "NBLOCK": 1, "KBLOCK": 150, "NPACO": 256, "APACO": 10.0, "ISYM": 0, "SYMPREC": 1e-05, "LORBIT": 11, "RWIGS": [-1.0, -1.0, -1.0], "NEDOS": 301, "EMIN": 10.0, "EMAX": -10.0, "EFERMI": 0.0, "NWRITE": 2, "LWAVE": false, "LDOWNSAMPLE": false, "LCHARG": false, "LPARD": false, "LVTOT": false, "LVHAR": false, "LELF": false, "LOPTICS": false, "STM": [0.0, 0.0, 0.0, 0.0, 0.0, 0.0, 0.0], "NPAR": 1, "NSIM": 4, "NBLK": -1, "LPLANE": true, "LSCALAPACK": true, "LSCAAWARE": false, "LSCALU": false, "LASYNC": false, "LORBITALREAL": false, "IDIOT": 3, "PHON_NSTRUCT": -1, "LMUSIC": false, "POMASS": [7.01, 30.974, 16.0], "DARWINR": [0.0, 0.0, 0.0], "DARWINV": [1.0, 1.0, 1.0], "LCORR": true, "GGA_COMPAT": true, "LBERRY": false, "ICORELEVEL": 0, "LDAU": false, "I_CONSTRAINED_M": 0, "GGA": "--", "VOSKOWN": 0, "LHFCALC": false, "PRECFOCK": "", "LSYMGRAD": false, "LHFONE": false, "LRHFCALC": false, "LTHOMAS": false, "LMODELHF": false, "LFOCKACE": false, "ENCUT4O": -1.0, "EXXOEP": 0, "FOURORBIT": 0, "AEXX": 0.0, "HFALPHA": 0.0, "MCALPHA": 0.0, "ALDAX": 1.0, "AGGAX": 1.0, "ALDAC": 1.0, "AGGAC": 1.0, "NKREDX": 1, "NKREDY": 1, "NKREDZ": 1, "SHIFTRED": false, "ODDONLY": false, "EVENONLY": false, "LMAXFOCK": 0, "NMAXFOCKAE": 0, "LFOCKAEDFT": false, "HFSCREEN": 0.0, "HFSCREENC": 0.0, "NBANDSGWLOW": 0, "LUSE_VDW": false, "Zab_VDW": -0.8491, "PARAM1": 0.1234, "PARAM2": 1.0, "PARAM3": 0.0, "MODEL_GW": 0, "MODEL_EPS0": 6.06320994, "MODEL_ALPHA": 1.0, "LEPSILON": false, "LRPA": false, "LNABLA": false, "LVEL": false, "CSHIFT": 0.1, "OMEGAMAX": -1.0, "DEG_THRESHOLD": 0.002, "RTIME": -0.1, "WPLASMAI": 0.0, "DFIELD": [0.0, 0.0, 0.0], "WPLASMA": [0.0, 0.0, 0.0, 0.0, 0.0, 0.0, 0.0, 0.0, 0.0], "NUCIND": false, "MAGPOS": [0.0, 0.0, 0.0], "LNICSALL": true, "ORBITALMAG": false, "LMAGBLOCH": false, "LCHIMAG": false, "LGAUGE": true, "MAGATOM": 0, "MAGDIPOL": [0.0, 0.0, 0.0], "AVECCONST": [0.0, 0.0, 0.0], "LFINITE_TEMPERATURE": false, "LADDER": false, "LRPAFORCE": false, "LFXC": false, "LHARTREE": true, "IBSE": 0, "KPOINT": [-1, 0, 0, 0], "LTCTC": false, "LTCTE": false, "LTETE": false, "LTRIPLET": false, "LFXCEPS": false, "LFXHEG": false, "NATURALO": 2, "LHOLEGF": false, "L2ORDER": false, "LDMP1": false, "LMP2LT": false, "LSMP2LT": false, "LGWLF": false, "ENCUTGW": -2.0, "ENCUTGWSOFT": -2.0, "ENCUTLF": -1.0, "LESF_SPLINES": false, "LMAXMP2": -1, "SCISSOR": 0.0, "NOMEGA": 0, "NOMEGAR": 0, "NBANDSGW": -1, "NBANDSO": -1, "NBANDSV": -1, "NELMGW": 1, "NELMHF": 1, "DIM": 3, "IESPILON": 4, "ANTIRES": 0, "OMEGAMIN": -30.0, "OMEGATL": -200.0, "OMEGAGRID": 0, "LSELFENERGY": false, "LSPECTRAL": false, "LSPECTRALGW": false, "LSINGLES": false, "LFERMIGW": false, "ODDONLYGW": false, "EVENONLYGW": false, "NKREDLFX": 1, "NKREDLFY": 1, "NKREDLFZ": 1, "MAXMEM": 2800, "TELESCOPE": 0, "NTAUPAR": -1, "NOMEGAPAR": -1, "DAMP_NEWTON": 0.80000001, "LAMBDA": 1.0, "OFIELD_KAPPA": 0.0, "OFIELD_K": [0.0, 0.0, 0.0], "OFIELD_Q6_NEAR": 0.0, "OFIELD_Q6_FAR": 0.0, "OFIELD_A": 0.0, "KPOINTS_OPT_MODE": 1, "LKPOINTS_OPT": false, "@module": "pymatgen.io.vasp.inputs", "@class": "Incar"}, "relaxed_structures": {"@module": "pymatgen.core.structure", "@class": "Structure", "charge": 0, "lattice": {"matrix": [[4.977846, 0.0, 0.0], [0.0, 6.151192, 0.0], [0.0, 0.0, 52.8044591]], "a": 4.977846, "b": 6.151192, "c": 52.8044591, "alpha": 90.0, "beta": 90.0, "gamma": 90.0, "volume": 1616.8559830444483}, "sites": [{"species": [{"element": "Li", "occu": 1}], "abc": [0.80259785, 0.4985625, 0.11689832], "xyz": [3.9952084972311, 3.0667536615, 6.172752557298712], "label": "Li", "properties": {}}, {"species": [{"element": "Li", "occu": 1}], "abc": [0.30202251, 0.50227905, 0.08279195], "xyz": [1.5034215433134603, 3.0896148741275997, 4.371784137584245], "label": "Li", "properties": {}}, {"species": [{"element": "Li", "occu": 1}], "abc": [0.69309874, 0.48703836, 0.01746651], "xyz": [3.4501387905140404, 2.99586646372512, 0.9223096129147411], "label": "Li", "properties": {}}, {"species": [{"element": "Li", "occu": 1}], "abc": [0.69310211, 0.01292004, 0.01746206], "xyz": [3.4501555658550602, 0.07947364668768, 0.9220746330717461], "label": "Li", "properties": {}}, {"species": [{"element": "Li", "occu": 1}], "abc": [0.30196263, 0.99769006, 0.08279165], "xyz": [1.5031234698949802, 6.13698311555152, 4.371768296246515], "label": "Li", "properties": {}}, {"species": [{"element": "Li", "occu": 1}], "abc": [0.80237223, 0.00059529, 0.11689202], "xyz": [3.9940853956165805, 0.00366174308568, 6.172419889206382], "label": "Li", "properties": {}}, {"species": [{"element": "Li", "occu": 1}], "abc": [0.20283761, 0.74995138, 0.13507595], "xyz": [1.00969438558806, 4.613094929044959, 7.132612477168645], "label": "Li", "properties": {}}, {"species": [{"element": "Li", "occu": 1}], "abc": [0.79701736, 0.24999103, 0.16466703], "xyz": [3.9674296774065603, 1.53774282380776, 8.695153450753473], "label": "Li", "properties": {}}, {"species": [{"element": "Li", "occu": 1}], "abc": [0.69883188, 0.2497452, 0.06580399], "xyz": [3.47867747853048, 1.5362306762784, 3.4747440985718097], "label": "Li", "properties": {}}, {"species": [{"element": "Li", "occu": 1}], "abc": [0.297068, 0.75001216, 0.03537996], "xyz": [1.4787587555280002, 4.61346879849472, 1.8682196507796363], "label": "Li", "properties": {}}, {"species": [{"element": "Li", "occu": 1}], "abc": [0.80269759, 0.49834784, 0.31723694], "xyz": [3.9957049875911403, 3.06543324662528, 16.751525023239157], "label": "Li", "properties": {}}, {"species": [{"element": "Li", "occu": 1}], "abc": [0.1972733, 0.50165792, 0.18276302], "xyz": [0.9819961073118002, 3.08579418424064, 9.650702414582483], "label": "Li", "properties": {}}, {"species": [{"element": "Li", "occu": 1}], "abc": [0.30272216, 0.50155502, 0.28283456], "xyz": [1.5069042932673602, 3.08516122658384, 14.934925955586497], "label": "Li", "properties": {}}, {"species": [{"element": "Li", "occu": 1}], "abc": [0.69727582, 0.49846199, 0.21716621], "xyz": [3.47093165148372, 3.06613540519208, 11.467344253847012], "label": "Li", "properties": {}}, {"species": [{"element": "Li", "occu": 1}], "abc": [0.69727048, 0.0015493, 0.21716549], "xyz": [3.4709050697860806, 0.0095300417656, 11.467306234636458], "label": "Li", "properties": {}}, {"species": [{"element": "Li", "occu": 1}], "abc": [0.30271666, 0.99846138, 0.28283441], "xyz": [1.5068769151143602, 6.14172765296496, 14.934918034917631], "label": "Li", "properties": {}}, {"species": [{"element": "Li", "occu": 1}], "abc": [0.19727306, 0.99831433, 0.18276609], "xyz": [0.98199491262876, 6.14082312018136, 9.650864524271919], "label": "Li", "properties": {}}, {"species": [{"element": "Li", "occu": 1}], "abc": [0.80269939, 0.00166449, 0.31723764], "xyz": [3.9957139477139405, 0.01023859757208, 16.751561986360525], "label": "Li", "properties": {}}, {"species": [{"element": "Li", "occu": 1}], "abc": [0.20295112, 0.75000427, 0.33533779], "xyz": [1.0102594208875202, 4.61342026558984, 17.70733061673939], "label": "Li", "properties": {}}, {"species": [{"element": "Li", "occu": 1}], "abc": [0.79712874, 0.25000385, 0.36492678], "xyz": [3.9679841098940405, 1.5378216820892001, 19.2697612290047], "label": "Li", "properties": {}}, {"species": [{"element": "Li", "occu": 1}], "abc": [0.70333147, 0.25001952, 0.26483608], "xyz": [3.5010757446136203, 1.53791807126784, 13.984525954564328], "label": "Li", "properties": {}}, {"species": [{"element": "Li", "occu": 1}], "abc": [0.29663734, 0.75001793, 0.23515991], "xyz": [1.4766149963696402, 4.6135042908725605, 12.41749184955468], "label": "Li", "properties": {}}, {"species": [{"element": "Li", "occu": 1}], "abc": [0.19757931, 0.50066603, 0.38311292], "xyz": [0.9835193779662601, 3.07969287840776, 20.230070514821573], "label": "Li", "properties": {}}, {"species": [{"element": "Li", "occu": 1}], "abc": [0.30690544, 0.51296356, 0.48253352], "xyz": [1.52772801688224, 3.15533734656352, 25.479921521219033], "label": "Li", "properties": {}}, {"species": [{"element": "Li", "occu": 1}], "abc": [0.69801517, 0.49769255, 0.41721012], "xyz": [3.4746120219238206, 3.0614024320196003, 22.030554717646094], "label": "Li", "properties": {}}, {"species": [{"element": "Li", "occu": 1}], "abc": [0.69801561, 0.00231224, 0.41721021], "xyz": [3.47461421217606, 0.01422303219008, 22.030559470047415], "label": "Li", "properties": {}}, {"species": [{"element": "Li", "occu": 1}], "abc": [0.3069058, 0.98704266, 0.4825335], "xyz": [1.5277298089068, 6.07148891385072, 25.47992046512985], "label": "Li", "properties": {}}, {"species": [{"element": "Li", "occu": 1}], "abc": [0.19758253, 0.9993328, 0.38311285], "xyz": [0.9835354066303801, 6.1470879246976, 20.230066818509435], "label": "Li", "properties": {}}, {"species": [{"element": "Li", "occu": 1}], "abc": [0.70292456, 0.25000223, 0.46462109], "xyz": [3.4990502092977604, 1.53781171715816, 24.53406534390242], "label": "Li", "properties": {}}, {"species": [{"element": "Li", "occu": 1}], "abc": [0.30107773, 0.75000182, 0.43418696], "xyz": [1.49871857396958, 4.61340519516944, 22.92700757107334], "label": "Li", "properties": {}}, {"species": [{"element": "Li", "occu": 1}], "abc": [0.69757753, 0.50066684, 0.61688674], "xyz": [3.4724335174003804, 3.0796978608732797, 32.57437063166233], "label": "Li", "properties": {}}, {"species": [{"element": "Li", "occu": 1}], "abc": [0.19801042, 0.49769638, 0.58278988], "xyz": [0.9856653771553201, 3.06142599108496, 30.77390438235391], "label": "Li", "properties": {}}, {"species": [{"element": "Li", "occu": 1}], "abc": [0.80690365, 0.51296418, 0.51746649], "xyz": [4.0166421065379, 3.15534116030256, 27.32453810682556], "label": "Li", "properties": {}}, {"species": [{"element": "Li", "occu": 1}], "abc": [0.80690353, 0.98704218, 0.51746604], "xyz": [4.016641509196381, 6.07148596127856, 27.32451434481896], "label": "Li", "properties": {}}, {"species": [{"element": "Li", "occu": 1}], "abc": [0.19801814, 0.0023154, 0.58279009], "xyz": [0.9857038061264402, 0.0142424699568, 30.773915471290323], "label": "Li", "properties": {}}, {"species": [{"element": "Li", "occu": 1}], "abc": [0.69758085, 0.99932946, 0.6168872], "xyz": [3.4724500438491006, 6.1470673797163204, 32.57439492171352], "label": "Li", "properties": {}}, {"species": [{"element": "Li", "occu": 1}], "abc": [0.29712359, 0.25000295, 0.63507337], "xyz": [1.47903547398714, 1.5378161460164, 33.534705791664166], "label": "Li", "properties": {}}, {"species": [{"element": "Li", "occu": 1}], "abc": [0.70294711, 0.75000093, 0.66466231], "xyz": [3.4991624597250603, 4.61339972060856, 35.09713376370652], "label": "Li", "properties": {}}, {"species": [{"element": "Li", "occu": 1}], "abc": [0.80117815, 0.75024502, 0.56580553], "xyz": [3.9881414492649006, 4.6149011650638405, 29.877054967438823], "label": "Li", "properties": {}}, {"species": [{"element": "Li", "occu": 1}], "abc": [0.20292426, 0.25000269, 0.53537912], "xyz": [1.01012571594396, 1.53781454670648, 28.270404845033994], "label": "Li", "properties": {}}, {"species": [{"element": "Li", "occu": 1}], "abc": [0.69729293, 0.50165497, 0.8172369], "xyz": [3.4710168224287803, 3.0857760382242403, 43.1537524610608], "label": "Li", "properties": {}}, {"species": [{"element": "Li", "occu": 1}], "abc": [0.30269517, 0.49834207, 0.68276243], "xyz": [1.5067699412038202, 3.06539775424744, 36.052900809951616], "label": "Li", "properties": {}}, {"species": [{"element": "Li", "occu": 1}], "abc": [0.19728723, 0.49840434, 0.78283497], "xyz": [0.9820654487065801, 3.06578078897328, 41.33717715541473], "label": "Li", "properties": {}}, {"species": [{"element": "Li", "occu": 1}], "abc": [0.80270652, 0.50154229, 0.71716585], "xyz": [3.99574943975592, 3.0850829219096796, 37.869554794241736], "label": "Li", "properties": {}}, {"species": [{"element": "Li", "occu": 1}], "abc": [0.8027689, 0.99843043, 0.71716606], "xyz": [3.9960599577894005, 6.14153727357256, 37.86956588317815], "label": "Li", "properties": {}}, {"species": [{"element": "Li", "occu": 1}], "abc": [0.19727482, 0.00155491, 0.78283458], "xyz": [0.98200367363772, 0.00956454995272, 41.33715656167568], "label": "Li", "properties": {}}, {"species": [{"element": "Li", "occu": 1}], "abc": [0.30269462, 0.00165383, 0.68276363], "xyz": [1.5067672033885202, 0.01017302586536, 36.052964175302534], "label": "Li", "properties": {}}, {"species": [{"element": "Li", "occu": 1}], "abc": [0.69729246, 0.99833951, 0.81723786], "xyz": [3.47101448284116, 6.14097800719592, 43.15380315334153], "label": "Li", "properties": {}}, {"species": [{"element": "Li", "occu": 1}], "abc": [0.29703976, 0.25000137, 0.83533711], "xyz": [1.47861818115696, 1.53780642713304, 44.1095242597072], "label": "Li", "properties": {}}, {"species": [{"element": "Li", "occu": 1}], "abc": [0.70286254, 0.75000263, 0.86492724], "xyz": [3.4987414832888404, 4.61341017763496, 45.67201506905589], "label": "Li", "properties": {}}, {"species": [{"element": "Li", "occu": 1}], "abc": [0.79661866, 0.7499877, 0.76483947], "xyz": [3.9654450102063605, 4.613318340338401, 40.38693451168068], "label": "Li", "properties": {}}, {"species": [{"element": "Li", "occu": 1}], "abc": [0.20333264, 0.24998335, 0.73516588], "xyz": [1.0121585686934402, 1.5376955826532, 38.82003664217551], "label": "Li", "properties": {}}, {"species": [{"element": "Li", "occu": 1}], "abc": [0.30241205, 0.49933386, 0.88311225], "xyz": [1.5053606134443, 3.07149844496112, 46.63226468583398], "label": "Li", "properties": {}}, {"species": [{"element": "Li", "occu": 1}], "abc": [0.19313873, 0.48711864, 0.98253613], "xyz": [0.9614148545755802, 2.99636028141888, 51.88228889085728], "label": "Li", "properties": {}}, {"species": [{"element": "Li", "occu": 1}], "abc": [0.80200013, 0.5023371, 0.91720781], "xyz": [3.9922331391199806, 3.0899719508232, 48.43266228934557], "label": "Li", "properties": {}}, {"species": [{"element": "Li", "occu": 1}], "abc": [0.80200396, 0.99770181, 0.91720933], "xyz": [3.99225220427016, 6.13705539205752, 48.43274255212341], "label": "Li", "properties": {}}, {"species": [{"element": "Li", "occu": 1}], "abc": [0.1930614, 0.01328607, 0.98251463], "xyz": [0.9610299177444, 0.08172516749544001, 51.881153594986635], "label": "Li", "properties": {}}, {"species": [{"element": "Li", "occu": 1}], "abc": [0.30241564, 0.00066913, 0.88311277], "xyz": [1.5053784839114401, 0.00411594710296, 46.63229214415271], "label": "Li", "properties": {}}, {"species": [{"element": "Li", "occu": 1}], "abc": [0.79709783, 0.750025, 0.96462026], "xyz": [3.96783024467418, 4.6135477798, 50.93625106620137], "label": "Li", "properties": {}}, {"species": [{"element": "Li", "occu": 1}], "abc": [0.1988534, 0.2502773, 0.93419151], "xyz": [0.9898616017764001, 1.5395037255416, 49.329477381362246], "label": "Li", "properties": {}}, {"species": [{"element": "P", "occu": 1}], "abc": [0.30649466, 0.24987679, 0.13214097], "xyz": [1.52568321730236, 1.5370401116336798, 6.977632445799327], "label": "P", "properties": {}}, {"species": [{"element": "P", "occu": 1}], "abc": [0.8058008, 0.74997348, 0.06735609], "xyz": [4.0111522890768, 4.6132308703881595, 3.556701899540919], "label": "P", "properties": {}}, {"species": [{"element": "P", "occu": 1}], "abc": [0.18839284, 0.25000454, 0.03298161], "xyz": [0.9377905450226401, 1.53782592641168, 1.741576076297151], "label": "P", "properties": {}}, {"species": [{"element": "P", "occu": 1}], "abc": [0.30700792, 0.25001041, 0.33238129], "xyz": [1.52823814654032, 1.5378620339087201, 17.55121423341024], "label": "P", "properties": {}}, {"species": [{"element": "P", "occu": 1}], "abc": [0.69297119, 0.74995503, 0.16761776], "xyz": [3.44950386625674, 4.61311738089576, 8.850965152353616], "label": "P", "properties": {}}, {"species": [{"element": "P", "occu": 1}], "abc": [0.80663013, 0.75002841, 0.26771773], "xyz": [4.01528056609998, 4.61356875536472, 14.136689924129843], "label": "P", "properties": {}}, {"species": [{"element": "P", "occu": 1}], "abc": [0.19336108, 0.2500215, 0.2322836], "xyz": [0.96252167863368, 1.5379302506280002, 12.265609855800761], "label": "P", "properties": {}}, {"species": [{"element": "P", "occu": 1}], "abc": [0.69343895, 0.75001079, 0.36785881], "xyz": [3.4518323035017002, 4.61346037136168, 19.42458548721967], "label": "P", "properties": {}}, {"species": [{"element": "P", "occu": 1}], "abc": [0.81163046, 0.7500038, 0.4670164], "xyz": [4.0401714387891605, 4.6134173745296, 24.66054839282924], "label": "P", "properties": {}}, {"species": [{"element": "P", "occu": 1}], "abc": [0.19417669, 0.25000354, 0.43264998], "xyz": [0.9665816596097402, 1.53781977521968, 22.84584817352582], "label": "P", "properties": {}}, {"species": [{"element": "P", "occu": 1}], "abc": [0.19343358, 0.75000931, 0.63214181], "xyz": [0.96288257246868, 4.6134512675975206, 33.379906351544975], "label": "P", "properties": {}}, {"species": [{"element": "P", "occu": 1}], "abc": [0.694169, 0.25002826, 0.56735088], "xyz": [3.4554663799740006, 1.53797183268592, 29.95865633830901], "label": "P", "properties": {}}, {"species": [{"element": "P", "occu": 1}], "abc": [0.31163367, 0.75000458, 0.5329848], "xyz": [1.55126441767482, 4.6134221724593605, 28.143974072521683], "label": "P", "properties": {}}, {"species": [{"element": "P", "occu": 1}], "abc": [0.1929837, 0.75000416, 0.83238113], "xyz": [0.9606431391102002, 4.61341958895872, 43.953435334696785], "label": "P", "properties": {}}, {"species": [{"element": "P", "occu": 1}], "abc": [0.80699955, 0.25000192, 0.66761922], "xyz": [4.0171194819693, 1.53780981028864, 35.2532717968639], "label": "P", "properties": {}}, {"species": [{"element": "P", "occu": 1}], "abc": [0.69334996, 0.2499883, 0.76771729], "xyz": [3.4513893249861605, 1.5377260310536, 40.538896240167844], "label": "P", "properties": {}}, {"species": [{"element": "P", "occu": 1}], "abc": [0.30661173, 0.74996817, 0.73228347], "xyz": [1.5262659737335802, 4.61319820755864, 38.66783254122108], "label": "P", "properties": {}}, {"species": [{"element": "P", "occu": 1}], "abc": [0.80655263, 0.25000312, 0.86785965], "xyz": [4.01489478303498, 1.5378171917190402, 45.82685939296532], "label": "P", "properties": {}}, {"species": [{"element": "P", "occu": 1}], "abc": [0.68850816, 0.25011514, 0.96700568], "xyz": [3.4272875902233606, 1.53850624824688, 51.06221187902769], "label": "P", "properties": {}}, {"species": [{"element": "P", "occu": 1}], "abc": [0.30586061, 0.75005912, 0.93264973], "xyz": [1.52252701404606, 4.61375765847104, 49.24806452241104], "label": "P", "properties": {}}, {"species": [{"element": "O", "occu": 1}], "abc": [0.2028356, 0.45699406, 0.11816835], "xyz": [1.0096843801176, 2.8110582059195197, 6.239815804489486], "label": "O", "properties": {}}, {"species": [{"element": "O", "occu": 1}], "abc": [0.70141539, 0.54399043, 0.08147712], "xyz": [3.49153779344994, 3.34618958109256, 4.3023552506257925], "label": "O", "properties": {}}, {"species": [{"element": "O", "occu": 1}], "abc": [0.28777512, 0.45815658, 0.01878883], "xyz": [1.4325002299915202, 2.81820908964336, 0.992134005271853], "label": "O", "properties": {}}, {"species": [{"element": "O", "occu": 1}], "abc": [0.2878123, 0.04191308, 0.01877834], "xyz": [1.4326853063058003, 0.25781540239135997, 0.9915800864958941], "label": "O", "properties": {}}, {"species": [{"element": "O", "occu": 1}], "abc": [0.70136636, 0.9559622, 0.08147686], "xyz": [3.49129372966056, 5.8803070369423995, 4.302341521466426], "label": "O", "properties": {}}, {"species": [{"element": "O", "occu": 1}], "abc": [0.20272823, 0.04278789, 0.11817126], "xyz": [1.0091499087925802, 0.26319652666488, 6.2399694654654665], "label": "O", "properties": {}}, {"species": [{"element": "O", "occu": 1}], "abc": [0.7959525, 0.74985265, 0.1398207], "xyz": [3.962128968315, 4.6124876218588, 7.38315643448337], "label": "O", "properties": {}}, {"species": [{"element": "O", "occu": 1}], "abc": [0.20397278, 0.2498867, 0.15995262], "xyz": [1.01534508703188, 1.5371010699463998, 8.446211580727843], "label": "O", "properties": {}}, {"species": [{"element": "O", "occu": 1}], "abc": [0.300228, 0.24999523, 0.06045634], "xyz": [1.494488748888, 1.5377686588141601, 3.192364332865694], "label": "O", "properties": {}}, {"species": [{"element": "O", "occu": 1}], "abc": [0.7050077, 0.75000341, 0.03938192], "xyz": [3.5094197594142003, 4.61341497556472, 2.0795409839194723], "label": "O", "properties": {}}, {"species": [{"element": "O", "occu": 1}], "abc": [0.62003849, 0.24983854, 0.13177644], "xyz": [3.08645611729254, 1.53680482853968, 6.958383636323604], "label": "O", "properties": {}}, {"species": [{"element": "O", "occu": 1}], "abc": [0.11909051, 0.75002535, 0.0678986], "xyz": [0.59281421884146, 4.6135499327172, 3.5853488466472605], "label": "O", "properties": {}}, {"species": [{"element": "O", "occu": 1}], "abc": [0.87619723, 0.24997782, 0.03389762], "xyz": [4.36157487656658, 1.53766156656144, 1.7899454888773423], "label": "O", "properties": {}}, {"species": [{"element": "O", "occu": 1}], "abc": [0.20375704, 0.45712215, 0.31836693], "xyz": [1.0142711665358402, 2.8118461121028, 16.811193533977562], "label": "O", "properties": {}}, {"species": [{"element": "O", "occu": 1}], "abc": [0.7962476, 0.54287236, 0.18163471], "xyz": [3.9635979306696005, 3.33931211785312, 9.591122615335362], "label": "O", "properties": {}}, {"species": [{"element": "O", "occu": 1}], "abc": [0.70366264, 0.5429887, 0.28175545], "xyz": [3.5027242578734405, 3.3400277475304, 14.877944135727097], "label": "O", "properties": {}}, {"species": [{"element": "O", "occu": 1}], "abc": [0.29630991, 0.45707216, 0.21824645], "xyz": [1.47498510025386, 2.81153861401472, 11.524385742745196], "label": "O", "properties": {}}, {"species": [{"element": "O", "occu": 1}], "abc": [0.29633484, 0.04298882, 0.21824634], "xyz": [1.47510919795464, 0.26443248567343997, 11.524379934254695], "label": "O", "properties": {}}, {"species": [{"element": "O", "occu": 1}], "abc": [0.70368358, 0.95707396, 0.28175369], "xyz": [3.5028284939686802, 5.88714568616032, 14.87785119987908], "label": "O", "properties": {}}, {"species": [{"element": "O", "occu": 1}], "abc": [0.79625275, 0.95707098, 0.18163087], "xyz": [3.9636235665765, 5.88712735560816, 9.590919846212417], "label": "O", "properties": {}}, {"species": [{"element": "O", "occu": 1}], "abc": [0.20374478, 0.04290158, 0.31836683], "xyz": [1.01421013814388, 0.26389585568336, 16.811188253531654], "label": "O", "properties": {}}, {"species": [{"element": "O", "occu": 1}], "abc": [0.79590229, 0.7500122, 0.34004464], "xyz": [3.9618790306673404, 4.6134690445424, 17.955873285054224], "label": "O", "properties": {}}, {"species": [{"element": "O", "occu": 1}], "abc": [0.20401602, 0.25001134, 0.36017809], "xyz": [1.01556032909292, 1.53786775451728, 19.01900922212112], "label": "O", "properties": {}}, {"species": [{"element": "O", "occu": 1}], "abc": [0.29720953, 0.25005459, 0.26005557], "xyz": [1.4794632700723802, 1.5381337935712802, 13.732093709792188], "label": "O", "properties": {}}, {"species": [{"element": "O", "occu": 1}], "abc": [0.70278342, 0.75005231, 0.23994572], "xyz": [3.4983476361133206, 4.61371576885352, 12.670203957960053], "label": "O", "properties": {}}, {"species": [{"element": "O", "occu": 1}], "abc": [0.62054194, 0.25001064, 0.33212919], "xyz": [3.0889622138612403, 1.53786344868288, 17.53790222927113], "label": "O", "properties": {}}, {"species": [{"element": "O", "occu": 1}], "abc": [0.37943335, 0.74998185, 0.16787141], "xyz": [1.8887607835641003, 4.613282355865199, 8.864359003404331], "label": "O", "properties": {}}, {"species": [{"element": "O", "occu": 1}], "abc": [0.12013533, 0.75005482, 0.26791376], "xyz": [0.5980151718991801, 4.61373120834544, 14.147041182247216], "label": "O", "properties": {}}, {"species": [{"element": "O", "occu": 1}], "abc": [0.87986447, 0.25004602, 0.23208651], "xyz": [4.3798298325316205, 1.5380810778558398, 12.255202624956741], "label": "O", "properties": {}}, {"species": [{"element": "O", "occu": 1}], "abc": [0.79718354, 0.5429254, 0.38183016], "xyz": [3.9682568958548403, 3.3396383770768, 20.162335066866454], "label": "O", "properties": {}}, {"species": [{"element": "O", "occu": 1}], "abc": [0.7122213, 0.54187201, 0.48121282], "xyz": [3.5453279493198, 3.33315877293592, 25.41018267208566], "label": "O", "properties": {}}, {"species": [{"element": "O", "occu": 1}], "abc": [0.29861666, 0.45596081, 0.41852747], "xyz": [1.48646774651436, 2.80470248678552, 22.10011667184148], "label": "O", "properties": {}}, {"species": [{"element": "O", "occu": 1}], "abc": [0.29861613, 0.04404499, 0.41852783], "xyz": [1.48646510825598, 0.27092919012808, 22.100135681446755], "label": "O", "properties": {}}, {"species": [{"element": "O", "occu": 1}], "abc": [0.71221456, 0.95813566, 0.48121277], "xyz": [3.5452943986377607, 5.89367640670672, 25.41018003186271], "label": "O", "properties": {}}, {"species": [{"element": "O", "occu": 1}], "abc": [0.79719445, 0.95709359, 0.38183012], "xyz": [3.9683112041547, 5.88726643405928, 20.162332954688093], "label": "O", "properties": {}}, {"species": [{"element": "O", "occu": 1}], "abc": [0.29489247, 0.25000649, 0.46062582], "xyz": [1.4679293022196203, 1.5378379212360802, 24.323097272593966], "label": "O", "properties": {}}, {"species": [{"element": "O", "occu": 1}], "abc": [0.69980013, 0.75000286, 0.43954142], "xyz": [3.48349727791998, 4.61341159240912, 23.209746935145922], "label": "O", "properties": {}}, {"species": [{"element": "O", "occu": 1}], "abc": [0.379899, 0.75001168, 0.36823137], "xyz": [1.891078717554, 4.61346584592256, 19.44425831650197], "label": "O", "properties": {}}, {"species": [{"element": "O", "occu": 1}], "abc": [0.12383876, 0.75000471, 0.4661012], "xyz": [0.61645027611096, 4.6134229721143205, 24.612221751860922], "label": "O", "properties": {}}, {"species": [{"element": "O", "occu": 1}], "abc": [0.88089002, 0.25000128, 0.43210623], "xyz": [4.38493486249692, 1.53780587352576, 22.817135748890195], "label": "O", "properties": {}}, {"species": [{"element": "O", "occu": 1}], "abc": [0.2971808, 0.54292547, 0.61817029], "xyz": [1.4793202565568002, 3.33963880766024, 32.64214779514014], "label": "O", "properties": {}}, {"species": [{"element": "O", "occu": 1}], "abc": [0.79861504, 0.45597246, 0.58147329], "xyz": [3.9753826824038407, 2.8047741481723203, 30.704382559547444], "label": "O", "properties": {}}, {"species": [{"element": "O", "occu": 1}], "abc": [0.21222522, 0.54187577, 0.51878782], "xyz": [1.05642446247612, 3.3331819014178397, 27.394310222768166], "label": "O", "properties": {}}, {"species": [{"element": "O", "occu": 1}], "abc": [0.21221657, 0.95813675, 0.51878828], "xyz": [1.05638140410822, 5.893683111506, 27.39433451281935], "label": "O", "properties": {}}, {"species": [{"element": "O", "occu": 1}], "abc": [0.79859477, 0.04405206, 0.58147136], "xyz": [3.97528178146542, 0.27097267905551997, 30.704280646941378], "label": "O", "properties": {}}, {"species": [{"element": "O", "occu": 1}], "abc": [0.29718747, 0.95709578, 0.61817048], "xyz": [1.4793534587896202, 5.88727990516976, 32.64215782798737], "label": "O", "properties": {}}, {"species": [{"element": "O", "occu": 1}], "abc": [0.70399899, 0.25000848, 0.63982273], "xyz": [3.5043985563755404, 1.53785016210816, 33.78549317753534], "label": "O", "properties": {}}, {"species": [{"element": "O", "occu": 1}], "abc": [0.29590002, 0.75000535, 0.65995628], "xyz": [1.4729447309569201, 4.6134269088772, 34.848634395048144], "label": "O", "properties": {}}, {"species": [{"element": "O", "occu": 1}], "abc": [0.19980384, 0.75001189, 0.56045926], "xyz": [0.9945927457286401, 4.61346713767288, 29.59474807188627], "label": "O", "properties": {}}, {"species": [{"element": "O", "occu": 1}], "abc": [0.79488173, 0.25000914, 0.53937405], "xyz": [3.95679884015358, 1.53785422189488, 28.48135496282636], "label": "O", "properties": {}}, {"species": [{"element": "O", "occu": 1}], "abc": [0.8798905, 0.75000899, 0.63176964], "xyz": [4.3799594058630005, 4.61344929921608, 33.36025411600173], "label": "O", "properties": {}}, {"species": [{"element": "O", "occu": 1}], "abc": [0.38088322, 0.25000107, 0.56789611], "xyz": [1.8959780131441202, 1.53780458177544, 29.9874469135441], "label": "O", "properties": {}}, {"species": [{"element": "O", "occu": 1}], "abc": [0.6238408, 0.75000865, 0.53389937], "xyz": [3.1053834309168002, 4.6134472078108, 28.192267446680766], "label": "O", "properties": {}}, {"species": [{"element": "O", "occu": 1}], "abc": [0.29624709, 0.54289432, 0.81836643], "xyz": [1.4746723919681402, 3.3394471980294402, 43.213396681748016], "label": "O", "properties": {}}, {"species": [{"element": "O", "occu": 1}], "abc": [0.70374462, 0.45710779, 0.68163334], "xyz": [3.5031323416885205, 2.81175778098568, 35.993279823226395], "label": "O", "properties": {}}, {"species": [{"element": "O", "occu": 1}], "abc": [0.79632674, 0.45702266, 0.78175509], "xyz": [3.9639918774020404, 2.81123413001072, 41.28015467612182], "label": "O", "properties": {}}, {"species": [{"element": "O", "occu": 1}], "abc": [0.20366223, 0.54292467, 0.71824787], "xyz": [1.0137992169565802, 3.33963388670664, 37.92669027507712], "label": "O", "properties": {}}, {"species": [{"element": "O", "occu": 1}], "abc": [0.20366442, 0.95700605, 0.71824504], "xyz": [1.0138101184393202, 5.8867279587116, 37.92654083845787], "label": "O", "properties": {}}, {"species": [{"element": "O", "occu": 1}], "abc": [0.796298, 0.04293441, 0.78175325], "xyz": [3.963848814108, 0.26409779931672, 41.28005751591707], "label": "O", "properties": {}}, {"species": [{"element": "O", "occu": 1}], "abc": [0.70373926, 0.04289404, 0.6816332], "xyz": [3.50310566043396, 0.26384947569568, 35.993272430602126], "label": "O", "properties": {}}, {"species": [{"element": "O", "occu": 1}], "abc": [0.29623685, 0.95711556, 0.81836623], "xyz": [1.4746214188251001, 5.8874015757475195, 43.21338612085619], "label": "O", "properties": {}}, {"species": [{"element": "O", "occu": 1}], "abc": [0.70407021, 0.25000063, 0.84004547], "xyz": [3.5047530785676604, 1.53780187525096, 44.358146662755274], "label": "O", "properties": {}}, {"species": [{"element": "O", "occu": 1}], "abc": [0.29597142, 0.75000699, 0.8601775], "xyz": [1.47330014916132, 4.61343699683208, 45.42120761749025], "label": "O", "properties": {}}, {"species": [{"element": "O", "occu": 1}], "abc": [0.20275636, 0.74995357, 0.76005509], "xyz": [1.00928993560056, 4.61310840015544, 40.13429791365182], "label": "O", "properties": {}}, {"species": [{"element": "O", "occu": 1}], "abc": [0.79718948, 0.24995002, 0.73994538], "xyz": [3.9682864642600806, 1.53749056342384, 39.07241555444396], "label": "O", "properties": {}}, {"species": [{"element": "O", "occu": 1}], "abc": [0.87944834, 0.74999354, 0.83212847], "xyz": [4.37775840147564, 4.61335426329968, 43.94009376006058], "label": "O", "properties": {}}, {"species": [{"element": "O", "occu": 1}], "abc": [0.12053245, 0.24999797, 0.667872], "xyz": [0.5999919741027, 1.53778551308024, 35.2666197080352], "label": "O", "properties": {}}, {"species": [{"element": "O", "occu": 1}], "abc": [0.37984311, 0.24996572, 0.76791598], "xyz": [1.8908005057410602, 1.53758713713824, 40.549387958146426], "label": "O", "properties": {}}, {"species": [{"element": "O", "occu": 1}], "abc": [0.62011415, 0.74994902, 0.73208639], "xyz": [3.0868327411209004, 4.61308041223184, 38.65742583842165], "label": "O", "properties": {}}, {"species": [{"element": "O", "occu": 1}], "abc": [0.70278757, 0.45708311, 0.88183045], "xyz": [3.4983682941742202, 2.81160596956712, 46.5645799301596], "label": "O", "properties": {}}, {"species": [{"element": "O", "occu": 1}], "abc": [0.78790351, 0.45820249, 0.98121174], "xyz": [3.9220623356394606, 2.8184914908680803, 51.81235519326984], "label": "O", "properties": {}}, {"species": [{"element": "O", "occu": 1}], "abc": [0.20142628, 0.54410879, 0.91852553], "xyz": [1.0026690021928801, 3.3469176361776802, 48.50224378119083], "label": "O", "properties": {}}, {"species": [{"element": "O", "occu": 1}], "abc": [0.20144864, 0.95602249, 0.91852836], "xyz": [1.00278030682944, 5.880677892308079, 48.50239321781008], "label": "O", "properties": {}}, {"species": [{"element": "O", "occu": 1}], "abc": [0.78784996, 0.04197408, 0.98120439], "xyz": [3.9217957719861603, 0.25819062510336, 51.81196708049546], "label": "O", "properties": {}}, {"species": [{"element": "O", "occu": 1}], "abc": [0.70280624, 0.04291849, 0.88183125], "xyz": [3.4984612305590406, 0.26399987234008, 46.564622173726875], "label": "O", "properties": {}}, {"species": [{"element": "O", "occu": 1}], "abc": [0.20515139, 0.7500287, 0.96062624], "xyz": [1.02121202610594, 4.6135705392104, 50.725349000466785], "label": "O", "properties": {}}, {"species": [{"element": "O", "occu": 1}], "abc": [0.8004034, 0.25008454, 0.93953381], "xyz": [3.9842848630764003, 1.53831802177168, 49.61157464321217], "label": "O", "properties": {}}, {"species": [{"element": "O", "occu": 1}], "abc": [0.12009006, 0.25001373, 0.86823078], "xyz": [0.59778982481076, 1.53788245586616, 45.8464567118711], "label": "O", "properties": {}}, {"species": [{"element": "O", "occu": 1}], "abc": [0.37633041, 0.25013617, 0.96609208], "xyz": [1.8733148260968602, 1.53863560781464, 51.01396972519393], "label": "O", "properties": {}}, {"species": [{"element": "O", "occu": 1}], "abc": [0.61915402, 0.75000125, 0.93210445], "xyz": [3.08205336184092, 4.61340168899, 49.219271306953], "label": "O", "properties": {}}]}, "formula": "(Li3PO4)20.0", "bandgap": 5.7294}