{"miller": "100_0.08", "final_energy": -460.31636872, "sigma": -0.00020997773242707824, "incar_parameters": {"SYSTEM": "unknown system", "LCOMPAT": false, "PREC": "accura", "ENMAX": 520.0, "ENAUG": 368.056, "EDIFF": 1e-05, "IALGO": 38, "IWAVPR": 11, "NBANDS": 420, "NBANDSLOW": -1, "NBANDSHIGH": -1, "NELECT": 700.0, "TURBO": 0, "IRESTART": 0, "NREBOOT": 0, "NMIN": 0, "EREF": 0.0, "ISMEAR": 0, "SIGMA": 0.05, "KSPACING": 0.5, "KGAMMA": true, "KBLOWUP": true, "LREAL": true, "ROPT": [-0.00025, -0.00025, -0.00025], "LMAXPAW": -100, "LMAXMIX": 2, "NLSPLINE": false, "ISTART": 0, "ICHARG": 2, "INIWAV": 1, "ISPIN": 1, "LNONCOLLINEAR": false, "MAGMOM": [0.6, 0.6, 0.6, 0.6, 0.6, 0.6, 0.6, 0.6, 0.6, 0.6, 0.6, 0.6, 0.6, 0.6, 0.6, 0.6, 0.6, 0.6, 0.6, 0.6, 0.6, 0.6, 0.6, 0.6, 0.6, 0.6, 0.6, 0.6, 0.6, 0.6, 0.6, 0.6, 0.6, 0.6, 0.6, 0.6, 0.6, 0.6, 0.6, 0.6, 0.6, 0.6, 0.6, 0.6, 0.6, 0.6, 0.6, 0.6, 0.6, 0.6, 0.6, 0.6, 0.6, 0.6, 0.6, 0.6, 0.6, 0.6, 0.6, 0.6, 0.6, 0.6, 0.6, 0.6, 0.6, 0.6, 0.6, 0.6, 0.6, 0.6, 0.6, 0.6, 0.6, 0.6, 0.6, 0.6, 0.6, 0.6, 0.6, 0.6, 0.6, 0.6, 0.6, 0.6, 0.6, 0.6, 0.6, 0.6, 0.6, 0.6, 0.6, 0.6, 0.6, 0.6, 0.6, 0.6, 0.6, 0.6, 0.6, 0.6, 0.6, 0.6, 0.6, 0.6, 0.6, 0.6, 0.6, 0.6, 0.6, 0.6, 0.6, 0.6], "NUPDOWN": -1.0, "LSORBIT": false, "SAXIS": [0.0, 0.0, 1.0], "LSPIRAL": false, "QSPIRAL": [0.0, 0.0, 0.0], "LZEROZ": false, "LASPH": false, "LMETAGGA": false, "NELM": 100, "NELMDL": -5, "NELMIN": 6, "ENINI": 520.0, "LDIAG": true, "LSUBROT": false, "WEIMIN": 0.001, "EBREAK": 1e-08, "DEPER": 0.3, "NRMM": 4, "TIME": 0.4, "AMIX": 0.4, "BMIX": 1.0, "AMIN": 0.1, "AMIX_MAG": 1.6, "BMIX_MAG": 1.0, "IMIX": 4, "MIXFIRST": false, "MAXMIX": -45, "WC": 100.0, "INIMIX": 1, "MIXPRE": 1, "MREMOVE": 5, "LDIPOL": false, "LMONO": false, "IDIPOL": 0, "EPSILON": 1.0, "DIPOL": [-100.0, -100.0, -100.0], "EFIELD": 0.0, "NGX": 54, "NGY": 54, "NGZ": 378, "NGXF": 108, "NGYF": 108, "NGZF": 756, "ADDGRID": false, "NSW": 150, "IBRION": 2, "MDALGO": 0, "ISIF": 3, "PSTRESS": 0.0, "EDIFFG": -0.01, "NFREE": 1, "POTIM": 0.5, "SMASS": -3.0, "SCALEE": 1.0, "TEBEG": 0.0001, "TEEND": 0.0001, "NBLOCK": 1, "KBLOCK": 150, "NPACO": 256, "APACO": 10.0, "ISYM": 0, "SYMPREC": 1e-05, "LORBIT": 11, "RWIGS": [-1.0, -1.0, -1.0], "NEDOS": 301, "EMIN": 10.0, "EMAX": -10.0, "EFERMI": 0.0, "NWRITE": 2, "LWAVE": false, "LDOWNSAMPLE": false, "LCHARG": false, "LPARD": false, "LVTOT": false, "LVHAR": false, "LELF": false, "LOPTICS": false, "STM": [0.0, 0.0, 0.0, 0.0, 0.0, 0.0, 0.0], "NPAR": 1, "NSIM": 4, "NBLK": -1, "LPLANE": true, "LSCALAPACK": true, "LSCAAWARE": false, "LSCALU": false, "LASYNC": false, "LORBITALREAL": false, "IDIOT": 3, "PHON_NSTRUCT": -1, "LMUSIC": false, "POMASS": [22.99, 30.974, 32.066], "DARWINR": [0.0, 0.0, 0.0], "DARWINV": [1.0, 1.0, 1.0], "LCORR": true, "GGA_COMPAT": true, "LBERRY": false, "ICORELEVEL": 0, "LDAU": false, "I_CONSTRAINED_M": 0, "GGA": "--", "VOSKOWN": 0, "LHFCALC": false, "PRECFOCK": "", "LSYMGRAD": false, "LHFONE": false, "LRHFCALC": false, "LTHOMAS": false, "LMODELHF": false, "LFOCKACE": false, "ENCUT4O": -1.0, "EXXOEP": 0, "FOURORBIT": 0, "AEXX": 0.0, "HFALPHA": 0.0, "MCALPHA": 0.0, "ALDAX": 1.0, "AGGAX": 1.0, "ALDAC": 1.0, "AGGAC": 1.0, "NKREDX": 1, "NKREDY": 1, "NKREDZ": 1, "SHIFTRED": false, "ODDONLY": false, "EVENONLY": false, "LMAXFOCK": 0, "NMAXFOCKAE": 0, "LFOCKAEDFT": false, "HFSCREEN": 0.0, "HFSCREENC": 0.0, "NBANDSGWLOW": 0, "LUSE_VDW": false, "Zab_VDW": -0.8491, "PARAM1": 0.1234, "PARAM2": 1.0, "PARAM3": 0.0, "MODEL_GW": 0, "MODEL_EPS0": 13.10249534, "MODEL_ALPHA": 1.0, "LEPSILON": false, "LRPA": false, "LNABLA": false, "LVEL": false, "CSHIFT": 0.1, "OMEGAMAX": -1.0, "DEG_THRESHOLD": 0.002, "RTIME": -0.1, "WPLASMAI": 0.0, "DFIELD": [0.0, 0.0, 0.0], "WPLASMA": [0.0, 0.0, 0.0, 0.0, 0.0, 0.0, 0.0, 0.0, 0.0], "NUCIND": false, "MAGPOS": [0.0, 0.0, 0.0], "LNICSALL": true, "ORBITALMAG": false, "LMAGBLOCH": false, "LCHIMAG": false, "LGAUGE": true, "MAGATOM": 0, "MAGDIPOL": [0.0, 0.0, 0.0], "AVECCONST": [0.0, 0.0, 0.0], "LFINITE_TEMPERATURE": false, "LADDER": false, "LRPAFORCE": false, "LFXC": false, "LHARTREE": true, "IBSE": 0, "KPOINT": [-1, 0, 0, 0], "LTCTC": false, "LTCTE": false, "LTETE": false, "LTRIPLET": false, "LFXCEPS": false, "LFXHEG": false, "NATURALO": 2, "LHOLEGF": false, "L2ORDER": false, "LDMP1": false, "LMP2LT": false, "LSMP2LT": false, "LGWLF": false, "ENCUTGW": -2.0, "ENCUTGWSOFT": -2.0, "ENCUTLF": -1.0, "LESF_SPLINES": false, "LMAXMP2": -1, "SCISSOR": 0.0, "NOMEGA": 0, "NOMEGAR": 0, "NBANDSGW": -1, "NBANDSO": -1, "NBANDSV": -1, "NELMGW": 1, "NELMHF": 1, "DIM": 3, "IESPILON": 4, "ANTIRES": 0, "OMEGAMIN": -30.0, "OMEGATL": -200.0, "OMEGAGRID": 0, "LSELFENERGY": false, "LSPECTRAL": false, "LSPECTRALGW": false, "LSINGLES": false, "LFERMIGW": false, "ODDONLYGW": false, "EVENONLYGW": false, "NKREDLFX": 1, "NKREDLFY": 1, "NKREDLFZ": 1, "MAXMEM": 2800, "TELESCOPE": 0, "NTAUPAR": -1, "NOMEGAPAR": -1, "DAMP_NEWTON": 0.80000001, "LAMBDA": 1.0, "OFIELD_KAPPA": 0.0, "OFIELD_K": [0.0, 0.0, 0.0], "OFIELD_Q6_NEAR": 0.0, "OFIELD_Q6_FAR": 0.0, "OFIELD_A": 0.0, "KPOINTS_OPT_MODE": 1, "LKPOINTS_OPT": false, "@module": "pymatgen.io.vasp.inputs", "@class": "Incar"}, "relaxed_structures": {"@module": "pymatgen.core.structure", "@class": "Structure", "charge": 0, "lattice": {"matrix": [[7.049423, 0.0, 0.0], [0.0, 7.049423, 0.0], [0.0, 0.0, 49.33674508]], "a": 7.049423, "b": 7.049423, "c": 49.33674508, "alpha": 90.0, "beta": 90.0, "gamma": 90.0, "volume": 2451.758199807386}, "sites": [{"species": [{"element": "Na", "occu": 1}], "abc": [-1.02e-06, 0.49998986, 0.10725377], "xyz": [-7.1904114599999994e-06, 3.5246400188507803, 5.291551909358952], "label": "Na", "properties": {}}, {"species": [{"element": "Na", "occu": 1}], "abc": [0.00023002, 0.00021685, 0.03576304], "xyz": [0.0016215082784599999, 0.00152866737755, 1.7644319877658434], "label": "Na", "properties": {}}, {"species": [{"element": "Na", "occu": 1}], "abc": [0.50000162, 0.99998958, 0.10725925], "xyz": [3.52472292006526, 7.0493495450123405, 5.29182227472199], "label": "Na", "properties": {}}, {"species": [{"element": "Na", "occu": 1}], "abc": [0.50022935, 3.609e-05, 0.03577586], "xyz": [3.52632828516505, 0.00025441367607, 1.7650644848377688], "label": "Na", "properties": {}}, {"species": [{"element": "Na", "occu": 1}], "abc": [0.49999007, 0.49998024, 0.10721194], "xyz": [3.52464149922961, 3.52457220340152, 5.289488153312256], "label": "Na", "properties": {}}, {"species": [{"element": "Na", "occu": 1}], "abc": [5.939e-05, 0.50019242, 0.03576834], "xyz": [0.00041866523197, 3.5260679499736596, 1.7646934725147674], "label": "Na", "properties": {}}, {"species": [{"element": "Na", "occu": 1}], "abc": [1.685e-05, 0.49996659, 0.24997197], "xyz": [0.00011878277755, 3.52447597877757, 12.332803361035406], "label": "Na", "properties": {}}, {"species": [{"element": "Na", "occu": 1}], "abc": [0.99999095, 0.99997511, 0.17862244], "xyz": [7.04935920272185, 7.04924753986153, 8.812649787847596], "label": "Na", "properties": {}}, {"species": [{"element": "Na", "occu": 1}], "abc": [0.49998205, 0.99997404, 0.24997374], "xyz": [3.52458496285715, 7.04923999697892, 12.3328906870742], "label": "Na", "properties": {}}, {"species": [{"element": "Na", "occu": 1}], "abc": [0.49995972, 0.99994509, 0.17857936], "xyz": [3.52442754924156, 7.04903591618307, 8.810524360869548], "label": "Na", "properties": {}}, {"species": [{"element": "Na", "occu": 1}], "abc": [0.50000594, 0.49994226, 0.24998164], "xyz": [3.52475337357262, 3.5243044663159804, 12.333280447360332], "label": "Na", "properties": {}}, {"species": [{"element": "Na", "occu": 1}], "abc": [0.99995035, 0.49994693, 0.17857603], "xyz": [7.04907299614805, 3.52433738712139, 8.810360069508432], "label": "Na", "properties": {}}, {"species": [{"element": "Na", "occu": 1}], "abc": [1.708e-05, 0.49999268, 0.39273662], "xyz": [0.00012040414483999999, 3.52465989822364, 19.37634650452083], "label": "Na", "properties": {}}, {"species": [{"element": "Na", "occu": 1}], "abc": [-1.114e-05, 0.99990863, 0.32131979], "xyz": [-7.853057222e-05, 7.04877889422049, 15.852872568389133], "label": "Na", "properties": {}}, {"species": [{"element": "Na", "occu": 1}], "abc": [0.5000045, 1.969e-05, 0.39273994], "xyz": [3.5247432224034996, 0.00013880313887, 19.376510302514497], "label": "Na", "properties": {}}, {"species": [{"element": "Na", "occu": 1}], "abc": [0.49999725, 0.99995897, 0.32140536], "xyz": [3.52469211408675, 7.04913376217431, 15.857094313665627], "label": "Na", "properties": {}}, {"species": [{"element": "Na", "occu": 1}], "abc": [0.50002365, 0.50001504, 0.39277565], "xyz": [3.5248782188539503, 3.5248175233219197, 19.378272117681302], "label": "Na", "properties": {}}, {"species": [{"element": "Na", "occu": 1}], "abc": [1.325e-05, 0.49989779, 0.32140277], "xyz": [9.340485475e-05, 3.52399097847517, 15.856966531495871], "label": "Na", "properties": {}}, {"species": [{"element": "Na", "occu": 1}], "abc": [0.99971096, 0.00026229, 0.46423672], "xyz": [7.04738543477608, 0.0018489931586699998, 22.903928711415336], "label": "Na", "properties": {}}, {"species": [{"element": "Na", "occu": 1}], "abc": [0.49975904, 4.298e-05, 0.46423358], "xyz": [3.5230128710339197, 0.00030298420054, 22.903773794035786], "label": "Na", "properties": {}}, {"species": [{"element": "Na", "occu": 1}], "abc": [0.99995538, 0.50020871, 0.46422836], "xyz": [7.049108454745739, 3.52618278507433, 22.903516256226467], "label": "Na", "properties": {}}, {"species": [{"element": "Na", "occu": 1}], "abc": [0.49998833, 8.25e-06, 0.60726698], "xyz": [3.52462923323359, 5.8157739750000004e-05, 29.960576187761458], "label": "Na", "properties": {}}, {"species": [{"element": "Na", "occu": 1}], "abc": [0.50018155, 0.49981115, 0.53576948], "xyz": [3.5259913227456496, 3.52338021646645, 26.43312225640416], "label": "Na", "properties": {}}, {"species": [{"element": "Na", "occu": 1}], "abc": [0.99999123, 0.49997292, 0.60726301], "xyz": [7.04936117656029, 3.52452060162516, 29.960380320883495], "label": "Na", "properties": {}}, {"species": [{"element": "Na", "occu": 1}], "abc": [0.00013552, 0.5001758, 0.53577522], "xyz": [0.00095533780496, 3.5259507885634, 26.43340544932092], "label": "Na", "properties": {}}, {"species": [{"element": "Na", "occu": 1}], "abc": [0.99997517, 0.99998189, 0.60722877], "xyz": [7.04924796282691, 7.049295334949471, 29.958691030731952], "label": "Na", "properties": {}}, {"species": [{"element": "Na", "occu": 1}], "abc": [0.49985985, 0.99988301, 0.53578337], "xyz": [3.52372352336655, 7.04859828800323, 26.433807543793318], "label": "Na", "properties": {}}, {"species": [{"element": "Na", "occu": 1}], "abc": [0.49995824, 0.99994248, 0.75002651], "xyz": [3.52441711609552, 7.04901751718904, 37.00386672711207], "label": "Na", "properties": {}}, {"species": [{"element": "Na", "occu": 1}], "abc": [0.50018491, 0.49986131, 0.67867743], "xyz": [3.52601500880693, 3.52373381552413, 33.483735355459544], "label": "Na", "properties": {}}, {"species": [{"element": "Na", "occu": 1}], "abc": [3.705e-05, 0.50001645, 0.75001743], "xyz": [0.00026118112215, 3.5248274630083496, 37.003418749466746], "label": "Na", "properties": {}}, {"species": [{"element": "Na", "occu": 1}], "abc": [0.00019681, 0.49993006, 0.6785937], "xyz": [0.00138739694063, 3.52421846335538, 33.47960438979399], "label": "Na", "properties": {}}, {"species": [{"element": "Na", "occu": 1}], "abc": [0.99996689, 0.99998047, 0.75001453], "xyz": [7.049189593604471, 7.04928532476881, 37.00327567290601], "label": "Na", "properties": {}}, {"species": [{"element": "Na", "occu": 1}], "abc": [0.50002276, 0.99982846, 0.67859475], "xyz": [3.52487194486748, 7.04821374197858, 33.47965619337633], "label": "Na", "properties": {}}, {"species": [{"element": "Na", "occu": 1}], "abc": [0.50000162, -1.5e-07, 0.89275531], "xyz": [3.52472292006526, -1.05741345e-06, 44.04564114828637], "label": "Na", "properties": {}}, {"species": [{"element": "Na", "occu": 1}], "abc": [0.49995974, 0.50000368, 0.82137357], "xyz": [3.52442769023002, 3.5247374418766397, 40.52389843853953], "label": "Na", "properties": {}}, {"species": [{"element": "Na", "occu": 1}], "abc": [-3.33e-06, 0.50001725, 0.89273691], "xyz": [-2.347457859e-05, 3.52483310254675, 44.044733352176905], "label": "Na", "properties": {}}, {"species": [{"element": "Na", "occu": 1}], "abc": [0.99997308, 0.49998085, 0.82140918], "xyz": [7.04923322953284, 3.5245765035495498, 40.52565532003183], "label": "Na", "properties": {}}, {"species": [{"element": "Na", "occu": 1}], "abc": [1.578e-05, 2.233e-05, 0.89278473], "xyz": [0.00011123989494, 0.00015741361559, 44.04709263532663], "label": "Na", "properties": {}}, {"species": [{"element": "Na", "occu": 1}], "abc": [0.50003324, -5.4e-07, 0.82143189], "xyz": [3.5249458228205204, -3.8066884200000003e-06, 40.5267757575126], "label": "Na", "properties": {}}, {"species": [{"element": "Na", "occu": 1}], "abc": [0.4998291, 0.49982852, 0.96423516], "xyz": [3.5235067536093, 3.52350266494396, 47.57222428609301], "label": "Na", "properties": {}}, {"species": [{"element": "Na", "occu": 1}], "abc": [0.99983887, 0.50009738, 0.9642246], "xyz": [7.04828712647201, 3.5253979728117404, 47.57170329006497], "label": "Na", "properties": {}}, {"species": [{"element": "Na", "occu": 1}], "abc": [0.50006516, 0.9998734, 0.96423385], "xyz": [3.52517084040268, 7.048530543048201, 47.572159654956955], "label": "Na", "properties": {}}, {"species": [{"element": "P", "occu": 1}], "abc": [-7.11e-06, -1.719e-05, 0.10723876], "xyz": [-5.012139753e-05, -0.00012117958136999999, 5.290811364815301], "label": "P", "properties": {}}, {"species": [{"element": "P", "occu": 1}], "abc": [0.50006527, 0.50003807, 0.03574744], "xyz": [3.52517161583921, 3.52497987153361, 1.763662334542595], "label": "P", "properties": {}}, {"species": [{"element": "P", "occu": 1}], "abc": [0.9999736, 0.99996089, 0.24997498], "xyz": [7.0492368952328, 7.04914729706647, 12.3329518646381], "label": "P", "properties": {}}, {"species": [{"element": "P", "occu": 1}], "abc": [0.49995318, 0.4999433, 0.17862075], "xyz": [3.52438144601514, 3.5243117977159, 8.81256640874841], "label": "P", "properties": {}}, {"species": [{"element": "P", "occu": 1}], "abc": [1.204e-05, -1.212e-05, 0.3927496], "xyz": [8.487505292e-05, -8.543900676e-05, 19.376986895471966], "label": "P", "properties": {}}, {"species": [{"element": "P", "occu": 1}], "abc": [0.50001419, 0.49995593, 0.32135063], "xyz": [3.5248115313123702, 3.52440083192839, 15.854394113607402], "label": "P", "properties": {}}, {"species": [{"element": "P", "occu": 1}], "abc": [0.49995238, 0.50005686, 0.46425196], "xyz": [3.5243758064767396, 3.52511233019178, 22.90468060341036], "label": "P", "properties": {}}, {"species": [{"element": "P", "occu": 1}], "abc": [0.49997947, 0.5000133, 0.60725157], "xyz": [3.52456677534581, 3.5248052573259, 29.959815908519772], "label": "P", "properties": {}}, {"species": [{"element": "P", "occu": 1}], "abc": [0.99985351, 0.00016438, 0.5357526], "xyz": [7.04839033002473, 0.00115878415274, 26.43228945214721], "label": "P", "properties": {}}, {"species": [{"element": "P", "occu": 1}], "abc": [0.50004942, 0.49993383, 0.75002024], "xyz": [3.5250598824846597, 3.52424503968009, 37.00355738572042], "label": "P", "properties": {}}, {"species": [{"element": "P", "occu": 1}], "abc": [2.376e-05, 0.99992831, 0.67864697], "xyz": [0.00016749429048, 7.04891762686513, 33.48223255820441], "label": "P", "properties": {}}, {"species": [{"element": "P", "occu": 1}], "abc": [0.5000007, 0.49999541, 0.89276068], "xyz": [3.5247164345960997, 3.52467914314843, 44.04590608660745], "label": "P", "properties": {}}, {"species": [{"element": "P", "occu": 1}], "abc": [2.856e-05, 0.99998348, 0.82137693], "xyz": [0.00020133152088, 7.04930654353204, 40.524064210003004], "label": "P", "properties": {}}, {"species": [{"element": "P", "occu": 1}], "abc": [7.639e-05, 0.00010904, 0.96424989], "xyz": [0.0005385054229700001, 0.00076866908392, 47.57295101634804], "label": "P", "properties": {}}, {"species": [{"element": "S", "occu": 1}], "abc": [0.83042299, 0.16955857, 0.08301854], "xyz": [5.85400292543477, 1.1952900832051099, 4.095864544893783], "label": "S", "properties": {}}, {"species": [{"element": "S", "occu": 1}], "abc": [0.16958206, 0.83042194, 0.08301873], "xyz": [1.19545567415138, 5.85399552354062, 4.095873918875348], "label": "S", "properties": {}}, {"species": [{"element": "S", "occu": 1}], "abc": [0.66964466, 0.66960467, 0.05998413], "xyz": [4.72060846803118, 4.72032656160541, 2.9594217306555803], "label": "S", "properties": {}}, {"species": [{"element": "S", "occu": 1}], "abc": [0.33042044, 0.33041099, 0.05996722], "xyz": [2.32927344940612, 2.32920683235877, 2.958587446296278], "label": "S", "properties": {}}, {"species": [{"element": "S", "occu": 1}], "abc": [0.33053244, 0.66965086, 0.0115187], "xyz": [2.3300629847821197, 4.72065217445378, 0.568295165552996], "label": "S", "properties": {}}, {"species": [{"element": "S", "occu": 1}], "abc": [0.66963521, 0.33050857, 0.01151632], "xyz": [4.72054185098383, 2.32989471505511, 0.5681777440997056], "label": "S", "properties": {}}, {"species": [{"element": "S", "occu": 1}], "abc": [0.16962608, 0.16962498, 0.13145928], "xyz": [1.19576598975184, 1.1957582353865401, 6.485772985760343], "label": "S", "properties": {}}, {"species": [{"element": "S", "occu": 1}], "abc": [0.83036907, 0.83034528, 0.13145882], "xyz": [5.85362282054661, 5.85345511477344, 6.485750290857606], "label": "S", "properties": {}}, {"species": [{"element": "S", "occu": 1}], "abc": [0.83042364, 0.16953905, 0.22574215], "xyz": [5.85400750755972, 1.19515247846815, 11.137382908361122], "label": "S", "properties": {}}, {"species": [{"element": "S", "occu": 1}], "abc": [0.16955318, 0.83041632, 0.22574145], "xyz": [1.19525208681514, 5.85395590578336, 11.137348372639567], "label": "S", "properties": {}}, {"species": [{"element": "S", "occu": 1}], "abc": [0.66958009, 0.66957064, 0.2028304], "xyz": [4.72015328678807, 4.72008666974072, 10.006991739274431], "label": "S", "properties": {}}, {"species": [{"element": "S", "occu": 1}], "abc": [0.33035153, 0.3303494, 0.20283293], "xyz": [2.32878767366719, 2.3287726583962, 10.007116561239485], "label": "S", "properties": {}}, {"species": [{"element": "S", "occu": 1}], "abc": [0.33038645, 0.66951321, 0.15438865], "xyz": [2.32903383951835, 4.71968182137783, 7.617033468295341], "label": "S", "properties": {}}, {"species": [{"element": "S", "occu": 1}], "abc": [0.66951099, 0.33037369, 0.15438842], "xyz": [4.71966617165877, 2.32894388888087, 7.6170221208439735], "label": "S", "properties": {}}, {"species": [{"element": "S", "occu": 1}], "abc": [0.16957976, 0.16956033, 0.27418914], "xyz": [1.19543946047848, 1.1953024901895901, 13.52759970388443], "label": "S", "properties": {}}, {"species": [{"element": "S", "occu": 1}], "abc": [0.83038016, 0.83035692, 0.27418701], "xyz": [5.85370099864768, 5.853537170057161, 13.52749461661741], "label": "S", "properties": {}}, {"species": [{"element": "S", "occu": 1}], "abc": [0.83037457, 0.16962371, 0.3685278], "xyz": [5.85366159237311, 1.1957492826193301, 18.181962123493225], "label": "S", "properties": {}}, {"species": [{"element": "S", "occu": 1}], "abc": [0.16965473, 0.8303588, 0.3685294], "xyz": [1.19596795572079, 5.8535504229724, 18.182041062285354], "label": "S", "properties": {}}, {"species": [{"element": "S", "occu": 1}], "abc": [0.66959714, 0.66951289, 0.34557679], "xyz": [4.720273479450221, 4.71967956556247, 17.049633993794693], "label": "S", "properties": {}}, {"species": [{"element": "S", "occu": 1}], "abc": [0.330473, 0.33040856, 0.34558272], "xyz": [2.329643967079, 2.32918970226088, 17.049926560693017], "label": "S", "properties": {}}, {"species": [{"element": "S", "occu": 1}], "abc": [0.33035967, 0.66959222, 0.29714321], "xyz": [2.32884505597041, 4.72023879628906, 14.660078804022906], "label": "S", "properties": {}}, {"species": [{"element": "S", "occu": 1}], "abc": [0.66962855, 0.33030897, 0.29714113], "xyz": [4.72049490182665, 2.32848765022431, 14.65997618359314], "label": "S", "properties": {}}, {"species": [{"element": "S", "occu": 1}], "abc": [0.16955379, 0.16955872, 0.41697342], "xyz": [1.19525638696317, 1.19529114061856, 20.572111327675774], "label": "S", "properties": {}}, {"species": [{"element": "S", "occu": 1}], "abc": [0.83043818, 0.83043307, 0.4169715], "xyz": [5.85411000617014, 5.85407398361861, 20.57201660112522], "label": "S", "properties": {}}, {"species": [{"element": "S", "occu": 1}], "abc": [0.66947845, 0.66964758, 0.48848216], "xyz": [4.719436783434349, 4.72062905234634, 24.10011980404777], "label": "S", "properties": {}}, {"species": [{"element": "S", "occu": 1}], "abc": [0.33034934, 0.33053428, 0.48848282], "xyz": [2.32877223543082, 2.33007595572044, 24.100152366299525], "label": "S", "properties": {}}, {"species": [{"element": "S", "occu": 1}], "abc": [0.33037913, 0.66962667, 0.4400158], "xyz": [2.32898223774199, 4.720481648911409, 21.708947355772263], "label": "S", "properties": {}}, {"species": [{"element": "S", "occu": 1}], "abc": [0.66958028, 0.33040161, 0.44003188], "xyz": [4.720154626178441, 2.32914070877103, 21.70974069063315], "label": "S", "properties": {}}, {"species": [{"element": "S", "occu": 1}], "abc": [0.66955646, 0.33042887, 0.5830364], "xyz": [4.71998670892258, 2.32933287604201, 28.765118239160913], "label": "S", "properties": {}}, {"species": [{"element": "S", "occu": 1}], "abc": [0.33043179, 0.66956609, 0.58302275], "xyz": [2.32935346035717, 4.72005459486607, 28.76444479259057], "label": "S", "properties": {}}, {"species": [{"element": "S", "occu": 1}], "abc": [0.8303373, 0.83050844, 0.55998388], "xyz": [5.8533988603779, 5.85460529863012, 27.62778193646931], "label": "S", "properties": {}}, {"species": [{"element": "S", "occu": 1}], "abc": [0.16948807, 0.16970071, 0.55998634], "xyz": [1.19479309888361, 1.19629208819033, 27.62790330486221], "label": "S", "properties": {}}, {"species": [{"element": "S", "occu": 1}], "abc": [0.16941998, 0.8306308, 0.51151609], "xyz": [1.19431310367154, 5.8554678660284, 25.236538936648337], "label": "S", "properties": {}}, {"species": [{"element": "S", "occu": 1}], "abc": [0.8302388, 0.1697779, 0.51153808], "xyz": [5.852704492212401, 1.1968362331517, 25.237623851672648], "label": "S", "properties": {}}, {"species": [{"element": "S", "occu": 1}], "abc": [0.33033881, 0.33039701, 0.63147374], "xyz": [2.32869800500663, 2.32910828142523, 31.1548589350942], "label": "S", "properties": {}}, {"species": [{"element": "S", "occu": 1}], "abc": [0.66961725, 0.66965615, 0.63147071], "xyz": [4.720415243346751, 4.72068946590145, 31.154709444756605], "label": "S", "properties": {}}, {"species": [{"element": "S", "occu": 1}], "abc": [0.66965648, 0.33029688, 0.72581366], "xyz": [4.72069179221104, 2.3284024227002402, 35.809283519001795], "label": "S", "properties": {}}, {"species": [{"element": "S", "occu": 1}], "abc": [0.33047064, 0.66952384, 0.72580312], "xyz": [2.32962733044072, 4.71975675674432, 35.80876350970865], "label": "S", "properties": {}}, {"species": [{"element": "S", "occu": 1}], "abc": [0.83042038, 0.83026381, 0.70285467], "xyz": [5.8539845264407395, 5.85288079828163, 34.676561682077526], "label": "S", "properties": {}}, {"species": [{"element": "S", "occu": 1}], "abc": [0.16968762, 0.16953275, 0.70285683], "xyz": [1.1961998112432601, 1.1951080671032501, 34.6766682494469], "label": "S", "properties": {}}, {"species": [{"element": "S", "occu": 1}], "abc": [0.16956338, 0.83040854, 0.65440864], "xyz": [1.1953239909297402, 5.85390106127242, 32.28639224982949], "label": "S", "properties": {}}, {"species": [{"element": "S", "occu": 1}], "abc": [0.83043792, 0.16952749, 0.65442679], "xyz": [5.85410817332016, 1.19507098713827, 32.2872877117527], "label": "S", "properties": {}}, {"species": [{"element": "S", "occu": 1}], "abc": [0.3304421, 0.33041039, 0.77425264], "xyz": [2.3294261399083003, 2.32920260270497, 38.199105127197015], "label": "S", "properties": {}}, {"species": [{"element": "S", "occu": 1}], "abc": [0.6695954, 0.66952249, 0.77425335], "xyz": [4.7202612134542, 4.71974724002327, 38.19914015628601], "label": "S", "properties": {}}, {"species": [{"element": "S", "occu": 1}], "abc": [0.66962918, 0.33036811, 0.86853983], "xyz": [4.72049934296314, 2.32890455310053, 42.850928184536535], "label": "S", "properties": {}}, {"species": [{"element": "S", "occu": 1}], "abc": [0.33039482, 0.66966514, 0.86854056], "xyz": [2.32909284318886, 4.72075284021422, 42.850964200360444], "label": "S", "properties": {}}, {"species": [{"element": "S", "occu": 1}], "abc": [0.83048853, 0.83040465, 0.84560972], "xyz": [5.85446494461819, 5.85387363901695, 41.719631192810176], "label": "S", "properties": {}}, {"species": [{"element": "S", "occu": 1}], "abc": [0.16956806, 0.16957685, 0.84560821], "xyz": [1.19535698222938, 1.19541894665755, 41.71955669432511], "label": "S", "properties": {}}, {"species": [{"element": "S", "occu": 1}], "abc": [0.1696586, 0.83038399, 0.7971647], "xyz": [1.1959952369878, 5.85372799793777, 39.32951159067467], "label": "S", "properties": {}}, {"species": [{"element": "S", "occu": 1}], "abc": [0.83039224, 0.16957516, 0.79716675], "xyz": [5.85378615567752, 1.19540703313268, 39.32961273100209], "label": "S", "properties": {}}, {"species": [{"element": "S", "occu": 1}], "abc": [0.33038959, 0.33042653, 0.91697454], "xyz": [2.32905597470657, 2.32931638039219, 45.24053912483026], "label": "S", "properties": {}}, {"species": [{"element": "S", "occu": 1}], "abc": [0.66956799, 0.66953679, 0.91698873], "xyz": [4.72006798876977, 4.71984804677217, 45.24123921324295], "label": "S", "properties": {}}, {"species": [{"element": "S", "occu": 1}], "abc": [0.83055599, 0.83056647, 0.98848946], "xyz": [5.85494049869377, 5.8550143766468095, 48.76885250228686], "label": "S", "properties": {}}, {"species": [{"element": "S", "occu": 1}], "abc": [0.16968289, 0.16971838, 0.98846999], "xyz": [1.1961664674724701, 1.19641665149474, 48.76789191586015], "label": "S", "properties": {}}, {"species": [{"element": "S", "occu": 1}], "abc": [0.16962435, 0.83045129, 0.94002256], "xyz": [1.19575379425005, 5.85420242410567, 46.377653412169], "label": "S", "properties": {}}, {"species": [{"element": "S", "occu": 1}], "abc": [0.83040764, 0.16963168, 0.9400212], "xyz": [5.85389471679172, 1.1958054665206401, 46.377586314195696], "label": "S", "properties": {}}]}, "formula": "", "bandgap": 2.2964}